default_name
 40191
  51.1859184  59.3392702  53.2685501  50.3387799  59.7802310  53.5972002
  51.9494347  59.9940058  53.3605526  51.2555771  58.4208001  53.6828687
  51.0489317  59.1063890  51.8369866  51.8480024  59.6326203  51.3148125
  51.1598634  57.6218944  51.5252258  52.1248705  57.2491161  51.8685871
  50.3607565  57.0825866  52.0338271  51.0388989  57.4078984  50.0181417
  52.1041592  57.4320488  49.3456547  49.8823899  57.2223210  49.5537631
  49.7258060  59.6686075  51.3242315  49.2968192  59.3418036  50.2154179
  49.0895903  60.5284924  52.1247298  49.4128712  60.6723366  53.0707201
  47.8829424  61.2304601  51.6903332  47.3073919  60.5352770  51.0791366
  47.0281164  61.6891858  52.8901370  47.6922281  62.0876329  53.6571415
  46.0191894  62.7688687  52.4764206  45.3543906  62.3709857  51.7097184
  45.4326830  63.0704758  53.3442594  46.5528218  63.6331464  52.0809971
  46.2133673  60.5252377  53.4593177  46.9100172  59.7137588  53.6697496
  45.7641924  60.8686233  54.3912124  45.1208526  60.0259596  52.5233951
  45.5693358  59.6819513  51.5913968  44.5865730  59.2012200  52.9950403
  44.4235119  60.8368171  52.3128577  48.3507012  62.3998321  50.8276132
  48.6537449  63.4897039  51.3297715  48.4528349  62.1665073  49.5164293
  48.1285343  61.2878222  49.1384862  49.0707065  63.1236068  48.6074870
  49.8256667  63.7019691  49.1400576  49.7401520  62.4043800  47.4431685
  48.9137872  61.9974061  46.8604227  50.2865399  63.1297856  46.8403858
  50.6844439  61.2669215  47.8545832  50.1625732  60.6235727  48.5629999
  51.1236275  60.4448486  46.6515845  51.6460149  61.0874663  45.9428865
  51.7914220  59.6482118  46.9794883  50.2484596  60.0092172  46.1694987
  51.8960821  61.8289868  48.5853879  51.5679146  62.3609017  49.4784008
  52.5588939  61.0126366  48.8723622  52.4301067  62.5163884  47.9293423
  48.0354094  64.1149376  48.0908167  46.9768951  63.7002093  47.5999889
  48.3039349  65.4141589  48.1853633  49.5376689  66.0301911  48.7084365
  50.4007002  65.6079885  48.1936334  49.6187076  65.8298405  49.7767957
  49.3457294  67.4996283  48.4105999  49.8315626  67.7440172  47.4659628
  49.7893632  68.0921767  49.2107104  47.8632314  67.7220627  48.3380643
  47.6548701  68.5401331  47.6485388  47.4030650  67.9347573  49.3030034
  47.3091466  66.4103833  47.7725202  46.3518554  66.1376208  48.2166964
  47.1628940  66.4851594  46.2626806  47.9921490  65.9934323  45.4949347
  46.0670900  67.1102152  45.8418567  45.3292404  67.3697097  46.4808714
  45.8879572  67.3988419  44.4288457  45.9079553  66.4755618  43.8498353
  44.5490535  68.0970824  44.1889625  44.5175901  69.0279916  44.7551057
  44.4372451  68.3144902  43.1267323  43.7364650  67.4472490  44.5137945
  47.0363036  68.2689206  43.9380396  47.4869905  69.1849055  44.6350511
  47.5245559  67.9538090  42.7413343  47.1138171  67.1453348  42.2966293
  48.6462645  68.6138059  42.0781852  48.6986146  68.2695187  41.0453130
  48.5039263  70.1438268  42.0791551  48.4874265  70.4984551  43.1097209
  49.3613089  70.5736568  41.5612348  47.2310262  70.6098939  41.3834320
  46.9580986  70.2301770  40.2408137  46.4448384  71.4294560  42.0684164
  45.5887592  71.7678587  41.6528303  46.7058284  71.7114033  43.0024886
  49.9914387  68.2155461  42.6757013  51.0038168  68.8383850  42.3442254
  50.0436951  67.2008799  43.5352016  49.2041714  66.8201172  43.9478989
  51.3277740  66.6266420  43.9242276  52.0186642  67.4236819  44.1989955
  51.1610038  65.6938115  45.1176968  50.6504722  66.2667547  45.8917723
  50.5350630  64.8542138  44.8154157  52.4702654  65.1755378  45.6574638
  53.3619311  66.0193888  46.3166282  53.1017336  67.0707598  46.4391674
  54.5626929  65.5411662  46.8124781  55.2424180  66.2085400  47.3422780
  54.8930740  64.2151979  46.6423237  56.0852942  63.7426908  47.1333391
  56.6044574  64.4197680  47.5733797  54.0386830  63.3629683  45.9748287
  54.3039535  62.3161345  45.8269402  52.8342249  63.8476221  45.4904233
  52.1500966  63.1809671  44.9654094  51.9338407  65.8529552  42.7564121
  51.2203323  65.1936205  41.9948286  53.2577903  65.9247277  42.6133769
  53.8162038  66.4016354  43.3067980  53.9331656  65.3727337  41.4389593
  53.2426408  64.7927606  40.8266637  54.5713869  66.4605099  40.5625054
  55.2793185  67.0393771  41.1556705  55.3014500  65.8044267  39.4002813
  54.5940340  65.2257156  38.8063479  55.7560195  66.5732998  38.7755403
  56.0781437  65.1434990  39.7850189  53.5232094  67.4517038  40.0603635
  53.0388270  67.9311427  40.9110186  54.0054131  68.2095491  39.4429093
  52.7763621  66.9227203  39.4683360  54.9913686  64.3814981  41.8904505
  55.8933929  64.7365648  42.6679007  54.8957883  63.1530440  41.3766773
  54.1320822  62.9709566  40.7413061  55.7899698  62.0506369  41.7180466
  56.3345711  62.2497986  42.6410001  55.0112138  60.7360685  41.8813320
  54.3549805  60.6054522  41.0208691  55.9553898  59.5664774  41.9742745
  56.6116835  59.6961622  42.8348333  55.3836946  58.6456137  42.0894920
  56.5551323  59.5099377  41.0658617  54.1282113  60.8102048  43.1133086
  53.4235615  61.6349660  43.0068206  53.5786131  59.8754186  43.2238356
  54.7473290  60.9735587  43.9954138  56.8585699  61.9153970  40.6421242
  56.5397456  61.7239016  39.4647188  58.1247379  62.0001751  41.0583744
  58.2808777  62.2397039  42.0270568  59.2915561  61.8601758  40.1795448
  60.1755183  62.2253131  40.7024069  59.5315879  60.4079850  39.7701335
  59.1845767  59.7696813  40.5826917  58.9404665  60.2105272  38.8758819
  61.0175462  60.1091365  39.4804206  61.3992180  60.9159691  38.8547620
  61.5449359  60.1092248  40.4343400  61.2378851  58.7768150  38.7796323
  62.3050734  58.5550701  38.7735308  60.7087550  57.9985805  39.3296067
  60.7211353  58.8263088  37.3457376  59.6371131  58.9329403  37.3860618
  61.1544212  59.7038514  36.8658610  61.0718282  57.6063603  36.5607286
  60.6700685  56.7931434  37.0049888  60.7064502  57.6928086  35.6231116
  62.0762753  57.5076047  36.5228804  59.1901798  62.7427997  38.9414919
  59.5313159  62.3278091  37.8309903  58.7099217  63.9718999  39.1363738
  58.3477956  64.2163071  40.0469940  58.6159786  64.9577589  38.0686684
  58.1089948  65.8497662  38.4366217  60.0110973  65.3565893  37.5724265
  60.6864070  65.3469597  38.4279750  60.3344267  64.6104662  36.8465763
  60.0308409  66.7208764  36.9326516  59.3265970  67.6216773  37.4338306
  60.7535415  66.8861255  35.9276792  57.7682522  64.4743231  36.8993520
  57.8968869  64.9955971  35.7874781  56.9390698  63.4644745  37.1078043
  56.8314488  63.0102234  38.0034454  56.2048529  62.9271886  35.9669619
  56.2096702  63.6430973  35.1450430  56.8729149  61.6218101  35.4876415
  57.8987840  61.8556591  35.2030253  56.8787892  60.9222260  36.3234930
  56.1431828  60.9875194  34.2949343  55.2558113  60.4812759  34.6749213
  55.8426172  61.7891925  33.6203362  56.9964254  60.0087137  33.5557729
  57.7293122  60.5359791  32.9450626  57.5128547  59.3551758  34.2588294
  56.1679089  59.1951256  32.6880196  55.2473447  59.5435400  32.4615948
  56.5516980  58.0357190  32.1684618  57.7761073  57.5551930  32.4117221
  58.4137597  58.0779845  32.9949789  58.0573708  56.6717699  32.0110301
  55.7177294  57.3451863  31.4187959  54.7891061  57.7010147  31.2423167
  56.0106277  56.4629731  31.0238157  54.7273202  62.6818147  36.2358891
  53.8973454  62.8627612  35.3327139  54.3606327  62.2281266  37.4306364
  55.0266236  62.1310128  38.1837130  52.9881689  61.7765642  37.6563454
  52.4255742  61.8443008  36.7252180  52.9570036  60.3255041  38.1421462
  53.5370762  60.1359298  39.0452944  51.9160566  60.0526439  38.3155728
  53.4695284  59.4020670  37.1090073  52.8689878  59.1073676  35.9256983
  51.8994815  59.5659930  35.7312247  53.6551355  58.2589547  35.2083313
  53.4177000  57.8857769  34.3003322  54.7997656  57.9883613  35.9023738
  55.8812223  57.1748375  35.5703551  55.8586648  56.6501612  34.6152088
  56.9143344  57.0844223  36.4729727  57.7739213  56.4516845  36.2519451
  56.8858689  57.7931950  37.6795322  57.7128453  57.7317495  38.3869458
  55.7916589  58.6041822  38.0145370  55.8028199  59.1220562  38.9735900
  54.7299180  58.7011655  37.1084192  52.3100865  62.7151908  38.6396247
  52.6330407  62.7147178  39.8309968  51.3690605  63.5083849  38.1308790
  51.1398026  63.4223735  37.1510105  50.6927654  64.5371870  38.9110643
  51.3172644  64.8358600  39.7530231  50.4227353  65.7654210  38.0436630
  51.3942673  66.1420641  37.7237180  49.8642112  65.4178507  37.1745567
  49.6457248  66.8839454  38.7334751  48.6466363  66.5204220  38.9738369
  50.1639752  67.1555546  39.6531202  49.5362050  68.1205051  37.8219251
  49.6822516  69.0132790  38.4299747  50.3194811  68.0642464  37.0660065
  48.1540868  68.1895314  37.1281885  47.9450847  67.1857644  36.7582283
  47.4331005  68.4477646  37.9038130  48.0454004  69.1768014  35.9920167
  48.7131042  68.9374408  35.2730050  47.1117501  69.1466424  35.6079757
  48.2386113  70.1070339  36.3347062  49.4015284  63.9484820  39.4766910
  48.4516372  63.6513804  38.7352659  49.3675582  63.7645455  40.7938529
  50.1768655  63.9773168  41.3594051  48.1973017  63.1916070  41.4491966
  47.9045895  62.2210538  41.0486405  48.4639889  63.0410769  42.9566191
  48.8338256  63.9906541  43.3434306  47.1870098  62.6499385  43.7020795
  46.8168058  61.7001617  43.3161081  47.4028148  62.5499241  44.7658116
  46.4300716  63.4205890  43.5563263  49.5932799  62.0320962  43.2110631
  50.5059490  62.3773396  42.7253222  49.7651696  61.9411901  44.2835787
  49.3114541  61.0605458  42.8051508  46.9816078  64.0675744  41.1758847
  47.0207684  65.2896631  41.3592304  45.8917765  63.4493729  40.7310884
  45.9465574  62.4741093  40.4742630  44.6203647  64.1446446  40.5438552
  44.7978439  65.2192191  40.5003818  43.9355340  63.7090383  39.2458752
  43.8239116  62.6312939  39.3646470  42.9502505  64.1721025  39.1921364
  44.7058814  64.0019560  37.9607751  45.7132845  63.5951886  38.0489799
  44.0119440  63.3730754  36.7788601  43.0045726  63.7797164  36.6897261
  44.5726846  63.5903997  35.8697722  43.9562631  62.2938902  36.9215464
  44.8821188  65.5036423  37.7544632  45.4347388  65.9239698  38.5947224
  45.4341439  65.6818134  36.8316281  43.9035363  65.9793004  37.6894649
  43.6685182  63.9233453  41.7113932  43.1308307  64.8869419  42.2606106
  43.4512888  62.6680547  42.0979546  43.8621841  61.9085098  41.5741646
  42.5965260  62.3430033  43.2269666  42.8156181  63.0209302  44.0518987
  41.1159447  62.4757817  42.8650954  40.5308380  62.3534349  43.7765671
  40.9530092  63.4747979  42.4607210  40.6836257  61.4414690  41.8449506
  41.4570507  61.3856639  41.0789216  40.6085955  60.4813051  42.3553993
  39.3574753  61.7732802  41.1985604  38.5557497  61.5198115  41.8921660
  39.3285033  62.8418415  40.9854014  39.1731572  60.9891971  39.8983179
  39.6107829  61.5586873  39.0784001  39.6854884  60.0313742  39.9888233
  37.7273948  60.7548056  39.6237388  37.2525543  61.6422261  39.5394114
  37.6279850  60.2365852  38.7625389  37.3217888  60.2267490  40.3831722
  42.9032341  60.9285299  43.6983116  43.4399052  60.1015377  42.9580623
  42.5892505  60.6884608  44.9654068  42.3629519  61.4671172  45.5675550
  42.5782825  59.3483728  45.5359618  43.4971614  58.8173233  45.2874723
  42.4757119  59.4618816  47.0572836  43.3946732  59.9695952  47.3502620
  41.6267544  60.1260287  47.2193941  42.3053996  58.2259759  47.8807110
  41.3300414  57.7758092  47.6959756  43.0880871  57.5031677  47.6503839
  42.4078835  58.6391205  49.3619199  43.3725628  59.1251189  49.5078598
  41.6082966  59.3509700  49.5669334  42.2885148  57.4594527  50.3070315
  41.9116465  57.8135640  51.2665501  41.5871789  56.7396047  49.8850767
  43.6099312  56.8064627  50.5043050  44.2598335  57.4732028  50.8956928
  43.5082585  56.0248321  51.1358241  43.9591256  56.4778838  49.6153741
  41.3926882  58.5849490  44.9616705  40.2936646  59.1347751  44.8499811
  41.6171829  57.3352208  44.5487209  42.5433638  56.9331193  44.5732718
  40.5318823  56.5428720  43.9686389  39.5682444  57.0216266  44.1426944
  40.7368085  56.3381785  42.4583923  39.9709884  55.6551791  42.0907896
  40.6389074  57.6572376  41.7117570  41.4047683  58.3406454  42.0785152
  40.7875725  57.4839463  40.6459383  39.6540246  58.0950777  41.8742413
  42.0804868  55.6759610  42.1782894  42.8629268  56.3914773  42.4311228
  42.1629863  54.8038471  42.8269116  42.2397160  55.2381959  40.7038686
  42.1577900  56.1099036  40.0546276  43.2159122  54.7733781  40.5657219
  41.4578475  54.5222746  40.4504158  40.4068620  55.2039937  44.6920750
  39.4631354  54.4453243  44.4545737  41.3529547  54.9022643  45.5813544
  42.1518794  55.5110048  45.6874369  41.2764041  53.7129240  46.4157997
  40.2459769  53.5515050  46.7324427  41.6231378  52.8460530  45.8532966
  42.1478519  53.8851239  47.6427227  42.9569933  54.8088382  47.7339640
  41.9763259  52.9893667  48.6052526  41.2955581  52.2451734  48.5520465
  42.8041573  53.0800557  49.7919812  43.8495289  52.9815782  49.4994071
  42.6474551  54.0538255  50.2560030  42.4698557  51.9989510  50.7929873
  41.4362656  51.3225920  50.7044208  43.3679061  51.8627803  51.7630642
  44.1658461  52.4817525  51.7793267  43.2541666  50.8632703  52.8022104
  42.3238131  51.0213654  53.3476896  43.2428816  49.8740046  52.3446895
  44.4161541  50.9444447  53.7741039  44.4530332  50.2046150  54.7548536
  45.3279883  51.7477365  53.5904662  47.0897618  48.5076573  53.6720086
  47.2122452  49.5088371  53.7243329  47.5584529  48.0817308  54.4587840
  46.1152572  48.3085832  53.4964813  47.7999621  48.0253331  52.4931927
  48.5525106  47.3012467  52.8053924  46.8314778  47.3384338  51.5260818
  46.3447670  46.5035854  52.0303040  46.0772002  48.0534051  51.1974765
  47.4678141  46.7771002  50.2770493  46.6785015  46.1269919  49.3208361
  45.6046226  46.0260358  49.4779727  47.2684823  45.6065490  48.1627934
  46.6539461  45.1003944  47.4183113  48.6477757  45.7362144  47.9609622
  49.1071180  45.3310131  47.0593434  49.4370915  46.3863222  48.9171741
  50.5109701  46.4872771  48.7600340  48.8471138  46.9067669  50.0752180
  49.4616525  47.4129226  50.8196966  48.5244288  49.1695995  51.7795657
  49.7281390  49.0875714  51.4842910  47.7744059  50.2301028  51.5052439
  46.8181145  50.2691068  51.8278658  48.2901932  51.3529607  50.7455127
  48.9341824  51.9586854  51.3830663  48.8643787  50.9842726  49.8955248
  47.1462340  52.2169409  50.2332438  46.0620306  52.2431591  50.8096686
  47.4278878  52.9357085  49.1523436  48.3248960  52.8416758  48.6977740
  46.4688768  53.8738002  48.5957730  45.4581722  53.5682541  48.8663594
  46.7122145  55.2777387  49.1308294  47.7239644  55.5756533  48.8556780
  45.9952267  55.9500190  48.6595886  46.5588546  55.3481661  50.6173167
  45.4966829  55.2682603  50.8486329  47.0891963  54.4997939  51.0498691
  47.0974252  56.6140165  51.1891861  46.3804192  57.2020849  52.0158517
  48.2193609  57.0176570  50.8199321  46.6270106  53.8668852  47.0888556
  47.7036403  53.5547561  46.5781162  45.5539070  54.2207582  46.3788924
  44.6882589  54.4173889  46.8606485  45.5617326  54.2744609  44.9214821
  46.5843848  54.1900601  44.5538435  44.6971374  53.1519091  44.3015873
  43.6690810  53.2586383  44.6477220  44.7328105  53.2436944  42.7841500
  45.7605577  53.1365814  42.4372161  44.1210371  52.4490556  42.3570866
  44.3424456  54.2113324  42.4688867  45.2085227  51.7856009  44.7694174
  45.1837107  51.1233161  43.9040481  46.2409160  51.9251009  45.0900469
  44.4018413  51.1654920  45.9077157  43.3693722  51.0252509  45.5876535
  44.8328406  50.2008458  46.1756642  44.4265757  51.8270374  46.7736520
  45.0745787  55.6479791  44.4698341  44.0819352  56.1757381  44.9859634
  45.7654277  56.2156479  43.4851551  46.5015216  55.6813323  43.0460970
  45.5120239  57.5612619  43.0051483  44.6182108  57.9596273  43.4852550
  46.6958029  58.4866155  43.3264722  47.5979757  58.0380605  42.9105614
  46.4870666  59.4249327  42.8125753  46.8985208  58.7524312  44.7904659
  47.7910325  57.9866445  45.5308864  48.3347646  57.1850927  45.0309169
  47.9973979  58.2278309  46.8894046  48.6949818  57.6202731  47.4659045
  47.3076684  59.2548028  47.5014853  47.4905478  59.5037573  48.8409754
  48.1184390  58.9047578  49.2515261  46.4228609  60.0409461  46.7771038
  45.8854952  60.8560547  47.2618062  46.2241101  59.7844132  45.4283581
  45.5299137  60.3973912  44.8535108  45.3188579  57.5007930  41.4975262
  45.9954698  56.7272391  40.8183172  44.4109948  58.3239328  40.9720032
  43.6679911  58.7013756  41.5426009  44.4330146  58.6610932  39.5561416
  44.8378218  57.8208217  38.9920723  43.0228293  58.9729890  39.0288880
  42.4318407  58.0640640  39.1415238  42.6099708  59.7554315  39.6656232
  42.9825267  59.4281539  37.5736837  43.3954743  60.4364220  37.5425310
  43.6282392  58.7540804  37.0108521  41.5731568  59.4308045  36.9482889
  40.6156113  58.9143995  37.5598259  41.4351149  59.9620576  35.8264651
  45.3679903  59.8526258  39.3972847  45.2784682  60.8244296  40.1566220
  46.3185828  59.7396260  38.4732062  46.3858525  58.8897005  37.9317260
  47.3060549  60.7829566  38.2445474  46.9549097  61.7148044  38.6877809
  48.6779381  60.4289047  38.8614102  49.0468727  59.5027064  38.4207924
  49.3856201  61.2332666  38.6606907  48.5703793  60.3006483  39.9384806
  47.4435934  61.0126496  36.7515420  47.1131957  60.1485677  35.9308752
  47.9121885  62.1992694  36.4060248  48.0501616  62.9252398  37.0945230
  48.2242555  62.4970204  35.0200048  47.6307069  61.8541153  34.3700263
  47.9163320  63.9495855  34.6806468  46.8531489  64.1258590  34.8439522
  48.4965366  64.5910502  35.3439610  48.2705295  64.2708620  33.2175970
  49.3459576  64.1604871  33.0784120  47.7465842  63.5747663  32.5625900
  47.7911453  65.9475209  32.8001290  48.1963122  65.9261977  31.0192609
  47.6103319  65.1532280  30.5220247  47.9627120  66.8966308  30.5813213
  49.2580309  65.7159904  30.8901575  49.6961289  62.2254965  34.7653488
  50.5723340  62.7152404  35.5027310  49.9642917  61.4674510  33.7108135
  49.2082401  60.9928005  33.2383813  51.3181402  61.2517155  33.2325556
  52.0026392  61.1424791  34.0737617  51.3673164  59.9811605  32.3977403
  50.8153376  59.2128367  32.9391248  50.8763348  60.1769034  31.4444712
  52.7652423  59.5096584  32.1506654  53.5911071  60.3612644  31.7775430
  53.0200499  58.2939553  32.3207187  51.7195869  62.4820523  32.4357903
  51.2431057  62.6803247  31.3196901  52.5755420  63.3331247  33.0188981
  52.9390459  63.1464775  33.9425469  52.9629400  64.5900169  32.3571567
  52.0736092  65.1349139  32.0404908  53.7584393  65.4721585  33.3293336
  54.5604928  64.8176210  33.6704937  54.1870670  66.3436783  32.8345291
  52.9260400  65.9256845  34.5290792  52.4428352  65.0511225  34.9646883
  53.8098935  66.6209617  35.6070117  54.2930956  67.4959419  35.1722427
  53.1855513  66.9302797  36.4452360  54.5703759  65.9238635  35.9588939
  51.7587629  66.8206098  34.0881803  51.1130525  66.2668948  33.4065960
  51.1850208  67.1274069  34.9627068  52.1484365  67.7037007  33.5818167
  53.7767174  64.3486376  31.0929983  53.9443554  65.2736867  30.2937989
  54.2912599  63.1365890  30.9019664  54.1862720  62.4262322  31.6122269
  55.0662314  62.8143085  29.7131147  55.5419728  63.7186148  29.3336421
  56.1526389  61.7843602  30.0241216  56.7805032  62.3323542  30.7266800
  55.7534675  60.8949566  30.5116905  56.9872162  61.3694111  28.8115277
  56.3214585  60.8867368  28.0960606  57.6997630  62.5865996  28.1236744
  58.3660852  63.0695343  28.8384385  58.2779011  62.2344490  27.2693634
  56.9509543  63.3025003  27.7847466  57.9475508  60.2594564  29.2190468
  57.3801648  59.4025704  29.5822533  58.5446576  59.9604469  28.3575608
  58.6059952  60.6199698  30.0093505  54.1345885  62.3090526  28.6209663
  54.0443922  62.9392364  27.5611466  53.4177335  61.1974931  28.8811726
  53.4317376  60.7620632  29.7923828  52.6134209  60.5790007  27.8304308
  53.1156577  60.7169954  26.8729263  52.4176245  59.0756722  28.0693579
  51.8942517  58.6460544  27.2151860  53.7783419  58.3755270  28.2423865
  54.3021368  58.8043234  29.0967121  53.6205839  57.3102475  28.4108831
  54.3767624  58.5157596  27.3422042  51.6380580  58.8890019  29.2646889
  51.5113576  57.9502809  29.4207346  51.2391492  61.2012340  27.7114857
  50.5605574  60.9615726  26.7067372  50.7868748  61.9573751  28.7295611
  51.3496777  61.8686641  29.5635171  49.5728217  62.7858900  28.7923244
  49.6296243  63.4312950  29.6688659  49.4048195  63.6723351  27.5358490
  49.0380222  63.0411495  26.7264271  48.6637458  64.4388345  27.7625393
  50.7186936  64.3419502  27.1071715  51.4170178  63.5467205  26.8463002
  50.5030802  64.9402982  26.2219638  51.3300236  65.2182288  28.1682095
  51.3788391  64.6687899  29.1083333  52.3360767  65.5073365  27.8642798
  50.5390193  66.4254783  28.3733093  49.7027410  66.5104451  27.8133819
  50.8244900  67.3932069  29.2368236  51.9022805  67.3297804  30.0303566
  52.5180688  66.5309499  29.9776808  52.0939962  68.0810888  30.6775663
  50.0363255  68.4603389  29.3089008  49.2273513  68.5283578  28.7080396
  50.2497623  69.1986463  29.9642218  48.2911428  61.9945040  29.0182968
  47.2209371  62.5952419  29.0538471  48.3609433  60.6756179  29.1611546
  49.2047898  60.2021470  28.8715898  47.2543669  59.8705670  29.6628993
  46.3187083  60.2872801  29.2900827  47.3494100  58.3997990  29.2185862
  46.4034816  57.9217991  29.4732130  47.4784901  58.3951535  28.1362661
  48.5336776  57.6103712  29.8913268  49.4966293  57.9953315  29.5557222
  48.4083931  57.8221832  30.9531830  48.4813341  56.0807842  29.6610452
  49.2032005  55.3848993  30.4101782  47.6741701  55.5801679  28.8188198
  47.1831895  59.9350996  31.1792414  48.1615267  60.2602422  31.8543300
  46.0185807  59.6067590  31.7108436  45.1778937  59.5465143  31.1543229
  45.9145587  59.3797715  33.1453484  46.6270701  60.0246575  33.6596915
  44.5101909  59.6822494  33.6747586  43.8163432  59.2387608  32.9606210
  44.3460523  59.2449162  34.6595927  44.2375868  61.1705355  33.7543606
  45.1028565  61.9744068  33.4316233  43.0587834  61.5425143  34.2543039
  42.8316585  62.5239372  34.3272642  42.3983947  60.8411512  34.5577464
  46.2973411  57.9457318  33.4591533  46.1466837  57.0516302  32.6227954
  46.7943954  57.7355538  34.6834802  46.7914179  58.5057022  35.3369035
  47.3555043  56.4596302  35.1196370  47.0213079  55.6418934  34.4811086
  48.8985625  56.4783196  35.1298846  49.2699551  55.4992091  35.4323898
  49.4296493  56.8172470  33.7059194  49.0590262  57.7964890  33.4028937
  50.5195204  56.8294499  33.7174326  49.0826964  56.0633928  32.9992164
  49.4440932  57.4944434  36.1767173  49.0939735  57.2160953  37.1707196
  50.5339171  57.4843809  36.1599135  49.0867003  58.4949670  35.9331531
  46.8422598  56.1704160  36.5203805  46.3057892  57.0487426  37.2016151
  47.0155076  54.9129135  36.9522481  47.2836144  54.1899585  36.2999031
  46.7844553  54.5397664  38.3372485  46.1548629  55.2774826  38.8347297
  46.0998132  53.1686225  38.4291211  46.7227039  52.4176241  37.9432110
  45.9597221  52.9013371  39.4765147  45.1302619  53.2120785  37.9329548
  48.1312961  54.5299262  39.0668951  49.0948274  53.9352759  38.5839328
  48.1931236  55.2092060  40.2104042  47.3536787  55.6761694  40.5224567
  49.4040661  55.3437049  41.0210869  50.2240880  54.7996722  40.5523741
  49.8036060  56.8152950  41.1491628  50.1355184  57.0385994  40.1352256
  48.9029656  57.3879727  41.3704935  50.9048157  57.1941372  42.1408042
  50.6113248  56.8397708  43.1289279  52.2440854  56.5844017  41.7615439
  52.5384797  56.9386913  40.7736625  52.9977383  56.8786318  42.4919799
  52.1580390  55.4979064  41.7465647  50.9826934  58.7204516  42.2449498
  50.0262986  59.1106702  42.5929984  51.7659942  58.9975123  42.9504840
  51.2112804  59.1407824  41.2655780  49.1139287  54.7356028  42.3824638
  48.3315293  55.3042413  43.1484237  49.7109464  53.5724740  42.6605830
  50.3431186  53.1832613  41.9757683  49.4838809  52.8264329  43.8972050
  48.6045222  53.2259495  44.4023920  49.2559569  51.3404863  43.6218679
  48.4588251  51.2627819  42.8825154  50.1791430  50.9394183  43.2035715
  48.8788945  50.5547321  44.8508863  49.7509068  50.4868125  45.5013341
  48.0793944  51.0834005  45.3699349  48.4114157  49.1654342  44.4898312
  47.7233715  49.2305481  43.6469467  49.2747475  48.5627953  44.2077248
  47.7148699  48.5261679  45.6555913  47.3422980  49.2949397  46.3325556
  46.8815003  47.9187424  45.3025637  48.6917588  47.6585236  46.3778319
  49.4638470  48.2212592  46.7054113  48.2355007  47.2215212  47.1658403
  49.0367922  46.9458321  45.7508376  50.6805717  52.9743618  44.8205133
  51.8234459  52.7764466  44.3916752  50.4136658  53.3028506  46.0777811
  49.4609419  53.3265348  46.4122290  51.4770832  53.6876089  46.9950872
  52.4928425  53.4963314  46.6490452  51.3735467  55.1697343  47.4301878
  52.2556225  55.4240298  48.0178743  51.2867153  56.1003133  46.2065833
  50.4045695  55.8469101  45.6186151  51.2148633  57.1352731  46.5409424
  52.1791569  55.9784713  45.5927395  50.2629465  55.3967906  48.4656783
  50.4654776  54.7980122  49.3536803  50.2303523  56.4514786  48.7389375
  49.3034189  55.1023048  48.0406067  51.4358090  52.7808500  48.2212523
  50.3892903  52.2902241  48.6535207  52.5988481  52.5928737  48.8166211
  53.4483263  52.9446137  48.3985720  52.7005710  51.8442529  50.0544544
  51.7137640  51.7303016  50.5031483  53.2778362  50.4528463  49.7823636
  52.6069297  49.9766825  49.0673449  54.2511752  50.6099146  49.3175616
  53.4363458  49.5619071  50.9954835  53.9610098  50.0967314  51.7871851
  52.4315616  49.3081301  51.3332782  54.1931139  48.2888728  50.6572663
  53.5514129  47.2207874  50.5289216  55.4363989  48.3735082  50.4810383
  53.5802657  52.6660296  50.9769501  54.6214612  53.1620131  50.5405635
  53.1221469  52.8833989  52.2086042  52.2208750  52.5332128  52.5004569
  53.9002059  53.6682409  53.1602723  54.0557574  54.6726442  52.7664742
  53.1696472  53.7763109  54.5018407  52.1111288  53.9504311  54.3086562
  53.2903356  52.8364491  55.0405374  53.6887234  54.8405183  55.2853160
  53.2140686  54.8855005  56.1185503  55.2674724  53.0385967  53.3726038
  55.3875551  51.8199050  53.5099121  56.3035112  53.8821681  53.3829397
  56.1725417  54.8652908  53.1921096  57.6597933  53.3967159  53.6105692
  57.8443389  52.5855848  52.9062195  58.6830596  54.5075903  53.3567386
  58.5168236  55.3231558  54.0605273  59.6899876  54.1123113  53.4907192
  58.5716747  54.8790522  52.3380587  57.8477181  52.8462826  55.0152106
  58.7924199  52.0834574  55.2406152  56.9788635  53.2060158  55.9591537
  56.3113060  53.9377282  55.7615094  56.9943295  52.6287218  57.2946182
  57.9555893  52.1465305  57.4722981  56.7827957  53.7083598  58.3628810
  56.1374485  54.4625800  57.9125721  56.2566812  53.2255351  59.1864002
  58.0511783  54.3737786  58.8903630  57.8414271  54.8427648  59.8516939
  58.8193951  53.6112202  59.0186194  58.5683736  55.4222526  57.9475388
  57.7910234  56.1268942  57.3040981  59.8882694  55.5443797  57.8604408
  60.2887291  56.2343775  57.2410569  60.4852791  54.9466772  58.4140042
  55.9630640  51.5355732  57.4871478  55.7704190  51.0863059  58.6168747
  55.2736926  51.0959444  56.4141727  55.1771945  51.2805787  55.4258925
  54.3680227  50.1334061  57.0290206  54.1937826  50.4020143  58.0709367
  53.0279735  50.1221739  56.2974189  52.3697773  49.4985319  56.9023550
  52.6735852  51.1526965  56.3204832  53.0261568  49.6238227  54.8797391
  52.2166607  50.0717674  54.3034037  53.9833485  49.9096181  54.4436117
  52.8936554  48.1201911  54.8103893  52.3296363  47.4922943  55.7186239
  53.3579134  47.5341570  53.7103809  53.2949003  46.5310038  53.6113127
  53.7713398  48.0949797  52.9791780  55.0024102  48.7422286  57.0643822
  55.7819249  48.3815900  56.1737921  54.6935433  47.9664961  58.1092622
  53.6867504  48.2313499  59.1537187  52.7169189  47.8492347  58.8351042
  53.6136568  49.3044385  59.3304595  54.2363088  47.4924541  60.3386670
  53.4284710  47.2000697  61.0094938  54.9468964  48.1188760  60.8778907
  54.9182503  46.2956703  59.7493305  54.2058487  45.5040083  59.5172652
  55.6889600  45.9066171  60.4147205  55.5588616  46.8180284  58.4539988
  56.5571540  47.2172134  58.6333359  55.6305527  45.7359909  57.3902398
  56.7327225  45.3408971  56.9857480  54.4812223  45.2326149  56.9378957
  53.6139180  45.5994363  57.3030322  54.4180328  44.1412934  55.9659845
  55.3069026  43.5169362  56.0564712  53.1876196  43.2748692  56.2075163
  52.4748417  43.8808108  56.7668746  52.7700090  43.0332407  55.2301131
  53.4665215  41.9972703  56.9657187  53.9808841  41.3032502  56.3009871
  54.1089484  42.2297353  57.8150418  52.1816716  41.3624526  57.4628558
  51.7987351  41.9495361  58.2975963  51.4518449  41.3639177  56.6532570
  52.4282711  39.9340961  57.9195310  51.5369307  39.5787453  58.4365792
  52.6073994  39.3167923  57.0392195  53.6046067  39.8458276  58.8372281
  53.4386418  40.4174263  59.6532124  53.7393517  38.8857539  59.1204282
  54.4307277  40.1746565  58.3581720  54.3962860  44.7483125  54.5716815
  53.3678156  45.2529328  54.1217973  55.5198253  44.6750451  53.8717898
  56.2905442  44.1325089  54.2347585  55.7098835  45.3916564  52.6192196
  54.9356248  46.1498742  52.5020508  57.0694250  46.0789094  52.6112099
  57.8220428  45.3497045  52.9110864  57.2753066  46.4159377  51.5952745
  57.1108539  47.2605841  53.5515336  56.0763204  47.5603999  53.7187214
  57.5622164  46.9700056  54.5001843  57.8689613  48.4367947  52.9986731
  58.5811901  48.3208278  52.0007639  57.7580311  49.5756637  53.6752158
  58.2439974  50.4003272  53.3529299  57.1882888  49.6110774  54.5084271
  55.5752859  44.4129198  51.4604086  56.4696925  43.5972380  51.2194811
  54.4644687  44.5023655  50.7361305  53.7608289  45.1850302  50.9789457
  54.1760561  43.5677946  49.6594920  54.9657207  42.8193382  49.5935977
  52.8282599  42.8453208  49.8833177  52.6330545  42.1858542  49.0376831
  52.8738334  42.0247880  51.1671935  53.0685532  42.6836800  52.0133888
  51.9177319  41.5216801  51.3115987  53.6678516  41.2814446  51.0959382
  51.6911555  43.8559831  49.9733430  51.6375069  44.4268515  49.0463408
  50.7491569  43.3307434  50.1310181  51.8723592  44.5342397  50.8071500
  54.2078270  44.2148006  48.2876145  54.2408399  43.4814593  47.2828809
  54.2251188  45.5522639  48.2066585  54.1968961  46.1174407  49.0432456
  54.2268338  46.2312993  46.9104432  53.3014587  46.0136591  46.3771395
  54.3362688  47.7484977  47.1027762  54.1297152  47.8222753  48.1704802
  55.3799599  48.0019053  46.9167833  53.4282746  48.7239572  46.3370456
  52.9186696  49.3672197  47.0544137  54.2394792  49.5767360  45.3812254
  54.7490424  48.9341576  44.6632162  53.5761523  50.2594852  44.8502342
  54.9772491  50.1505002  45.9421092  52.3046187  48.0166893  45.5920876
  51.6841995  47.4706454  46.3027321  51.6947049  48.7533092  45.0691176
  52.7293138  47.3190165  44.8702942  55.3572971  45.7378776  46.0211750
  55.1954193  45.6541025  44.8038680  56.5043584  45.3833423  46.6120971
  56.6493642  45.5156464  47.6028383  57.6031127  44.8557429  45.8189092
  57.8658281  45.5940254  45.0612689  58.8293587  44.6108832  46.7119257
  59.1174828  45.5430164  47.1979416  58.5846221  43.8669687  47.4700782
  59.9869212  44.1042321  45.8581235  59.6996885  43.1718176  45.3721180
  60.2325519  44.8478652  45.0999828  61.2039165  43.8612174  46.7444029
  61.4920404  44.7933495  47.2304208  60.9591793  43.1173017  47.5025537
  62.3614794  43.3545682  45.8905993  62.0742474  42.4221542  45.4045926
  62.6071103  44.0982028  45.1324620  63.5345819  43.1203163  46.7449152
  63.3073171  42.4309598  47.4472243  64.3012308  42.7847661  46.1794458
  63.8011611  43.9842831  47.1950219  57.2133619  43.5740310  45.0925630
  57.5698061  43.3826074  43.9272572  56.5157689  42.6596259  45.7625938
  56.3118820  42.7382452  46.7486711  56.1343201  41.4300477  45.0724574
  56.9620435  41.0620788  44.4661802  55.7722875  40.3597212  46.1085180
  56.7090277  40.1315693  46.6170098  55.0945957  40.8570884  46.8023910
  55.1365988  39.0708507  45.6166932  55.6778365  38.7621149  44.7223528
  55.2710705  38.3231814  46.3983646  53.4047298  39.2110716  45.2330932
  52.7911665  39.7938605  46.8222421  53.2704197  40.7403476  47.0723970
  51.7121719  39.9374525  46.7652092  53.0189193  39.0571108  47.5925859
  55.0185937  41.6972751  44.0639848  54.9859375  41.0778124  42.9923989
  54.1342993  42.6468753  44.3640781  54.1530704  43.1108626  45.2609966
  53.0982504  43.0310220  43.4064227  52.4445179  42.1852287  43.1934279
  52.2620295  44.1545155  43.9976020  52.9687713  44.8874920  44.3866529
  51.7075173  44.5906684  43.1667068  51.3094423  43.7590581  45.0786622
  50.6319636  42.9976385  44.6921865  51.8808714  43.3476739  45.9107265
  50.5055677  44.9546431  45.5591278  49.6625473  45.4394455  44.7840167
  50.7056615  45.4069983  46.6995304  53.7185988  43.4921310  42.0947518
  53.2595611  43.1230241  41.0034996  54.7565894  44.3268286  42.1896067
  55.0347924  44.6945920  43.0881903  55.4716253  44.7864628  41.0017910
  54.8130592  45.2300073  40.2550259  56.5436934  45.8252098  41.3930907
  57.1788451  45.4041530  42.1724447  57.3929235  46.1872281  40.1901405
  56.7584895  46.6088080  39.4104836  58.1442411  46.9207576  40.4826417
  57.8873593  45.2927160  39.8113491  55.9297059  47.0638541  42.0051419
  55.3759213  46.7897649  42.9030840  56.7181414  47.7696883  42.2664215
  55.2517670  47.5263790  41.2878063  56.0906478  43.6024269  40.2687580
  56.0365115  43.5169464  39.0369641  56.6921579  42.6632506  41.0155126
  56.7653085  42.7455276  42.0194941  57.3408725  41.5280851  40.3647419
  58.0516782  41.9141288  39.6341087  58.1040141  40.6987632  41.3978272
  57.4043987  40.2978080  42.1312255  58.6163561  39.8767449  40.8979354
  58.8361407  41.3296323  41.9019046  56.3360682  40.6713095  39.6001944
  56.6069867  40.2444884  38.4684202  55.1553758  40.4291112  40.1898641
  54.9753288  40.7105565  41.1430015  54.1186529  39.6806030  39.4804290
  54.4988508  38.7558222  39.0464599  52.9706538  39.3362074  40.4417234
  52.6163583  40.2539872  40.9110357  51.8199182  38.6718214  39.6918834
  52.1733576  37.7536673  39.2226558  51.0177320  38.4363230  40.3912675
  51.4453972  39.3501547  38.9252677  53.4879111  38.4355211  41.5555555
  54.2761576  38.9512306  42.1040199  52.6716100  38.1928233  42.2358862
  53.8867030  37.5169609  41.1250756  53.6207692  40.4782955  38.2811395
  53.4470135  39.9412394  37.1769177  53.3872764  41.7705284  38.4737567
  53.4728745  42.2042684  39.3818546  52.9048572  42.5868824  37.3567022
  52.0137124  42.1333131  36.9228415  52.5497236  43.9948648  37.8437808
  51.8154702  43.8244868  38.6311450  53.4532584  44.4239258  38.2769456
  51.9709769  44.9635364  36.8070593  52.6645120  45.0399728  35.9696422
  50.6312210  44.4732552  36.3080496  49.9369697  44.3970016  37.1448885
  50.2376582  45.1752652  35.5729367  50.7514484  43.4934110  35.8459337
  51.8266400  46.3605917  37.4025232  52.8043340  46.7240429  37.7189360
  51.4142391  47.0351147  36.6521596  51.1580696  46.3222560  38.2625482
  53.9351981  42.6283700  36.2296661  53.5843808  42.5308274  35.0516947
  55.2174424  42.7395473  36.5645367  55.5228078  42.9333911  37.5075509
  56.2258998  42.6536625  35.5154646  55.9968764  43.3665567  34.7233602
  57.6036010  42.9746051  36.0748779  57.6746945  42.4787500  37.0429547
  58.3316353  42.5396608  35.3901228  57.8855433  44.4337854  36.2407135
  57.7568832  44.9472894  35.2878960  57.2062647  44.8615950  36.9780476
  59.3294254  44.6020106  36.7196317  59.4980991  43.9035368  37.5392551
  59.9923893  44.3552069  35.8903752  59.6169600  46.0195488  37.1941267
  59.8633984  46.6227052  36.3203011  58.7111323  46.4081669  37.6594774
  60.7602792  46.0790085  38.1873969  61.5998371  45.7193500  37.7562496
  60.9108819  47.0367758  38.4704173  60.5319443  45.5205187  38.9973669
  56.2204047  41.2815541  34.8518244  56.3555510  41.1774004  33.6215787
  56.0587060  40.2134497  35.6519817  55.9809690  40.3152630  36.6538251
  56.0661525  38.8684864  35.0931301  56.9735351  38.7175519  34.5083439
  56.0236726  37.8227675  36.2078200  55.3118845  38.1799303  36.9520591
  55.6516584  36.8994505  35.7637578  57.3685375  37.5589208  36.8766736
  58.0746662  37.1942904  36.1306656  57.7431034  38.4874763  37.3074719
  57.2102407  36.5227809  37.9706824  56.1766420  36.5413738  38.3162643
  57.4351556  35.5419404  37.5517973  58.1406510  36.7991436  39.1410765
  58.2079420  37.8772235  39.2870773  57.7234640  36.3371787  40.0358628
  59.4833880  36.2540984  38.8888443  59.8703153  36.6823522  38.0599983
  60.0804613  36.4506406  39.6793976  59.4213119  35.2550738  38.7539533
  54.9146779  38.6665922  34.1295571  55.0379769  37.8977049  33.1704624
  53.8034754  39.3663864  34.3457537  53.7650974  40.0233600  35.1119209
  52.6142310  39.1880057  33.5315244  52.5833452  38.1760508  33.1276774
  51.3659993  39.4115903  34.3851481  51.6212926  40.2246147  35.0647921
  50.5060262  39.7003587  33.7808641  51.0220197  38.1568230  35.1962894
  51.9181025  37.7385222  35.6547226  50.0603642  38.5714367  36.2677203
  49.1637711  38.9894396  35.8100161  49.7897708  37.7037614  36.8694010
  50.5269203  39.3231842  36.9043532  50.4671703  37.0151575  34.3352158
  51.2071702  36.7309488  33.5870680  50.2438208  36.1568956  34.9689371
  49.5556676  37.3451741  33.8368677  52.5734594  40.1306364  32.3303533
  51.6214992  40.0773531  31.5511217  53.5659156  41.0069127  32.1605672
  54.3442992  41.0895798  32.7988340  53.4928151  41.9329228  31.0349249
  52.5625224  42.4986395  31.0861046  54.6654015  42.9163807  31.0614326
  55.5808310  42.3260185  31.1009383  54.6362085  43.4785252  30.1280295
  54.6347465  43.8729400  32.2243343  54.6840375  43.3194636  33.1620630
  55.4967527  44.5357340  32.1484966  53.3783526  44.7128127  32.2247498
  53.2216760  45.6105276  31.3878953  52.4645512  44.4171404  33.1506823
  51.6059778  44.9471559  33.1958117  52.6354983  43.6646338  33.8023051
  53.4671514  41.1626807  29.7197764  54.2796710  40.2628353  29.4989979
  52.5382225  41.5309958  28.8424868  51.9574822  42.3309056  29.0498137
  52.3227278  40.8348654  27.6020218  52.1903265  41.5852180  26.8225731
  53.2182155  40.2493876  27.3936548  51.1239504  39.9148249  27.6076119
  50.6865740  39.4879631  26.5353638  50.6013392  39.5834463  28.7878618
  51.0647086  39.8861528  29.6327031  49.3772091  38.8083127  28.9127550
  49.3647442  38.0143246  28.1660779  49.2848019  38.1726324  30.3058686
  49.2325717  38.9982083  31.0156542  48.3475337  37.6165726  30.3265060
  50.4229313  37.2546141  30.6847100  51.3398795  37.6488043  30.2466221
  50.5119991  37.2515191  31.7710614  50.2023259  35.8771262  30.2059174
  49.1631400  35.5977988  30.3796067  50.4176027  35.8282826  29.1385048
  51.1169627  34.9164976  30.9520032  51.4436838  35.3869508  31.8793800
  50.5625924  34.0067223  31.1823978  52.3071773  34.5758879  30.1218982
  52.8212454  35.4187182  29.9086594  52.9020701  33.9386035  30.6318699
  52.0046699  34.1395559  29.2627109  48.1539712  39.6944789  28.7217114
  48.1564728  40.8935996  29.0303751  47.0832759  39.0912032  28.2346890
  47.1310862  38.1539737  27.8613066  45.8018317  39.7804635  28.2067958
  45.9271664  40.7611152  27.7477614  44.7674036  38.9927266  27.4018367
  44.5879234  38.0442131  27.9080070  43.8485291  39.5789834  27.3933121
  45.2088535  38.7297822  25.9835867  45.8279446  39.6279353  25.3817418
  44.9475682  37.6181642  25.4741936  45.2921701  39.9710540  29.6329267
  45.6969755  39.2593485  30.5646631  44.3917837  40.9370859  29.8069206
  44.1776507  41.5663968  29.0465167  43.7492034  41.1687808  31.1011424
  43.0245582  41.9764081  30.9975726  43.0169848  39.9124800  31.6205165
  43.7660460  39.1914060  31.9477148  42.3512316  40.1463088  32.4512973
  42.1854578  39.2256545  30.5867145  41.0659557  39.7971459  30.0292222
  40.5434342  38.9717366  29.1432110  39.6293134  39.2290744  28.6081789
  41.3109934  37.8985103  29.0810977  41.1711290  37.1061141  28.4706501
  42.3369142  38.0261567  29.9811842  43.0717605  37.2280635  30.0867751
  44.7285730  41.6514801  32.1700023  44.4318557  41.5631400  33.3557514
  45.9075063  42.1345477  31.7881544  46.1672593  42.1142308  30.8123393
  46.8699695  42.6534459  32.7472426  46.4851845  42.6448522  33.7670298
  48.1543282  41.8123946  32.7001626  48.5209743  41.7744152  31.6743812
  49.1999488  42.4231197  33.5813813  48.8341817  42.4610168  34.6074803
  50.1069576  41.8199198  33.5415633  49.4208170  43.4335580  33.2373851
  47.8060510  40.3598517  33.1330496  47.0637846  39.9450292  32.4510929
  48.7065720  39.7463129  33.1060013  47.4033427  40.3686977  34.1458914
  47.1475060  44.1152403  32.4246288  47.3156629  44.4691554  31.2539840
  47.1707508  44.9722481  33.4575525  46.9488721  44.6656483  34.3939636
  47.5229442  46.3797076  33.2525825  46.8493148  46.8230306  32.5192426
  47.4070631  47.1638230  34.5586960  48.0471869  46.7249766  35.3240421
  47.6887673  48.2052981  34.4035431  45.7763753  47.1934943  35.2413606
  46.0844477  47.9296848  36.3053217  48.9523628  46.5388460  32.7491122
  49.8698990  45.8005761  33.1479327  49.1611665  47.5418806  31.8932590
  48.4042226  48.0558381  31.4654940  50.5223279  47.9014912  31.5411652
  51.0414104  47.0344439  31.1326537  50.5222054  49.0092904  30.4911596
  49.8329655  49.7737280  30.8498833  51.5340403  49.4140773  30.4702378
  50.1196617  48.5822731  29.0920099  50.4626286  47.5628982  28.9149524
  49.0339475  48.6203521  29.0032593  50.7494214  49.5195536  28.0569292
  51.7017424  49.0996368  27.7331182  50.0795102  49.6020397  27.2010587
  50.9861627  50.8542328  28.5953964  51.9447708  51.0936001  28.8048558
  50.0352292  51.7558152  28.8470386  48.7696235  51.5025399  28.5814019
  48.5091793  50.6128120  28.1805864  48.0659057  52.1993181  28.7798482
  50.3844984  52.9292822  29.3493931  51.3576071  53.1264619  29.5345408
  49.6763359  53.6222597  29.5453186  51.2910761  48.3759587  32.7690906
  50.7896968  49.1663418  33.5753874  52.5339093  47.8942758  32.8954869
  52.8509693  47.1341640  32.3108482  53.4481225  48.4284257  33.8821490
  52.9111915  48.6526159  34.8038557  54.5406468  47.4137398  34.1900501
  54.1154534  46.5648358  34.7254675  55.0042724  47.0652936  33.2671543
  55.6580026  47.9584157  35.0579804  56.8634251  48.3672046  34.4920809
  57.0083711  48.2827077  33.4150707  57.8756111  48.8790832  35.2898639
  58.8119460  49.2141917  34.8436802  57.6912682  48.9638370  36.6672468
  58.4872975  49.3632459  37.2956653  56.5154639  48.5477853  37.2332497
  56.3765272  48.6056626  38.3128084  55.5049734  48.0542110  36.4328059
  54.5647309  47.7307588  36.8793738  54.0467245  49.7120098  33.3206293
  54.5958198  49.7145219  32.2088730  53.9515199  50.8041755  34.0748928
  53.4457753  50.7664983  34.9483355  54.4627743  52.1011583  33.6235541
  54.8261757  52.0498546  32.5971982  53.3512547  53.1766588  33.7245525
  52.9450716  53.1584206  34.7358799  53.8949310  54.5851606  33.4149966
  54.3008916  54.6043082  32.4035966  53.0873259  55.3127417  33.4956226
  54.6816348  54.8360025  34.1265264  52.2415895  52.7937850  32.7730764
  52.6299201  52.8859147  31.7587725  51.9827040  51.7533255  32.9693460
  51.0211203  53.6471611  32.9189706  51.2791394  54.6877757  32.7223816
  50.2619991  53.3210351  32.2080022  50.6319244  53.5551881  33.9329565
  55.7219181  52.5188839  34.3703367  56.6769325  53.0182793  33.7532980
  55.7673770  52.3145273  35.6791899  54.9781976  51.9503025  36.1936173
  56.9895536  52.6208383  36.4135548  57.8201540  52.0635516  35.9803877
  57.1941014  53.6892259  36.3442200  56.8482053  52.2403013  37.8706496
  55.7641193  51.9049088  38.3426587  57.9777858  52.3036367  38.5841624
  58.8744380  52.4712640  38.1505553  57.9359707  52.0941217  40.0229105
  57.0306221  52.5524041  40.4209312  57.9350508  50.6084644  40.3918258
  57.8598920  50.4878784  41.4725243  57.0989498  50.1006131  39.9110740
  59.4207512  49.7123875  39.8900396  59.0392923  48.5316276  40.3687811
  59.1428301  52.7799284  40.6401712  60.1092473  53.1158176  39.9530277
  59.0760585  52.9792550  41.9485899  58.2863587  52.6586803  42.4905359
  60.1474617  53.6696717  42.6379089  61.1078403  53.2915709  42.2874636
  60.0817347  54.7382796  42.4333201  60.0462705  53.4479573  44.1251507
  58.9479386  53.3265207  44.6829088  61.2115537  53.3722271  44.7665171
  62.0604719  53.3643422  44.2193653  61.3224034  53.2697268  46.2107747
  60.3415391  53.2434391  46.6854467  62.0992133  52.0147490  46.6221662
  61.5592925  51.1277184  46.2908635  63.0871367  52.0311546  46.1619072
  62.2462781  51.9826569  48.1397190  62.7865435  52.8692075  48.4717463
  61.2587003  51.9657687  48.6007037  63.0194379  50.7335800  48.5491772
  62.4795189  49.8465489  48.2178733  64.0073614  50.7499877  48.0889192
  63.1820125  50.6684105  50.0187770  62.7903557  51.4109159  50.5803729
  63.8202963  49.6767560  50.6336880  64.3623270  48.6643456  49.9627719
  64.2941033  48.6359425  48.9554790  64.8396751  47.9285775  50.4636547
  63.9077744  49.7181517  51.9601626  63.4950632  50.4883913  52.4666213
  64.3865156  48.9791595  52.4549314  62.0239780  54.5243254  46.6993610
  63.0939871  54.8739911  46.1944259  61.4091978  55.2168709  47.6521947
  60.4836086  54.9468456  47.9529772  61.9739756  56.4475761  48.1808900
  63.0569303  56.4400799  48.0573902  61.4026306  57.6655054  47.4350788
  62.0775892  58.5170238  47.5213719  61.3202318  57.3724584  46.3884490
  60.0313970  58.0818402  47.9311317  59.8849893  58.6702104  49.0001926
  59.0185924  57.8205583  47.1175411  58.0789379  58.0727360  47.3887525
  59.1909696  57.3704404  46.2299710  61.7703722  56.4815949  49.6934541
  61.3108762  55.5117716  50.3102249  62.1750711  57.5951907  50.3063345
  62.4982650  58.3938114  49.7792197  62.2387476  57.6558498  51.7620679
  62.7362537  56.7507870  52.1105622  63.0699702  58.8726715  52.1992897
  64.0643912  58.8118839  51.7571010  62.5797215  59.7871575  51.8654158
  63.1888151  58.8864158  53.7045429  62.1947483  58.9476614  54.1474663
  63.6794195  57.9723898  54.0391517  64.0145606  60.0952244  54.1388857
  63.3910944  61.1652959  54.3709165  65.2609266  59.9370158  54.2344999
  60.8575897  57.6904152  52.4051366  60.7157863  57.2731878  53.5625506
  59.8408751  58.1590291  51.6778298  60.0155279  58.4478459  50.7258946
  58.4965616  58.3313560  52.2172005  58.5756398  58.3116128  53.3041485
  57.9324937  59.6880435  51.7928098  58.6043317  60.4806039  52.1223259
  57.8388991  59.7197212  50.7072977  56.5602746  59.8889151  52.4270731
  55.8877096  59.0969370  52.0976376  56.6531412  59.8578225  53.5126656
  55.9978059  61.2417515  52.0038857  56.6696441  62.0343125  52.3333997
  55.9042101  61.2734273  50.9183739  54.6255874  61.4426232  52.6381514
  53.9530220  60.6506450  52.3087172  54.7184563  61.4115331  53.7237425
  54.0834042  62.7466677  52.2302246  53.9968669  62.7755247  51.2243527
  53.1745913  62.8797052  52.6502962  54.7062552  63.4806987  52.5357638
  57.5344304  57.2278124  51.7993438  56.6930730  56.8128211  52.6068033
  57.6350347  56.7232915  50.5717321  58.3037556  57.0665411  49.8971274
  56.7166882  55.6700608  50.1595785  56.5835493  54.9713972  50.9855581
  55.3397312  56.2280682  49.7609481  54.7580385  55.4318708  49.2964028
  54.8043093  56.6083655  50.6308892  55.3990084  57.3543184  48.7659810
  55.4497062  57.0924695  47.3994281  55.4385493  56.0583263  47.0551561
  55.5133761  58.1221350  46.4858433  55.5436848  57.8952593  45.4201466
  55.5389120  59.4390692  46.9146044  55.5840865  60.2529136  46.1909218
  55.5066360  59.7200540  48.2749558  55.5383963  60.7517608  48.6252021
  55.4333248  58.6754946  49.1923108  55.4021001  58.8895607  50.2606275
  57.3075870  54.8895427  48.9978680  58.2416451  55.3378152  48.3265958
  56.7665075  53.6944856  48.7979166  56.1734683  53.3103404  49.5196064
  56.9931484  52.9056746  47.6018631  57.9114564  53.2406378  47.1195673
  57.1259393  51.4162385  47.9251257  56.1933431  51.0853765  48.3821749
  57.2950518  50.8606415  47.0027305  58.2638986  51.1245180  48.8814947
  59.3611769  51.6767065  48.7461093  58.0162194  50.2381394  49.8502465
  58.7398829  50.0064622  50.5156310  57.1064764  49.8038915  49.9126745
  55.8120789  53.1265779  46.6697931  54.7040951  53.4349605  47.1171142
  56.0488772  52.9767954  45.3704468  56.9720737  52.7950923  45.0033070
  54.9511072  53.1468909  44.4268120  54.0275678  52.7764682  44.8717403
  54.7618709  54.6216019  44.0636234  53.8111272  54.6955845  43.5356914
  54.7038052  55.1832319  44.9959861  55.8669925  55.1942579  43.1968314
  56.9855002  55.7968909  43.7632676  57.0697149  55.8514571  44.8486385
  57.9910996  56.3271175  42.9594762  58.8716334  56.7960591  43.3986297
  57.8681918  56.2350387  41.5726953  58.8717627  56.7699597  40.7705912
  59.5836696  57.1686461  41.2763949  56.7619446  55.6399421  41.0024013
  56.6698247  55.5705660  39.9185188  55.7776666  55.1355246  41.8056534
  54.8957662  54.6732776  41.3621678  55.1550719  52.3298925  43.1622073
  56.2724422  51.9518711  42.7942733  54.0265216  52.1217439  42.4847922
  53.1526630  52.3867352  42.9163593  53.9847590  51.4828737  41.1498634
  54.9368348  51.5528001  40.6237825  53.5609446  50.0068615  41.2040324
  54.2461988  49.4671320  41.8576516  52.1501787  49.8740371  41.7331668
  51.4642405  50.4131622  41.0797650  51.8704666  48.8209644  41.7631606
  52.0977480  50.2921342  42.7384267  53.7197080  49.3375083  39.8630945
  54.7638453  49.3853218  39.5539128  53.4108950  48.2948598  39.9380508
  53.0993731  49.8475522  39.1261138  53.0044038  52.3028689  40.3077081
  52.0215411  52.7569267  40.8338103  53.3427957  52.5184550  39.0527298
  54.2228888  52.1877351  38.6837313  52.4360242  53.2584339  38.1471014
  51.5578966  53.6423821  38.6663075  53.1444679  54.4286040  37.4500049
  53.9086622  54.0365191  36.7789045  52.1452040  55.2417045  36.6558593
  51.3808991  55.6345338  37.3263993  52.6575053  56.0692855  36.1651887
  51.6764705  54.6077543  35.9031989  53.8972109  55.2975358  38.4359803
  54.6498623  54.6983056  38.9483679  54.3845683  56.1140720  37.9032036
  53.1997165  55.7064827  39.1669830  51.9744693  52.2310682  37.1305618
  52.7893409  51.5152253  36.6170112  50.6814494  52.1894444  36.8760666
  50.0251801  52.8437797  37.2776327  50.1703080  51.1706882  35.9484205
  50.9656240  50.8505378  35.2753118  49.6632411  49.9494987  36.7231472
  49.2114621  49.2609310  36.0090957  50.5204579  49.4706335  37.1963991
  48.6646775  50.3122419  37.7599911  49.1125252  51.1025234  38.3624764
  47.7956693  50.7061077  37.2329270  48.1378914  48.9540051  38.8508050
  47.5787540  49.9410995  40.2215118  46.7766183  50.6011282  39.8913006
  47.2093180  49.2888444  41.0128278  48.4073085  50.5388897  40.6013085
  49.0043545  51.7646854  35.1711356  48.4872932  52.7707651  35.5428038
  48.6527235  51.0685118  34.1221227  49.1671298  50.2398699  33.8597526
  47.5264156  51.4834457  33.2796648  47.7284779  52.4368266  32.7914692
  47.3391422  50.4243656  32.2140856  48.2749529  50.3345497  31.6624601
  47.1206364  49.4807119  32.7139585  46.2237031  50.7558943  31.2587850
  45.2779868  50.8431760  31.7936714  46.4349045  51.6911045  30.7402506
  46.0998194  49.6638681  30.2437261  46.7795476  48.6617319  30.2948687
  45.2086064  49.8771921  29.3107924  45.0640462  49.1872015  28.5875243
  44.6690129  50.7309426  29.3178815  46.2661221  51.6444548  34.1310908
  45.9556865  50.7912444  34.9125687  45.5529744  52.7262722  33.9111376
  45.8665907  53.4158610  33.2431470  44.2941630  52.9741933  34.6304080
  44.3813142  52.6399744  35.6642366  43.9773727  54.4743953  34.6255198
  44.8483361  54.9048471  35.1197196  43.9787680  54.7604158  33.5737164
  42.7011046  54.9958701  35.2946540  41.8443477  54.4412720  34.9119146
  42.7900321  54.8130473  36.8252003  43.6463408  55.3677732  37.2087541
  41.8777559  55.1870554  37.2899268  42.9088696  53.7550628  37.0589665
  42.5352845  56.4646867  34.9280105  42.4563658  56.5627718  33.8453053
  41.6314412  56.8563846  35.3946381  43.3991970  57.0276617  35.2812998
  43.1391982  52.2257691  33.9860179  42.9617100  52.3008798  32.7814228
  42.3276129  51.5361403  34.7891328  42.5077065  51.4880733  35.7817834
  41.1889914  50.8002093  34.2576401  41.2048301  50.8329008  33.1682460
  41.2388442  49.3451916  34.7013173  41.2164234  49.3350912  35.7910395
  40.3448536  48.8552862  34.3154759  42.5146199  48.5789713  34.1969051
  43.3609293  49.0843073  34.6621972  42.4821365  47.5422616  34.5319870
  42.7058008  48.5961706  32.7029255  41.8038121  48.9435806  31.9440344
  43.8920692  48.1554162  32.2551377  44.0807531  48.1424610  31.2630027
  44.5905226  47.8387603  32.9123997  39.9032423  51.4807398  34.7431106
  39.9445486  52.4772474  35.4783925  38.7695933  50.9184929  34.3388739
  38.8050923  50.0474684  33.8288196  37.4658653  51.5112617  34.6030129
  37.6369525  52.5430331  34.9100571  36.9101529  51.4991464  33.6653902
  36.6479737  50.8068528  35.6713839  37.1414470  50.4855452  36.7501793
  35.3724523  50.5623669  35.3527809  35.0432734  50.7061374  34.4088155
  34.4190459  50.0957983  36.3545283  34.4690797  50.7126461  37.2517990
  33.0174645  50.1959695  35.7735754  32.9627596  49.5163964  34.9231126
  32.3167473  49.8715425  36.5428885  32.6558548  51.6113586  35.3190230
  32.3256560  52.1822623  36.1868585  33.5443242  52.0784460  34.8941070
  31.5333023  51.5873605  34.2627271  30.7068480  51.0039096  34.6685071
  31.2069325  52.6146149  34.1004601  31.9308554  51.0051173  32.9617558
  32.8615751  50.6191951  32.8915833  31.1485188  50.9796343  31.8823976
  29.9107573  51.4610946  31.9606553  29.5741968  51.8409167  32.8339034
  29.3133365  51.4445676  31.1464594  31.5804072  50.4565656  30.7247563
  32.5131893  50.0740688  30.6638150  30.9707655  50.4477037  29.9195499
  34.6822692  48.6497482  36.7737390  34.8973673  47.7796339  35.9197871
  34.5807480  48.3730907  38.0940132  34.4356191  49.0691348  38.8113413
  34.8517260  46.9972788  38.5078896  35.4739572  46.5217972  37.7497045
  35.5838868  46.9121659  39.8761006  36.1000618  45.9645007  40.0297017
  36.3163112  47.7154424  39.7960912  34.6726255  47.1895858  41.1118522
  33.6606665  46.5259292  41.2995966  35.1247114  48.0636557  42.0036050
  34.5720185  48.2778172  42.8213857  36.0191534  48.5102345  41.8599331
  33.5552329  46.1739072  38.4773168  32.4404301  46.7136490  38.4440514
  33.7147514  44.8439070  38.4460391  34.6289746  44.4321704  38.5675639
  32.5898294  43.9611398  38.2026271  32.0386158  44.3022016  37.3263054
  33.0695375  42.5260514  37.9519727  33.6656107  42.2606410  38.8251012
  32.2180403  41.8499585  37.8748304  33.9451284  42.4056970  36.6701769
  34.8964571  42.9201010  36.8060555  34.2004773  40.9166753  36.4332036
  33.2495686  40.4016450  36.2967664  34.8129992  40.7901086  35.5405119
  34.7211297  40.4954216  37.2931844  33.2828163  43.0671555  35.4673380
  33.1250234  44.1254614  35.6751583  33.9259655  42.9609153  34.5937400
  32.3231291  42.5888095  35.2716740  31.6108495  43.9496922  39.3582050
  30.4225359  43.7093000  39.1342331  32.0757266  44.1835423  40.5915717
  33.0546629  44.3308723  40.7917637  31.1288506  44.1786209  41.7136571
  30.4968155  43.2920166  41.6630261  31.8705570  44.1762930  43.0580035
  32.5007668  45.0629276  43.1273931  31.1467010  44.1809893  43.8729333
  32.4915055  43.2833083  43.1294207  30.2244040  45.3831364  41.6104254
  29.0014482  45.2580510  41.7393192  30.8037722  46.5523670  41.3113297
  31.8079254  46.6392745  41.2463469  29.9908468  47.7468099  41.1031627
  29.3621259  47.9067987  41.9790696  30.8459933  48.9860564  40.8856824
  31.5992453  48.7223218  40.1432844  30.2133164  49.7823392  40.4935682
  31.5313305  49.4628290  42.1544892  31.0907163  49.0672228  43.2469364
  32.4976594  50.2520991  42.0614187  29.0731737  47.5758625  39.9072663
  27.9151568  48.0047364  39.9485584  29.5768794  46.9835233  38.8153278
  30.5498895  46.7243285  38.7367867  28.7039457  46.7614099  37.6608853
  28.2360050  47.7069016  37.3867028  29.4707350  46.2190050  36.4393027
  30.1137275  45.4400724  36.8490879  28.7815935  45.7787165  35.7186571
  30.3368487  47.2830753  35.7374114  30.8499392  47.8889190  36.4842664
  31.3895125  46.5715818  34.8332793  30.8771354  45.9658701  34.0858290
  32.0053252  47.3196541  34.3340165  32.0229141  45.9311932  35.4471239
  29.4973894  48.2913437  34.9272336  28.8072572  48.8087130  35.5936764
  30.1581404  49.0177647  34.4541355  28.9325242  47.7612977  34.1603715
  27.5672621  45.8127156  38.0027735  26.4264213  46.0146373  37.5505611
  27.8502565  44.7543888  38.7544187  28.7768866  44.5342442  39.0905622
  26.7496266  43.8326509  39.0859877  26.2705407  43.4953711  38.1668477
  27.2570268  42.6166901  39.8436811  28.0235606  42.1291845  39.2412996
  27.6938945  42.9529127  40.7840007  26.1468501  41.6414292  40.1271861
  25.3411361  42.1865609  40.6188742  25.7921583  41.2527222  39.1726167
  26.5918360  40.4817592  41.0147479  25.7820848  39.7544490  41.0732436
  27.4682675  40.0136775  40.5665663  26.9328154  40.9137452  42.3705138
  27.9256139  40.9811405  42.5434543  26.0931907  41.2028292  43.3642093
  24.7562872  41.1458897  43.2210590  24.3575896  40.8755807  42.3333241
  24.1576966  41.3737253  44.0020070  26.6223734  41.5730616  44.5289491
  27.6259150  41.6251638  44.6303871  26.0177182  41.8000299  45.3054644
  25.6857444  44.5191989  39.9233600  24.4786675  44.3781698  39.6741908
  26.1187981  45.2567703  40.9343392  27.1059361  45.3182463  41.1389816
  25.1830781  45.9404756  41.8240505  24.4266508  45.2493367  42.1958623
  25.9668703  46.4956126  43.0163091  26.8568949  47.0012776  42.6417984
  25.3367786  47.2124886  43.5427816  26.3857834  45.3669824  43.9876668
  25.5042829  44.7583816  44.1893168  27.1389470  44.7595908  43.4857484
  26.9513934  45.8934155  45.3027042  26.2137536  46.5254966  45.7971330
  27.2104552  45.0596458  45.9552489  28.1556009  46.6853596  45.0537566
  28.0235229  47.6018939  44.6504953  29.3955912  46.2825134  45.3230574
  29.6053183  45.0853224  45.8668526  28.8208925  44.4838937  46.0743612
  30.5478644  44.7841447  46.0693333  30.4327613  47.0774475  45.0457440
  30.2731876  47.9845848  44.6313308  31.3717552  46.7676935  45.2517576
  24.4118677  47.0373697  41.1130723  23.3150122  47.4072857  41.5537004
  24.9530275  47.5868407  40.0352269  25.8951748  47.3935367  39.7268578
  24.1854737  48.5863192  39.3163855  23.6358431  49.2158374  40.0161800
  25.1310061  49.4697159  38.5038293  24.6790327  50.4546244  38.3864644
  26.0738500  49.5650366  39.0424010  25.3700097  48.9104085  37.2370632
  25.9650692  49.4792788  36.7432104  23.1125518  47.9588267  38.4335872
  22.2216267  48.6744352  37.9597181  23.1335735  46.6472165  38.2534022
  23.9009864  46.0882558  38.5979884  22.0866431  45.9865459  37.4983014
  21.8935496  46.5327336  36.5749959  22.5068651  44.5687417  37.1452378
  22.8481311  44.0783855  38.0569326  21.6353421  44.0431371  36.7549975
  23.6283762  44.5428848  36.1012180  24.4741248  45.1442470  36.4346452
  23.9506234  43.5115149  35.9579183  23.1401553  45.0877397  34.7712772
  22.1755114  44.5801326  34.2143292  23.7841071  46.1289157  34.2701866
  23.4916271  46.5225930  33.3872511  24.5652872  46.5253987  34.7728397
  20.7721908  45.9856594  38.2846304  20.7772300  45.9749243  39.5200333
  19.6305341  46.0125399  37.5894819  19.4381963  45.9220092  36.1315247
  19.5124198  44.8804288  35.8189524  20.2060224  46.5079937  35.6263868
  18.0629985  46.4871200  35.9309637  17.5985583  46.0208804  35.0620477
  18.1288491  47.5636399  35.7732614  17.3211216  46.1810033  37.1667056
  16.8917159  45.1797155  37.1330531  16.5285486  46.9102217  37.3345399
  18.3586518  46.2661661  38.2949464  18.4257933  47.2725843  38.7081206
  18.0324724  45.2822973  39.4085546  17.4324425  45.6810376  40.4219431
  18.3514511  44.0033266  39.2195796  18.7370013  43.7487903  38.3214362
  18.1398731  42.9493781  40.2048549  17.5388067  43.3293726  41.0309436
  17.4057477  41.7675768  39.5694319  17.9436883  41.4813907  38.6656527
  17.4205130  40.9394555  40.2780201  15.9496586  42.1101750  39.2121171
  15.5394385  42.7411678  40.0005766  15.9445701  42.6577724  38.2696664
  15.0973251  40.8508903  39.0732948  15.3715403  40.1531778  39.8645611
  14.0476115  41.1248556  39.1788584  15.2817982  40.1895783  37.7800051
  14.9133065  40.6653590  36.9688664  15.8885898  39.0174850  37.6076733
  16.3937633  38.3658591  38.6517425  16.3157260  38.7631418  39.5770406
  16.8530014  37.4768672  38.5142891  15.9956007  38.4999436  36.3866513
  15.6157054  38.9988962  35.5949279  16.4562366  37.6104918  36.2570799
  19.4562912  42.4650810  40.8104123  19.5144067  41.3727370  41.3828083
  20.5237701  43.2300475  40.6457946  20.4934765  44.1320514  40.1923958
  21.8031365  42.7504562  41.1409752  22.5274686  43.5488232  40.9795674
  21.6866536  42.5770763  42.2107745  22.3133880  41.4835089  40.4894809
  23.1208571  40.7693838  41.0947651  21.8613426  41.1649791  39.2748144
  21.1479738  41.7372516  38.8462022  22.3528400  40.0013846  38.5372534
  23.2328864  39.6042659  39.0431331  21.3179006  38.8978916  38.4270150
  21.7185418  38.0955538  37.8074659  20.9812136  38.3598489  39.7840562
  20.5800514  39.1615648  40.4040724  20.2373815  37.5689557  39.6876143
  21.8808970  37.9570063  40.2492316  20.1379106  39.4322488  37.8100393
  19.4752893  38.7416572  37.7350957  22.7563071  40.4095400  37.1293722
  22.2185918  41.3635245  36.5668591  23.7062602  39.6718668  36.5633674
  24.2117934  39.0125058  37.1376310  24.0383076  39.7509248  35.1472282
  23.7781607  40.7442256  34.7814736  25.5258046  39.5035049  34.8762965
  25.7951111  38.5837381  35.3955288  25.7345719  39.3938369  33.8121118
  26.4573723  40.5808704  35.3918751  26.2217505  41.9235145  35.1222584
  25.3401007  42.2053998  34.5466420  27.1054203  42.9129906  35.5829803
  26.8918115  43.9619964  35.3778979  28.2501820  42.5611805  36.2986753
  28.9437940  43.3220698  36.6565155  28.5018941  41.2086528  36.5552759
  29.3909690  40.9151290  37.1133884  27.6169462  40.2392071  36.0977395
  27.8186193  39.1847258  36.2861466  23.2707721  38.6913388  34.3781633
  22.9161307  37.6314261  34.9087747  23.0335721  38.9725967  33.1037124
  23.2122030  39.8868298  32.7133686  22.4808833  37.9451881  32.2313830
  21.5747817  37.5314727  32.6740101  22.1372923  38.5071157  30.8464630
  21.7226683  37.7094825  30.2300471  21.1223642  39.6275713  30.9728805
  21.5364817  40.4258331  31.5888223  20.8865372  40.0182811  29.9830165
  20.2138170  39.2447846  31.4377643  23.3321747  39.0109104  30.2050731
  23.1076777  39.3603318  29.3395639  23.4846954  36.8183121  32.0721293
  24.6759818  36.9778034  32.3191055  22.9927315  35.6629175  31.6531630
  22.0050178  35.4878256  31.5354185  23.9157240  34.5572513  31.4627915
  24.5094986  34.3806105  32.3596354  23.0829857  33.3009254  31.1703942
  22.2636203  33.2716735  31.8886448  22.6923287  33.5524749  30.1843871
  23.7476849  31.9589773  31.1164940  24.5432823  31.9469861  30.3715230
  24.3420814  31.7164839  32.4973687  23.5469724  31.7278736  33.2428690
  24.8409155  30.7474649  32.5137254  25.0644221  32.5002941  32.7253288
  22.5957985  31.0096031  30.9009286  22.0873131  31.2599447  29.9698695
  22.9717537  29.9879842  30.8456678  21.8946494  31.0937704  31.7312326
  24.9402024  34.8953538  30.3734814  26.1218169  34.5254439  30.4803831
  24.5355821  35.6833084  29.3673268  23.5718289  35.9748605  29.2881030
  25.4716560  36.0917753  28.3208940  25.8876371  35.2088528  27.8356036
  24.7677392  36.9407908  27.2674720  24.0411056  36.3308412  26.7307557
  24.2564115  37.7738209  27.7498669  25.7306225  37.4424410  26.3537500
  25.2919706  37.9777612  25.6884556  26.6621287  36.8604830  28.8940537
  27.8086512  36.5680460  28.5565575  26.3980784  37.8673058  29.7361109
  25.4476765  38.1756450  29.8836319  27.4720141  38.6120883  30.3756008
  28.2745989  38.8910658  29.6928649  26.9228101  39.8884352  31.0364946
  26.0003929  39.6231772  31.5531038  27.9113247  40.5230318  32.0410383
  28.8338730  40.7889972  31.5250280  27.4659278  41.4191884  32.4730383
  28.1322795  39.8090702  32.8344728  26.5364602  40.8341705  30.0187031
  26.1943101  41.6292123  30.4339648  28.2435135  37.7584733  31.3701635
  29.4762469  37.8029516  31.3860138  27.5400416  36.9609449  32.1850331
  26.5301842  36.9493574  32.1726631  28.2306215  36.0921208  33.1335230
  28.8169744  36.6624209  33.8539724  27.2031833  35.2554905  33.8935213
  26.6119104  34.6737173  33.1863887  27.9421586  34.2900609  34.8708601
  28.5333167  34.8711654  35.5786378  27.2104687  33.6921137  35.4141724
  28.5997910  33.6313442  34.3036631  26.2865653  36.0941357  34.6240448
  25.6531806  35.5446244  35.0914434  29.2195045  35.1499966  32.4328472
  30.3772643  34.9974618  32.8616356  28.7549448  34.4681489  31.3818648
  27.8226896  34.6083619  31.0194565  29.6019736  33.4583126  30.7458610
  29.9850519  32.7713813  31.5004972  28.8009920  32.6528620  29.7095948
  28.2894990  33.3973765  29.0995356  29.4809458  32.0755139  29.0831508
  27.7682972  31.7142173  30.3417282  27.1427044  32.2901854  31.0236338
  26.8962451  31.0689161  29.2776203  27.5211254  30.4923565  28.5955628
  26.1717878  30.4075135  29.7528139  26.3694188  31.8433530  28.7201241
  28.4565950  30.6275428  31.1972127  29.0310839  31.1009753  31.9934059
  27.7004380  29.9752076  31.6340038  29.1246063  30.0386154  30.5687030
  30.7883421  34.1190146  30.0731407  31.9162940  33.6073447  30.1395282
  30.5604505  35.2788611  29.4401355  29.6370384  35.6788123  29.3538314
  31.6633501  35.9298378  28.7439129  32.2474271  35.1855122  28.2026803
  31.1333767  36.9652526  27.7377771  30.4113804  37.6200862  28.2256434
  31.9593869  37.5612168  27.3496611  30.4514952  36.2244096  26.5825654
  31.1871616  35.5742861  26.1090305  29.6426066  35.6192296  26.9919046
  29.8985918  37.1743030  25.5669270  30.6812829  37.8785375  25.2848855
  29.5884106  36.6062375  24.6898930  28.7577131  37.9216188  26.0644525
  27.9935252  37.3901053  26.4563831  28.6690871  39.2474299  26.0557091
  29.6688806  39.9721697  25.5678399  30.4920208  39.5124033  25.2056865
  29.6016824  40.9799091  25.5611186  27.5690474  39.8451542  26.5141764
  26.8048113  39.2872847  26.8674819  27.5049921  40.8530878  26.5060789
  32.6651507  36.5421201  29.7139087  33.8827264  36.4818904  29.4635515
  32.1867753  37.1090920  30.8399042  31.2060331  37.3222167  30.9531387
  33.1058694  37.4893235  31.9092180  33.8554343  38.1826524  31.5277123
  32.3350426  38.1769736  33.0484021  31.4712302  37.5288764  33.1963795
  32.9294883  38.2033885  33.9616581  31.8561967  39.5997092  32.7068658
  31.2306100  39.5607478  31.8151124  31.0352309  40.1927223  33.8914251
  31.6603386  40.2324321  34.7834803  30.7029954  41.1989728  33.6361209
  30.1673551  39.5621064  34.0843387  33.0508877  40.5278891  32.3062895
  33.5549615  40.1153837  31.4323054  32.6751442  41.5238885  32.0719750
  33.7558194  40.5917727  33.1351979  33.8789898  36.2707322  32.4419207
  35.0963569  36.3455020  32.6620069  33.1850608  35.1505417  32.6855469
  32.1907136  35.0835879  32.5215643  33.8800588  33.9795797  33.2063603
  34.2649825  34.2234561  34.1965407  33.1614333  33.1640175  33.2871994
  35.0369581  33.5349447  32.3204089  36.1241257  33.1860625  32.8147142
  34.8319132  33.5526595  31.0029451  33.9223106  33.7719977  30.6226645
  35.9085684  33.2205030  30.0744438  36.2279241  32.1884017  30.2189364
  35.4089134  33.3814853  28.6347985  34.9965110  34.3858185  28.5381630
  36.2684621  33.2769698  27.9727165  34.3498182  32.3606845  28.2542057
  34.7388121  31.3722111  28.4985516  33.4640407  32.5611787  28.8569515
  33.9784668  32.4099361  26.7699798  33.7672715  31.3881619  26.4545864
  33.0735485  33.0111713  26.6820116  35.0506755  32.9905182  25.8972788
  35.3021149  33.9927038  26.2444137  35.9380470  32.3588958  25.9388022
  34.5519955  33.0616105  24.4795390  33.7299890  33.6471890  24.4407726
  35.2719031  33.4523506  23.8886454  34.3193541  32.1330130  24.1575394
  37.1268678  34.1160693  30.3109382  38.2749067  33.6396923  30.3423983
  36.8960678  35.4286909  30.4583663  35.9615770  35.8090274  30.4117781
  38.0156895  36.3568140  30.6379681  38.7867537  36.1658501  29.8915822
  37.5217443  37.7980209  30.4740180  36.7428695  38.0023813  31.2086540
  38.3523883  38.4875652  30.6245476  36.9676827  37.9788439  29.0974858
  37.6230720  37.4725213  28.3888229  35.9619848  37.5655920  29.0206961
  36.9159078  39.4200826  28.7490948  37.7825527  40.1955183  29.1779761
  35.9021026  39.8112378  28.0049155  35.8196284  40.7821845  27.7392805
  35.2118256  39.1384413  27.7033134  38.6879100  36.1904743  31.9906109
  39.9235974  36.2183633  32.0840182  37.8975989  36.0097837  33.0473461
  36.8912391  36.0416833  32.9678373  38.4797928  35.8384026  34.3692027
  39.2128757  36.6198530  34.5692630  37.3834122  35.8768901  35.4462213
  36.6264919  35.1250579  35.2227925  38.0078745  35.5827679  36.8225665
  38.7646191  36.3345039  37.0469127  37.2317976  35.6096639  37.5874730
  38.4699026  34.5956276  36.8090341  36.7018965  37.2545947  35.4302096
  37.3301213  37.9235772  36.0183394  36.6892684  37.5876670  34.3924221
  35.2179361  37.2720566  36.0115036  35.2298212  36.9395244  37.0494732
  34.8187234  38.2849892  35.9595819  34.5889686  36.6036119  35.4235568
  39.2703126  34.5385669  34.4145835  40.3580190  34.4887519  34.9777116
  38.7373173  33.4704637  33.8047806  37.7909333  33.4788581  33.4520963
  39.5027765  32.2227420  33.7123859  39.7592866  31.8568484  34.7065809
  38.6483040  31.1646188  33.0066046  37.7966808  31.0095404  33.6690152
  38.2986065  31.5579588  32.0520915  39.3671231  29.8278610  32.7763466
  40.2367744  30.0254276  32.1496289  39.8146176  29.1554768  34.0678086
  38.9454004  28.9571621  34.6948903  40.3154573  28.2159475  33.8342595
  40.5036711  29.8114890  34.5997425  38.4477713  28.9209197  31.9992581
  38.2044340  29.3827818  31.0424040  38.9413975  27.9647595  31.8254997
  37.5316601  28.7583846  32.5670800  40.8387700  32.4345425  33.0016562
  41.8827539  31.9327220  33.4404726  40.8418102  33.2010556  31.9093205
  39.9829413  33.5594393  31.5168863  42.0919900  33.5077983  31.2295423
  42.5764483  32.5872857  30.9038799  41.8177084  34.3786653  29.9988741
  41.1123371  35.1563387  30.2917474  42.7598183  34.8375880  29.6990092
  41.2481729  33.5927929  28.8384937  42.0133274  32.8855030  28.5185244
  40.3731148  33.0462147  29.1900967  40.8538812  34.4810379  27.6629308
  40.9678934  35.7233574  27.7685594  40.4193663  33.9247724  26.6430037
  43.0718713  34.2196334  32.1439434  44.2896614  33.9303831  32.1286021
  42.5657324  35.1928383  32.9094046  41.5893883  35.4393975  32.8315576
  43.3922487  35.9328826  33.8554988  44.1966729  36.4484427  33.3309050
  42.5379120  36.9706114  34.5787586  41.7367866  36.4516576  35.1050515
  43.1666434  37.4931787  35.2996749  41.9840976  37.8985157  33.6818705
  41.4542056  38.5353469  34.1669068  44.0156377  35.0000406  34.8728734
  45.2030975  35.0969244  35.1839405  43.1986260  34.1251501  35.4458694
  42.2182042  34.1000508  35.2045348  43.6784301  33.2247802  36.4977972
  44.1986041  33.7647134  37.2889927  42.4918777  32.4606529  37.0959375
  41.8861248  32.0474732  36.2894349  43.0141890  31.2924461  38.0101244
  43.6196860  31.7049140  38.8171834  42.1658747  30.7534869  38.4320088
  43.6195338  30.6081084  37.4157013  41.6260314  33.4440476  37.8605171
  42.2074750  33.8055555  38.7086540  41.4029921  34.2760038  37.1925337
  40.3264440  32.8337128  38.3607190  40.5486925  32.0019244  39.0291751
  39.7534125  33.5886614  38.8990374  39.7442104  32.4723704  37.5130542
  44.7315883  32.2836546  35.9569485  45.7521024  32.0476178  36.6130693
  44.4919289  31.7230007  34.7615191  43.6137955  31.8554692  34.2804441
  45.4917185  30.8472932  34.1511199  45.7483449  30.0416799  34.8390366
  44.9417281  30.2304965  32.8561684  43.9382902  29.8625204  33.0701901
  44.8855835  31.0263629  32.1135079  45.8093353  29.0722888  32.3062543
  46.7974730  29.4847718  32.1024344  45.8883015  28.3048495  33.0762546
  45.2429449  28.4560815  31.0308397  44.1479902  28.8840220  30.5928738
  45.8846595  27.5298616  30.4754300  46.7772656  31.6103547  33.8740714
  47.8722820  31.0406245  33.9966128  46.6679272  32.9076013  33.5560238
  45.7619205  33.3407609  33.4482083  47.8562605  33.7098610  33.2788520
  48.4463994  33.1945406  32.5210392  47.4495800  35.0897898  32.7312824
  46.8656158  35.6216264  33.4824387  48.3443830  35.6649104  32.4932402
  46.8503536  34.9613740  31.8298745  48.7379864  33.8556938  34.5162219
  49.9463495  33.6129044  34.4491843  48.1621008  34.2725794  35.6521616
  47.1972843  34.5692456  35.6870564  48.9848202  34.4433902  36.8516326
  49.9425663  34.9327215  36.6744985  48.2192422  35.1962158  37.9704793
  47.9131612  36.1664215  37.5791793  46.9723709  34.4169430  38.4481652
  47.2777218  33.4467454  38.8400556  46.4680616  34.9823673  39.2317902
  46.2909819  34.2715126  37.6099181  49.2031761  35.5762677  39.1099413
  49.5585254  34.6348243  39.5288830  50.0329339  36.0966844  38.6316444
  48.6180287  36.4696532  40.2561327  47.7884663  35.9496679  40.7352374
  49.3950396  36.6702369  40.9937773  48.2628725  37.4115276  39.8379981
  49.5399358  33.1043541  37.3180861  50.7155927  33.0087427  37.7018809
  48.7462497  32.0301008  37.2162078  47.7777780  32.1092442  36.9407117
  49.2684290  30.7028967  37.5419979  49.6530139  30.7015764  38.5618959
  48.1755407  29.6465906  37.4323136  47.6798418  29.6893845  36.4624938
  48.6236647  28.6622222  37.5676048  47.0977376  29.7750418  38.4722052
  45.9646220  28.9949724  38.4565211  45.1868038  29.3243380  39.4788234
  44.2437981  28.8038543  39.6459642  45.7650646  30.3046981  40.1471344
  45.4016349  30.7667952  40.9684048  46.9691218  30.6052302  39.5346774
  47.6045712  31.3931178  39.9390762  50.4240501  30.3144378  36.6256390
  51.4005139  29.6802248  37.0671525  50.3384342  30.6766487  35.3443435
  49.5222877  31.1495069  34.9832212  51.4164690  30.3361033  34.4082447
  51.6176773  29.2654124  34.4433930  51.0084503  30.7100313  32.9829487
  51.5876481  30.1037457  32.2864957  49.9477079  30.4925376  32.8579600
  51.2437783  32.0885352  32.7204194  50.9786394  32.2927191  31.8206360
  52.7419666  31.0076283  34.7491614  53.8009328  30.5068668  34.3366199
  52.7318707  32.1238873  35.4764804  51.8638410  32.6075195  35.6573770
  53.9762590  32.7522984  35.9062142  54.8142476  32.3546004  35.3337541
  53.9418881  34.2793626  35.7305139  54.9282403  34.6901828  35.9460025
  53.5528429  34.6218081  34.3089402  52.5663307  34.2116879  34.0928475
  53.5297303  35.7049319  34.1889016  54.2818124  34.1958415  33.6195509
  52.9505743  34.9346901  36.7022741  53.2452763  34.7120835  37.7277979
  52.9519557  36.0140773  36.5505474  51.9495953  34.5438906  36.5194691
  54.3566882  32.3549507  37.3320902  55.2666405  32.9471847  37.9132070
  53.7151644  31.3337627  37.8936837  52.9114156  30.9038021  37.4586881
  54.1692710  30.8108861  39.1659169  54.0098518  29.7332022  39.1301090
  55.2380674  31.0179536  39.2197360  53.4975621  31.3668583  40.4012339
  53.9550253  31.0827380  41.5152200  52.4030849  32.1191470  40.2585898
  52.0035707  32.2972437  39.3482221  51.7830549  32.7375478  41.4143520
  52.2528455  32.3536100  42.3198838  51.9354580  34.2928298  41.3935621
  51.7273741  34.6343559  40.3795798  51.2618337  34.7921454  42.0899918
  53.3207987  34.7594397  41.7275788  54.3509628  34.5885479  40.8302750
  54.1466702  34.1169968  39.8690238  55.6400893  35.0095292  41.1382371
  56.4356029  34.8980114  40.4014721  55.9149527  35.5680987  42.3740810
  56.9271033  35.8863954  42.6237571  54.8972169  35.7210018  43.2931091
  55.0992921  36.1593610  44.2704049  53.6011936  35.3103043  42.9654321
  52.7944866  35.4222241  43.6898614  50.3017596  32.3965490  41.5086175
  49.6029502  32.2559980  40.4906642  49.8374307  32.2856733  42.7493621
  50.5074876  32.2173530  43.5019945  48.4212617  32.2621286  43.0823543
  47.8423783  31.8455597  42.2580585  48.2122143  31.3859157  44.3181683
  48.7584341  31.8989777  45.1096926  47.1549830  31.3381400  44.5790887
  48.7628776  29.9646994  44.1562942  49.8201361  30.0379116  43.9014506
  48.6020233  29.1326205  45.4321533  47.5449189  29.0585702  45.6873899
  49.0065991  28.1337930  45.2685598  49.1399191  29.6125192  46.2497509
  48.0905190  29.2869583  42.9744656  48.2892776  29.8568671  42.0668322
  48.4841915  28.2767637  42.8620825  47.0150113  29.2403011  43.1453614
  47.9654599  33.6839015  43.3739011  48.7135371  34.4705568  43.9502403
  46.7346312  34.0192578  42.9738748  46.1757654  33.4110843  42.3925889
  46.2085349  35.3401730  43.2991324  46.9990557  36.0869394  43.2248626
  45.0806571  35.7149628  42.3110483  45.4297965  35.5983385  41.2850854
  44.2222068  35.0644378  42.4783213  44.5845019  37.1178224  42.4366195
  43.7617913  37.5306255  43.4649918  43.5019707  38.8198402  43.3178933
  42.9028151  39.3461958  44.0609016  44.0713137  39.2455077  42.2023331
  43.9969216  40.1731824  41.8099235  44.7903995  38.2132934  41.6525719
  45.3776895  38.3786308  40.7493249  45.7379323  35.4022125  44.7493884
  46.1151813  36.3111870  45.5062224  44.9330678  34.4182136  45.1462828
  44.5898287  33.8529282  44.3829096  44.4101373  34.1640716  46.4852192
  43.8358897  33.2377214  46.4705851  45.5293054  34.0320364  47.5318129
  46.0774557  34.9726468  47.5855015  45.0833178  33.8160879  48.5026689
  46.4717599  32.9244875  47.1567289  45.8917275  32.1021806  46.7378320
  47.1657109  33.2992072  46.4043200  47.2419919  32.4366823  48.3481306
  46.5469386  32.1179041  49.1249063  47.8699496  31.5951545  48.0555568
  48.0929649  33.4888913  48.8865925  48.1844591  34.3418529  48.3535027
  48.7507877  33.3865496  50.0385466  48.6529380  32.2735322  50.7778752
  48.0765194  31.5080241  50.4587532  49.1560362  32.2050595  51.6509751
  49.5065974  34.3955411  50.4483181  49.5770121  35.2309725  49.8851163
  50.0085638  34.3242260  51.3218412  43.3585436  35.1730572  46.9440522
  42.8205980  35.0187221  48.0471239  43.0111596  36.1693039  46.1365944
  43.5699343  36.3915102  45.3251176  41.8880280  37.0488662  46.4682860
  41.2047158  36.5234788  47.1354829  42.3589176  38.3226523  47.1583600
  43.1682272  38.0617053  47.8402865  42.7310074  39.0123565  46.4007603
  41.2205478  38.9929176  47.9467479  40.2009030  38.3249556  48.1864191
  41.3286452  40.1778277  48.3252871  41.0369087  37.3518505  45.2422508
  40.7000342  38.5045898  44.9501828  40.6367720  36.2992943  44.5248938
  40.9271614  35.3712526  44.7978627  39.8237569  36.4440555  43.3208250
  40.1436479  37.2638568  42.6776338  39.8326347  35.1337236  42.5215600
  39.6625412  34.3143343  43.2199652  38.7590142  35.1027366  41.4261899
  38.9287319  35.9216139  40.7270930  38.8107869  34.1536207  40.8927112
  37.7736143  35.2109284  41.8793795  41.2198919  34.8169630  41.9153108
  41.9497739  34.8225642  42.7248426  41.1746736  33.8211205  41.4744566
  41.6534513  35.8698909  40.8032554  41.6993425  36.8659709  41.2435034
  42.6341053  35.6012775  40.4104913  40.9242404  35.8645287  39.9931180
  38.4121427  36.8339925  43.7422149  37.7762514  36.1086181  44.5128505
  37.9468664  37.9930487  43.3042940  38.5302330  38.5710928  42.7163758
  36.6273293  38.5012949  43.6879780  35.8977154  37.6933152  43.6338339
  36.6399108  39.0617160  45.1343707  35.6096527  39.3039189  45.3951492
  37.0013908  38.2656692  45.7853252  37.5159550  40.3030119  45.3126291
  38.5061339  40.1020779  44.9036400  37.0645024  41.1377723  44.7764688
  37.6402590  40.6593595  46.8056271  36.6430836  40.8001714  47.2226550
  38.1393895  39.8423717  47.3266827  38.4280863  41.9083816  46.9736835
  39.4374262  41.7800383  46.5827083  37.9431889  42.7389496  46.4607210
  38.4952111  42.2008067  48.4501451  38.9448820  41.4314950  48.9255980
  39.0256906  43.0467552  48.6020086  37.5600566  42.3201899  48.8125437
  36.2247395  39.5606238  42.6896225  37.0828516  40.1300374  41.9817575
  34.9450407  39.8962304  42.6112119  33.7875824  39.3607102  43.3603697
  33.9547349  39.4757444  44.4313167  33.6514271  38.3050048  43.1257491
  32.6255021  40.2311743  42.8462066  32.5135236  41.1242323  43.4610296
  31.6925201  39.6676000  42.8516728  33.0424473  40.5863959  41.4127450
  32.5794035  41.4915320  41.0197844  32.7982394  39.7437324  40.7659217
  34.5655027  40.7679496  41.4839526  34.9598541  40.2996103  40.5821524
  35.0684523  42.1917318  41.5730304  35.3395121  42.7790223  40.5103388
  35.3137272  42.7369971  42.7676492  35.0676605  42.3065544  43.6475751
  35.8908194  44.0747423  42.7905265  35.3845259  44.7200567  42.0726579
  35.7214012  44.6728569  44.1912101  36.0131867  45.7226157  44.1601139
  34.6728974  44.5960973  44.4790429  36.5361611  43.9763597  45.1550554
  36.4123060  44.3692108  46.0221931  37.3663081  44.0895092  42.3541412
  37.9083706  45.1756389  42.0973838  38.0183374  42.9306252  42.2308508
  37.6063618  42.0763079  42.5780070  39.3877106  42.8767548  41.6925124
  39.8652802  43.8485464  41.8176023  40.2303678  41.8179951  42.4212138
  39.5863504  40.9566933  42.5986967  41.0795878  41.5158668  41.8083159
  40.7497376  42.3186190  43.7566163  40.8745877  43.5252767  43.9395221
  41.0982759  41.3944095  44.6898092  41.4473803  41.6954581  45.5884724
  41.0066616  40.4105779  44.4805654  39.4525048  42.6459683  40.1818158
  40.5329592  42.3160613  39.6575738  38.3374813  42.8225249  39.4697033
  37.4568456  42.9042942  39.9574470  38.3228223  42.8230938  38.0127826
  39.3434469  42.8132339  37.6302550  37.5913362  41.5789055  37.4906862
  36.6212677  41.3564449  37.9351832  37.4716738  41.7367458  36.4188339
  38.4264196  40.3513279  37.6511446  39.3227539  39.9778798  36.6829781
  39.3725390  40.5491303  35.7559969  40.1698500  38.8750424  36.8741216
  40.8652102  38.5741748  36.0905060  40.1200246  38.1734514  38.0555430
  40.7821255  37.3217063  38.2112753  39.1999842  38.5607615  39.0799133
  39.1327111  38.0032251  40.0141122  38.3915510  39.6564941  38.8720456
  37.7160815  39.9925071  39.6587705  37.6895776  44.1131854  37.5518328
  36.6166399  44.4717123  38.0203039  38.3626288  44.8231616  36.6512125
  39.2735470  44.5325495  36.3258327  37.8153649  46.0809078  36.1465583
  36.7887671  46.1873072  36.4970940  38.6434919  47.2818982  36.6679572
  39.6718958  47.1942590  36.3175220  38.2113062  48.2107963  36.2958496
  38.6307634  47.2868431  37.7578713  37.7851077  46.0896346  34.6339677
  38.7163381  45.6056533  33.9814825  36.7014822  46.6247701  34.0702207
  35.9549411  47.0033840  34.6353996  36.5747880  46.6967038  32.6190614
  36.8434085  45.7399411  32.1712363  35.1283865  47.0257555  32.2393716
  34.8487906  47.9464598  32.7514546  35.0928688  47.1848662  31.1616321
  34.1496235  45.9105539  32.6233357  34.1883942  45.8169181  33.7086144
  33.1566813  46.2454454  32.3233096  34.4818588  44.3116577  31.8813029
  34.5261027  44.6732090  30.0971694  35.3143433  45.3976023  29.8921569
  34.7246532  43.7548502  29.5446339  33.5658308  45.0839054  29.7852278
  37.4755787  47.7964549  32.0918996  37.7371476  48.7754578  32.7892345
  37.9318668  47.6326932  30.8463940  37.6972373  46.8008327  30.3238458
  38.7724550  48.6350086  30.2073977  39.6380294  48.8121243  30.8457629
  39.1045190  48.2403919  29.2471318  38.0424107  49.9652545  29.9752872
  36.8281661  50.1109853  30.1417132  38.8207535  50.9690735  29.5636700
  39.8188064  50.8575877  29.4561495  38.2428048  52.2906457  29.3334784
  37.1690929  52.1998442  29.1691711  38.4772644  53.1977752  30.5424990
  38.0633690  54.1769984  30.3018507  37.9313492  52.7697960  31.3832787
  39.9494534  53.3458127  30.9148566  40.4254883  52.3653121  30.9253473
  40.4495763  53.9841620  30.1865095  40.0550245  53.9811246  32.3103148
  39.4080609  53.4083855  32.9747748  41.0906606  53.8772856  32.6340042
  39.6770741  55.3960150  32.3910209  39.6156522  55.9125530  31.5252754
  39.3299940  56.0125627  33.5298143  38.9765147  57.2862933  33.5040306
  38.9698280  57.7877033  32.6273076  38.7148061  57.7520296  34.3611758
  39.2486565  55.3391388  34.6909971  39.4515347  54.3499660  34.7128531
  38.9850581  55.8255980  35.5359657  38.7911968  52.9380074  28.0696219
  38.8670084  54.1722132  27.9770766  39.1612534  52.1287955  27.0873199
  39.0936271  51.1318860  27.2346207  39.6652334  52.6037985  25.8098594
  39.5178662  53.6818331  25.7448697  41.1660134  52.3011704  25.6415221
  41.1654425  51.2115601  25.6123958  41.4792433  52.6898521  24.6725466
  42.1334603  52.7796804  26.7171864  41.7532419  52.5303521  27.7078277
  43.4555541  52.0766332  26.4927256  43.8366514  52.3258632  25.5023983
  44.1717844  52.3985480  27.2486924  43.3113361  50.9986541  26.5652694
  42.2577962  54.3176160  26.7091375  41.2806679  54.7626382  26.8969538
  42.9544741  54.6304051  27.4868933  42.6262051  54.6477905  25.7378710
  38.8838160  51.9055108  24.7141007  38.3309841  50.8259704  24.9401726
  38.8452838  52.4703835  23.5039904  39.2380858  53.8465511  23.1344307
  40.3240778  53.9313404  23.1735778  38.7937362  54.5474483  23.8411100
  38.6848438  54.0181223  21.7146928  39.3855968  54.6008880  21.1168397
  37.7258706  54.5346446  21.7556360  38.5224845  52.6300774  21.1699461
  39.4461120  52.3010656  20.6937503  37.7038392  52.5721354  20.4526162
  38.2166738  51.7409604  22.3887504  37.1469549  51.6942258  22.5927494
  38.7525196  50.3453851  22.1987696  37.9997139  49.4318196  21.8092175
  40.0348196  50.1279914  22.4948702  40.6318930  50.8820351  22.8031245
  40.6252459  48.8152849  22.3076679  40.1539686  48.3026577  21.4690915
  42.1226039  48.9713060  22.0083263  42.5718493  47.9827224  21.9135622
  42.2438486  49.5161830  21.0721058  42.7645445  49.6849094  23.0585583
  43.6992428  49.7754483  22.8592054  40.4245938  47.8766759  23.4871503
  40.7472938  46.6937415  23.3685259  39.9007207  48.3557055  24.6116954
  39.5241319  49.2926395  24.6325502  39.8583110  47.5626560  25.8425370
  40.0599232  46.5078267  25.6560245  40.8761883  48.0827430  26.8631546
  40.8223334  47.4456003  27.7459055  42.3069858  48.0796276  26.3184923
  42.3617337  48.7169687  25.4359399  42.9875998  48.4572840  27.0815383
  42.5917573  47.0624079  26.0496614  40.4843926  49.4085623  27.2645063
  41.1137874  49.7481202  27.9049459  38.5089103  47.5602650  26.5436290
  38.3859717  46.8901053  27.5680869  37.5160546  48.3030093  26.0512994
  37.5856178  48.8085656  25.1797071  36.3058108  48.4709762  26.8558254
  36.5776924  48.7026813  27.8856275  35.4433223  49.6199190  26.3045633
  34.7338055  49.7743648  27.1174789  36.0364413  50.5235636  26.1640766
  34.6941237  49.3104005  25.0377067  35.3321004  49.3607421  23.7989841
  36.3952209  49.5985237  23.7624574  34.6429700  49.1166190  22.6369332
  35.1595270  49.1218466  21.6771190  33.2872404  48.8562788  22.6903401
  32.5810776  48.6113347  21.5332107  33.1284722  48.6457377  20.7453177
  32.6285808  48.8452406  23.8908598  31.5580008  48.6438362  23.9282128
  33.3224652  49.0893111  25.0510680  32.7970364  49.1122173  26.0057930
  35.4871828  47.1951009  26.9607236  34.5825230  47.1471839  27.7962586
  35.7575177  46.1780154  26.1411426  36.3667305  46.2837855  25.3425364
  35.0737364  44.9080441  26.3229727  34.2488580  45.0215797  27.0263819
  34.5102268  44.4294402  24.9805133  35.2952107  44.4453487  24.2244403
  34.1255617  43.4147179  25.0828436  33.3692053  45.3695524  24.5545073
  32.5842541  45.2753111  25.3048879  33.7698695  46.3830583  24.5738963
  32.7924807  45.0798962  23.1801555  31.9456428  45.7478442  23.0226435
  33.5639674  45.2913411  22.4397511  32.3417817  43.7055012  23.0052302
  32.9932422  43.0830603  22.5488688  31.1629906  43.2211073  23.3885684
  30.2731280  43.9951570  23.9973153  30.4895878  44.9657429  24.1739739
  29.3836045  43.6100388  24.2810959  30.8790335  41.9439385  23.1607831
  31.5569228  41.3533639  22.7005790  29.9864955  41.5690756  23.4487977
  35.9530855  43.8565056  26.9713899  35.6088498  42.6656464  26.9389047
  37.0632438  44.2770957  27.5779222  37.2432889  45.2707564  27.5958533
  38.0172469  43.3925582  28.2242361  37.7311456  42.3526427  28.0666895
  39.3968242  43.6090101  27.6382975  39.5765300  44.6775148  27.5195431
  40.1455906  43.1875034  28.3089546  39.4905485  42.9157007  26.2621173
  39.6966098  41.8600581  26.4389170  38.5211071  43.0194647  25.7747587
  40.5555734  43.4909674  25.3813453  40.2911154  43.2644311  24.3484648
  40.5593193  44.5712756  25.5263262  41.9163177  42.9432022  25.6792471
  42.2911128  43.4185603  26.5857039  41.8301048  41.8688763  25.8420052
  42.8682893  43.2027096  24.5483850  42.9486490  44.1981655  24.3976883
  43.7754325  42.8226387  24.7780312  42.5213962  42.7619556  23.7084444
  38.0443584  43.7217287  29.7103780  37.9421972  44.8853141  30.1141677
  38.1196892  42.7145041  30.5662460  38.0034945  41.7450445  30.3078932
  38.3086018  43.0351068  31.9702662  38.1953833  44.1126013  32.0897916
  37.3149225  42.3291941  32.9091367  37.4140180  42.7189914  33.9222198
  36.2940594  42.4830073  32.5594510  37.5360602  40.5458493  33.0362120
  36.5380822  40.3426101  33.8915670  39.7317638  42.6960870  32.3781972
  40.3895743  41.8395161  31.7852650  40.1730876  43.3874291  33.4210583
  39.4996461  43.9898628  33.8723337  41.5508535  43.3996209  33.9096836
  42.1476833  42.6814120  33.3474833  42.1699799  44.7902382  33.7393987
  41.4484717  45.4837358  34.1713551  43.1311142  44.9082658  34.2397890
  42.3296382  45.0825485  32.2718253  41.2511208  45.5201856  31.5107714
  40.2965330  45.7090433  32.0018869  41.3776735  45.7154057  30.1532095
  40.5293135  46.0385966  29.5499395  42.5864719  45.4439273  29.5519549
  42.7091605  45.6609461  28.2114776  41.9035688  45.9951499  27.8103175
  43.6769960  45.0129532  30.2721621  44.6361380  44.8277547  29.7885833
  43.5396078  44.8151858  31.6338598  44.3823466  44.4468380  32.2188481
  41.6398097  42.9473610  35.3655129  40.9196469  43.4462868  36.2218538
  42.5898306  42.0647106  35.6313973  43.1576897  41.7163239  34.8722780
  42.8360735  41.5460863  36.9755723  41.8949003  41.3868101  37.5018073
  43.5654886  40.2132642  36.8685913  42.8954105  39.5301226  36.3466603
  44.4516697  40.3888765  36.2587197  43.9855309  39.5904663  38.2202245
  44.5895733  40.2988401  38.7871814  43.1020023  39.3220493  38.7993891
  44.9592304  38.1035906  37.8991395  43.6808488  36.8682208  37.8424026
  42.9776729  37.1086371  37.0450052  44.1264459  35.8920330  37.6510880
  43.1538914  36.8458537  38.7962982  43.6606370  42.5301076  37.7940716
  44.7221360  42.9895247  37.3487034  43.2027461  42.8346828  39.0026587
  42.3535400  42.3971402  39.3305381  43.8691580  43.7904214  39.8768462
  44.7653511  44.1712551  39.3870473  42.9495490  44.9684615  40.1970659
  42.1993950  44.5549731  40.8711546  43.5478552  45.7076962  40.7296651
  42.2611648  45.6292989  39.0203203  41.8271060  44.8638004  38.3771205
  41.1434435  46.5651725  39.5331328  41.5768252  47.3312681  40.1760766
  40.6490466  47.0399172  38.6856130  40.4149666  45.9853775  40.0999304
  43.2866227  46.3914177  38.2264085  44.0533818  45.7045648  37.8680610
  42.8041285  46.8724581  37.3755848  43.7464895  47.1502673  38.8594715
  44.2789207  43.1180898  41.1773252  43.8104061  42.0196443  41.4939410
  45.1450462  43.8369788  41.9223160  45.6375312  44.5614276  41.4195917
  45.5001956  43.5997277  43.3239846  46.2422665  44.3337859  43.6379729
  44.2740750  43.7191281  44.2397995  43.6135497  44.4834143  43.8303217
  43.7575554  42.7593096  44.2472871  44.6687798  44.0994214  45.6759548
  45.8844179  44.0359982  45.9785560  43.7992807  44.4534190  46.4887008
  46.2064920  42.2792705  43.5992832  45.5721903  41.3089544  44.0309925
  47.5165844  42.2155150  43.2832736  47.9322889  42.9785287  42.7683957
  48.3502613  41.0635320  43.6050871  47.7624754  40.1482778  43.5349685
  49.5277056  40.9678468  42.6210798  50.2042970  41.8153197  42.7311380
  50.0699638  40.0428335  42.8170557  49.1182308  40.9286295  41.1718088
  47.9659591  40.2472103  40.7679724  47.3557672  39.7331009  41.5105742
  47.5943956  40.2228860  39.4182551  46.7066264  39.6718866  39.1078262
  48.3502371  40.8949275  38.4826815  48.0614342  40.8970876  37.4316400
  49.5030205  41.5817252  38.8952819  50.1143199  42.1031012  38.1586814
  49.8594684  41.5983344  40.2127348  50.7456983  42.1475272  40.5306716
  48.8885565  41.1075908  45.0517377  49.8484036  40.3964463  45.3619523
  48.2961261  41.9195092  45.9274960  47.4793797  42.4481524  45.6562744
  48.7996114  42.0724259  47.2931699  49.8373048  42.3972823  47.2172764
  48.2078796  42.8558588  47.7666524  48.7352051  40.8157734  48.1511007
  49.4900659  40.6889078  49.1270230  47.8576445  39.8773250  47.8224426
  47.1858417  40.0235939  47.0825874  47.7848748  38.6422089  48.5849207
  48.3760750  38.7310395  49.4963430  46.3338025  38.3479210  48.9701804
  45.7806129  38.4737985  48.0394627  46.2590538  37.3115014  49.2993415
  45.7449998  39.2652427  50.0400521  45.6125676  40.2609942  49.6169191
  44.3959490  38.7342616  50.5243369  44.5276616  37.7386633  50.9480523
  43.9941067  39.4024709  51.2859930  43.7026984  38.6824672  49.6848006
  46.7127697  39.4215909  51.2087790  47.6480172  39.8526576  50.8515771
  46.2736722  40.0788031  51.9593567  46.9091251  38.4451897  51.6517060
  48.3972442  37.4787722  47.8292511  48.2815564  36.3319168  48.2744390
  49.0695266  37.7501637  46.7101658  49.1850295  38.7078413  46.4108130
  49.6166996  36.6941745  45.8711387  48.8248893  35.9785169  45.6498474
  50.1476996  37.2600359  44.5511733  50.9475961  37.9716097  44.7559371
  50.5337982  36.4472697  43.9359991  49.3402490  37.7646250  44.0205957
  50.7373330  35.9488810  46.5852055  51.3886272  36.4795272  47.4824566
  50.9144481  34.6827430  46.2024368  50.3041401  34.2923367  45.4987277
  51.9660862  33.8371197  46.7505922  52.7274781  34.4604274  47.2194941
  51.4038049  32.8710194  47.8059234  51.1314332  33.4696651  48.6751393
  50.5073477  32.4193499  47.3811184  52.3860720  31.7596539  48.2342506
  52.4560087  31.0239679  47.4330166  53.3666491  32.2037014  48.4056932
  51.9000197  31.0655892  49.5311161  51.9635453  31.7814600  50.3506235
  50.8618800  30.7634829  49.3929233  52.6879098  29.8868181  49.8777483
  52.2873983  28.9803971  49.6825798  53.8857632  29.9407654  50.4529186
  54.4358363  31.1177598  50.7151182  53.9428166  31.9664630  50.4769280
  55.3454990  31.1605496  51.1519047  54.5510626  28.8221286  50.7480108
  54.1426187  27.9237187  50.5332239  55.4599595  28.8790718  51.1847746
  52.5579288  33.0323713  45.6088316  51.8141005  32.4497800  44.8124178
  53.8879290  32.9791185  45.5311041  54.4821191  33.5780445  46.0863745
  54.5163425  32.0681534  44.5865783  54.0583898  32.1768186  43.6034352
  56.0069521  32.3795961  44.4678040  56.1198613  33.4634569  44.4922269
  56.5045330  31.9433749  45.3339590  56.6266440  31.8402969  43.2106869
  56.4751485  30.7646794  43.1201509  56.1325717  32.3473117  42.3818741
  58.0970929  32.1248461  43.1383485  58.5673981  33.1426477  43.6556868
  58.8477900  31.1991629  42.5542239  59.8453373  31.3371526  42.4770255
  58.4180399  30.3610236  42.1896162  54.3073591  30.6247464  45.0263773
  54.5664182  30.2802718  46.1794040  53.8351872  29.7787278  44.1118500
  53.5659105  30.1136967  43.1978559  53.6065833  28.3688041  44.4289832
  53.7488954  28.2063992  45.4973797  52.1733025  27.9470553  44.0535753
  51.9555271  27.0099212  44.5658768  51.5202451  28.7307362  44.4375809
  51.9357465  27.7757294  42.5615818  51.6109989  28.8764753  41.7590712
  51.5290831  29.8596900  42.2224050  51.3974575  28.7334309  40.4134248
  51.1214253  29.5969129  39.8081919  51.5253266  27.4939142  39.8268714
  51.3322570  27.3679530  38.4689749  51.1161331  28.2001865  38.0420353
  51.8510944  26.3889476  40.5919769  51.9449423  25.4065872  40.1290935
  52.0577657  26.5351182  41.9491136  52.3209757  25.6692801  42.5566867
  54.6201177  27.4543307  43.7639829  54.5406411  26.2355866  43.9323734
  55.5579334  28.0101136  43.0108793  55.4937661  28.9919849  42.7830405
  56.6755234  27.2504619  42.4764151  56.4230068  26.1911068  42.5222567
  56.9462079  27.6245357  41.0226948  57.8628995  27.1403562  40.6860244
  55.7774198  27.1613185  40.1543295  54.8603913  27.6454654  40.4901271
  55.9685780  27.4275730  39.1147785  55.6683309  26.0800033  40.2377425
  57.0543971  29.0506993  40.9126884  57.2248164  29.2891064  39.9985114
  57.9190710  27.5228160  43.3113842  58.0306676  28.5520168  43.9845017
  58.8517762  26.5706034  43.2741000  58.6241061  25.6540983  42.9159321
  60.1896892  26.7914045  43.8058984  60.1554821  27.5665716  44.5714342
  60.7490316  25.5059115  44.4336754  61.7573670  25.6936982  44.8025860
  60.1015039  25.2372496  45.2683182  60.7975307  24.3302155  43.4538521
  61.1418961  24.4888883  42.2832017  60.4696919  23.1378472  43.9472327
  60.4836067  22.3253577  43.3474269  60.2085858  23.0512838  44.9190512
  61.1294074  27.3096445  42.7239469  61.8651264  28.2761241  42.9528592
  61.1041987  26.6788569  41.5476266  60.4521549  25.9165955  41.4297458
  61.9896514  27.0130444  40.4318681  61.8205618  28.0597955  40.1792421
  63.4960933  26.8219535  40.7796368  63.6720639  25.7775413  41.0371982
  64.3648361  27.2038968  39.5938985  64.1897459  28.2483801  39.3360270
  65.4146261  27.0650397  39.8522757  64.1145184  26.5727820  38.7411760
  63.8557839  27.6719918  41.8748954  64.7847213  27.5491154  42.0836465
  61.6341456  26.1297139  39.2327676  62.2503008  25.0818983  39.0050700
  60.7051322  26.4336540  38.4877884  59.6778246  23.3215708  40.4674656
  59.7017391  22.9701168  41.4140433  60.2174403  24.1742319  40.4240585
  59.8819580  22.5619422  39.8339093  58.3066783  23.7173970  40.1655177
  58.2684237  24.7761441  39.9092165  57.7831234  22.9029157  38.9699189
  56.7890053  23.2978498  38.7605017  58.4283506  23.0681946  38.1070952
  57.6867931  21.4132806  39.2517994  58.1100929  20.9713167  40.3413059
  57.2256549  20.6775821  38.3511912  57.4173721  23.6501093  41.4319402
  57.7117306  24.3888184  42.3672535  56.3770092  22.8074319  41.5140731
  56.2077143  22.0884207  40.8252616  55.3769346  23.0076366  42.5728247
  54.9927051  24.0237553  42.4835507  54.2067315  22.0296002  42.4475753
  54.5502087  21.0161052  42.6548200  53.1261454  22.4162373  43.4544628
  52.7818199  23.4295142  43.2475547  52.2879257  21.7243301  43.3722885
  53.5361274  22.3712951  44.4634210  53.6213267  22.1192706  41.0546480
  54.3867445  21.8655397  40.3212598  52.7876852  21.4228025  40.9647943
  53.2673807  23.1341392  40.8733616  56.0232471  22.9369968  43.9486906
  56.6203426  21.9241536  44.3350514  55.8831650  24.0288258  44.6908337
  55.2914929  24.7574558  44.3178433  56.5085890  24.2442445  45.9823897
  57.5821285  24.0624037  45.9319321  56.2787703  25.6982878  46.3817382
  56.6369883  26.2797625  45.5322287  55.1960301  25.7975722  46.4586556
  56.9156607  26.2047433  47.6359561  56.5199799  25.6828548  48.5072597
  57.9975700  26.0778991  47.5974223  56.5823317  27.6856930  47.7376410
  56.9621221  28.1952080  46.8520607  55.4996522  27.8018630  47.7867236
  57.1717616  28.3011641  48.9189406  57.7115499  27.7096394  49.5344294
  57.0343143  29.5808912  49.2321765  56.3181968  30.3815495  48.4509267
  55.8802904  30.0113088  47.6195064  56.2148621  31.3569289  48.6918758
  57.6211653  30.0572023  50.3234270  58.1685828  29.4419636  50.9081625
  57.5175586  31.0326547  50.5639617  55.8936934  23.3218999  47.0293437
  54.6972669  23.0405507  46.9777165  56.6811672  22.8516953  47.9999017
  58.1339229  23.0327117  48.1605501  58.4064061  24.0574673  47.9081039
  58.6646621  22.3437940  47.5034297  58.3500571  22.7199701  49.6116448
  58.2300381  23.6277795  50.2028948  59.3556716  22.3243803  49.7542970
  57.3275372  21.7056475  49.9634100  57.0780279  21.8482031  51.0148480
  57.6254879  20.6702304  49.7983750  56.1110599  22.0478490  49.0863039
  55.6309078  21.1657468  48.6626909  55.0884268  22.8566748  49.8594606
  55.3654786  23.9955553  50.2627726  53.8969475  22.3074648  50.0789608
  53.3734609  21.0561293  49.5038065  54.0467380  20.2329643  49.7429666
  53.2925753  21.1559160  48.4214022  52.0247388  20.9158726  50.1720571
  52.1252471  20.3395473  51.0917561  51.3299684  20.4104606  49.5012709
  51.5804055  22.2997845  50.4476032  50.8873637  22.2990119  51.2889066
  51.1160345  22.7960734  49.5954550  52.8719148  23.0282219  50.8370460
  52.8894344  24.0703137  50.5179285  53.0961052  22.9550455  52.3395273
  53.6089836  21.9694526  52.8735968  52.6913196  24.0222350  53.0246180
  52.4052635  24.8704375  52.5568321  52.6872406  24.0018251  54.4804325
  53.6394257  23.6126413  54.8409582  52.4845653  25.4119432  55.0541709
  51.5483286  25.7873965  54.6411396  52.3858775  25.3003947  56.1339476
  53.6039988  26.3943196  54.7465894  54.4619735  26.1526862  55.3739597
  53.8808161  26.2900253  53.6974960  53.1711662  27.8127454  55.0128337
  52.5183615  27.8309377  55.8855388  54.0512373  28.4263965  55.2052049
  52.4461193  28.3767774  53.8728789  52.4352462  27.8421506  53.0160503
  51.8107456  29.5416408  53.9005878  51.8145177  30.2662659  55.0134967
  52.3002799  29.9272581  55.8315486  51.3316056  31.1530331  55.0367194
  51.1712722  29.9792475  52.8211296  51.1698844  29.4225619  51.9783963
  50.6895417  30.8665436  52.8483346  51.5817464  23.0770651  54.9775346
  50.5060459  22.9695207  54.3711876  51.8542154  22.4046089  56.0990935
  52.7622811  22.4497280  56.5389574  50.8498570  21.5157302  56.6748408
  50.6169666  20.7297178  55.9564775  51.3906614  20.8661129  57.9534998
  52.2965958  20.3059737  57.7219262  51.6199219  21.6401188  58.6859304
  50.3699871  19.9121238  58.5573334  49.2771907  19.7460771  58.0200574
  50.7294429  19.2838980  59.6790944  50.0890910  18.6398409  60.1209537
  51.6400983  19.4555430  60.0807728  49.5521184  22.2731424  56.9426752
  48.4636440  21.8123947  56.5788261  49.6486093  23.4524827  57.5562532
  50.5498815  23.7709822  57.8823909  48.4819423  24.2867324  57.8235909
  47.6836369  24.0678648  57.1144332  47.9375887  24.0856604  59.2587749
  48.7079457  24.3577971  59.9802948  46.7303079  24.9529299  59.4654313
  45.9592871  24.6810510  58.7445223  46.3484230  24.8100922  60.4763031
  47.0051406  25.9984268  59.3257708  47.5717301  22.6208036  59.5495167
  48.4570777  21.9952178  59.4359202  47.1953584  22.5352105  60.5688880
  46.8030284  22.2920645  58.8501389  48.8821907  25.7432839  57.5919622
  49.8667466  26.2208083  58.1658673  48.1190111  26.4547581  56.7640182
  47.2735617  26.0328262  56.4072435  48.4555635  27.8050436  56.3271376
  49.3576823  28.1418026  56.8378961  48.7006815  27.8599566  54.8078902
  47.8029391  27.5342186  54.2824824  48.9418846  28.8817725  54.5149504
  49.5309735  27.2028040  54.5493080  47.3275218  28.7608121  56.6868564
  46.1503224  28.4103092  56.5799022  47.6894276  29.9805616  57.0815668
  48.6609455  30.2542330  57.1183952  46.6851903  30.9534022  57.4715020
  45.9685397  30.4650512  58.1318235  47.1786799  31.7640056  58.0076824
  45.9438173  31.5299392  56.2771314  46.4978437  31.7065467  55.1883199
  44.6694833  31.8418606  56.4992258  44.2743027  31.6539707  57.4095164
  43.8009021  32.4057974  55.4708591  44.2458404  32.2615802  54.4863133
  42.4373990  31.7120183  55.4975962  42.5143225  30.7272251  55.0367662
  42.0899462  31.6055722  56.5252371  41.3656862  32.4483966  54.7575045
  41.3958091  32.5557378  53.3886479  42.2107262  32.1022647  52.8244031
  40.3846790  33.2443180  52.7210205  40.4130164  33.3092582  51.6333255
  39.3643692  33.8349986  53.4152325  38.5871878  34.3860418  52.8856663
  39.3223237  33.7336257  54.7596713  38.5040998  34.1947615  55.3128112
  40.3194810  33.0429087  55.4401516  40.2836311  32.9641814  56.5267134
  43.6504011  33.9038394  55.6991409  43.3293215  34.3316608  56.8110945
  43.8931599  34.7061706  54.6560600  44.2069371  34.3354744  53.7704938
  43.7791457  36.1540686  54.7986546  43.2326275  36.3920143  55.7112328
  45.1715137  36.8025125  54.8764428  45.9009031  35.9961611  54.9531746
  45.3284659  37.3462799  53.9448941  45.3412458  37.7550503  56.0555563
  44.6124477  38.5619787  55.9792621  45.1848877  37.2118608  56.9875431
  46.7497582  38.3393618  56.0383001  47.4791485  37.5330112  56.1150299
  46.9067086  38.8831303  55.1067520  46.9515505  39.2706328  57.1707378
  46.1855867  39.4239889  57.8109572  48.0954606  39.9148003  57.3838540
  49.1482574  39.7646780  56.5851159  49.0902214  39.1456499  55.7891661
  50.0009480  40.2703913  56.7781766  48.1674997  40.7289245  58.4330981
  47.3661821  40.8406660  59.0376674  49.0231911  41.2316879  58.6205010
  42.9851824  36.8496300  53.7018107  42.9087010  38.0821408  53.7189238
  42.3910085  36.1118481  52.7543392  42.4623022  35.1050708  52.7919684
  41.6403500  36.7087201  51.6635025  42.1642344  37.6082019  51.3401192
  41.6053635  35.9938699  50.8413928  40.2264589  37.0768480  52.0563061
  39.9146390  37.3006065  53.2327080  39.3414388  37.1094456  51.0652810
  39.6187666  36.8425891  50.1314843  37.9811470  37.5887159  51.2713884
  37.8923647  38.2332313  52.1459265  37.5440533  38.3756828  50.0393035
  37.5451738  37.6897345  49.1922062  36.1410001  39.0086821  50.1876798
  36.1392287  39.6951523  51.0343527  35.8897975  39.5539931  49.2779368
  35.4035878  38.2237208  50.3554877  38.5320301  39.3899521  49.8008378
  38.2835061  39.9034969  49.0287576  37.0706891  36.4053502  51.5573011
  37.0309526  35.4409149  50.7779408  36.3238628  36.4982230  52.6614303
  36.2924757  37.3576374  53.1910726  35.5981032  35.3388537  53.1778766
  36.2643204  34.4905182  53.3346587  34.9278692  35.6930679  54.5193563
  34.4415435  36.6634060  54.4192045  33.8995220  34.6510307  54.9127742
  34.3852178  33.6804434  55.0135751  33.4445788  34.9295461  55.8633299
  33.1283148  34.5927901  54.1446928  35.9877842  35.8051032  55.6009302
  36.6995369  36.5860754  55.3333624  35.5140286  36.0556702  56.5500727
  36.5117060  34.8540993  55.6968386  34.5818374  34.8447548  52.1574183
  34.4803264  33.6357819  51.8964104  33.8379195  35.7712996  51.5472233
  34.0403688  36.7546162  51.6576860  32.6839465  35.3851830  50.7192189
  31.9608603  34.8602793  51.3434958  31.9960576  36.5934491  50.0859828
  31.9037734  37.3902593  50.8240047  32.5853917  36.9484495  49.2405480
  30.6204894  36.1892683  49.6066248  30.7332204  35.3067506  48.9768987
  30.0235765  35.9359537  50.4827690  29.9366735  37.2670374  48.8340475
  30.5205728  37.5317308  47.9525160  28.9426428  36.9421686  48.5266996
  29.8043722  38.4276198  49.6621350  30.0739245  38.3448378  50.6319742
  29.3503987  39.5982648  49.2280803  28.9579964  39.7539300  47.9600118
  29.0057485  38.9737038  47.3204285  28.6154984  40.6510820  47.6471013
  29.2929973  40.6072658  50.0724801  29.5916982  40.4791295  51.0287536
  28.9505393  41.5045386  49.7598737  33.0660615  34.4380430  49.5928842
  32.3174507  33.4999729  49.2978834  34.1992197  34.6766631  48.9441748
  34.7667250  35.4638367  49.2241655  34.6225121  33.8942825  47.7793597
  33.7848361  33.3283017  47.3718503  35.1416930  34.8625726  46.6898297
  36.0649690  35.3361642  47.0235534  35.3316231  34.3024310  45.7742599
  34.0792317  35.9442018  46.4185047  32.9703508  35.6684789  45.6119702
  32.8997914  34.6867805  45.1435802  31.9681596  36.6159044  45.4006609
  31.0967166  36.3841167  44.7883184  32.1202488  37.8759565  45.9317923
  31.1624291  38.8617271  45.7329260  30.4198673  38.5618701  45.2035043
  33.2186483  38.1807516  46.7343330  33.3162756  39.1737022  47.1732162
  34.1872078  37.2191162  46.9737844  35.0458589  37.4551278  47.6023676
  35.6666105  32.8327466  48.0971613  36.1317334  32.1537478  47.1827487
  36.0075250  32.6234530  49.3506012  35.5587882  33.1141212  50.1108507
  37.0903649  31.6835945  49.6709954  37.9186440  31.8412954  48.9802108
  37.5804347  31.9639668  51.0950136  36.7644806  31.8014599  51.7992227
  38.4054636  31.2931166  51.3345708  37.9205651  32.9971068  51.1659520
  36.6589318  30.2213828  49.5596787  35.5565428  29.8491191  49.9670695
  37.5492925  29.3500848  49.0857782  38.4495852  29.6215551  48.7171643
  37.1852884  27.9370486  49.0520509  36.1922620  27.8201128  48.6180880
  38.1927768  27.1455593  48.1964559  37.7400764  26.2010055  47.8948272
  38.4424524  27.7278214  47.3094762  39.3627164  26.8899857  48.9336590
  39.9818985  26.3968929  48.3904530  37.1169727  27.3281561  50.4452318
  37.6376028  27.8841165  51.4284833  36.5013375  26.1360443  50.5314845
  35.9673816  25.7559890  49.7630130  36.5198781  25.3989702  51.7942450
  36.0670337  25.9972089  52.5849040  35.7383423  24.0791201  51.6672351
  36.1720472  23.4941384  50.8561890  35.7992765  23.2778283  52.9587158
  35.3652998  23.8620192  53.7701874  35.2383708  22.3509678  52.8386534
  36.8378884  23.0454810  53.1940914  34.2905273  24.3588058  51.3390330
  34.2295348  24.9011212  50.3954886  33.7487053  23.4170333  51.2518938
  33.8472033  24.9603575  52.1325696  37.9522484  25.1621023  52.2425516
  38.2851853  25.3361565  53.4232189  38.8332837  24.8009061  51.2948016
  38.5441565  24.6758665  50.3351819  40.2321680  24.5294199  51.6403402
  40.2655494  23.7135932  52.3624286  41.0691406  24.1343751  50.4143641
  41.1578940  25.0410112  49.8158383  42.0618435  23.7998809  50.7156190
  40.4337311  23.0581797  49.5682481  40.1548576  21.9380809  50.0675888
  40.2526621  23.3489952  48.2446041  39.8317052  22.6640792  47.6332243
  40.5406709  24.2474391  47.8841179  40.8931094  25.7253994  52.3101301
  41.6371033  25.5666409  53.2882317  40.6514753  26.9219483  51.7795458
  40.1459978  27.0069863  50.9092813  41.1730988  28.1342014  52.3965940
  42.2536200  28.0433013  52.5075457  40.8722493  29.3476048  51.5108838
  39.7936664  29.4571444  51.3979233  41.2817342  30.2458640  51.9730015
  41.3270052  29.2042981  50.5307004  40.5961930  28.3112352  53.7956061
  41.3089474  28.7221719  54.7240544  39.3376022  27.9364370  53.9807908
  38.7973731  27.5337723  53.2283859  38.7006379  28.0646215  55.3125367
  38.8391779  29.0837630  55.6734475  37.2105740  27.7619374  55.2712953
  37.0090660  27.0298050  54.4893261  36.8338184  27.3886881  56.2235769
  36.4153397  28.9592126  54.9431742  36.1184096  29.9220689  55.8579491
  35.4048287  30.8431716  55.2762506  35.0366737  31.6973575  55.8445176
  35.2627068  30.5249361  54.0107872  34.7677527  31.0650080  53.3154868
  35.8841572  29.3567166  53.7801107  35.8783254  28.9245782  52.7794491
  39.3235391  27.0624470  56.2709388  39.5858433  27.4567319  57.3792216
  39.6828363  25.8730736  55.7780481  39.5493195  25.7131673  54.7897654
  40.2322992  24.7608116  56.6065672  39.7920308  24.7954091  57.6030941
  39.9141839  23.4050187  55.9792378  40.1386821  23.5058476  54.9173841
  40.6075394  22.6955337  56.4308896  38.4892189  22.8999440  56.1502562
  38.2641291  22.7984167  57.2119189  37.7952712  23.6087283  55.6984117
  38.3454890  21.5434084  55.4685100  38.5699888  21.6442358  54.4066566
  39.0388435  20.8339241  55.9201636  36.9172174  21.0371639  55.6399238
  36.6921265  20.9356372  56.7015861  36.2232723  21.7459470  55.1880768
  36.7786725  19.7295519  54.9827668  37.4213093  19.0725171  55.4016021
  35.8327353  19.3942686  55.0962919  36.9867882  19.8234932  53.9989163
  41.7471038  24.8803784  56.7857867  42.3404743  23.9375625  57.2294563
  42.3228988  26.0057911  56.3956952  41.7847342  26.5931832  55.7748501
  43.7496168  26.3028010  56.5721405  44.0185530  27.2078896  56.0275424
  44.0423417  26.5202506  58.0542855  43.5223384  25.7446334  58.6165254
  45.1061623  26.4873728  58.2894554  43.4988299  27.8621641  58.4696806
  42.5299832  27.9585769  59.2022450  44.0806442  28.9201394  57.9532367
  43.7536453  29.8433763  58.1998233  44.8524130  28.8056726  57.3118545
  44.6234014  25.3335320  55.7831385  45.7880392  25.3016435  56.1589349
  44.1552767  24.9455515  54.8182160  43.1857914  25.0634832  54.5607479
  45.0219480  24.1997341  53.9187389  45.7151702  23.5885665  54.4966803
  44.1950866  23.2805941  53.0159416  43.2996882  23.8280625  52.7215960
  44.7942541  23.0628406  52.1318140  43.7928412  21.9749046  53.6906974
  44.4866011  21.2006881  53.3629981  43.8849105  22.1121776  54.7680931
  42.3734960  21.5572499  53.3538387  41.7607852  22.4394020  53.1681178
  42.3733916  20.9223476  52.4678373  41.7921613  20.8093161  54.4655734
  41.6636954  21.3097916  55.3333983  41.4327182  19.5307989  54.4115524
  41.5736441  18.8461502  53.2855141  41.9553689  19.2987918  52.4672833
  41.2986618  17.8749235  53.2508282  40.9253977  18.9400038  55.4856264
  40.8140117  19.4645363  56.3415230  40.6528963  17.9684174  55.4424821
  45.8341986  25.1734738  53.0744954  45.3886649  26.2861315  52.7745759
  47.0486719  24.7609382  52.7095218  47.4576953  23.9083356  53.0643006
  47.8299514  25.5678037  51.7814584  48.0050463  26.5497620  52.2210022
  49.1720584  24.9287640  51.4711343  49.7116775  24.7950605  52.4087024
  48.9897784  23.9555081  51.0154515  50.0137511  25.7945947  50.5132828
  50.7857265  25.1608538  50.0767885  49.3454360  26.1459725  49.7271608
  50.6664290  26.9920688  51.1986122  51.6450282  26.7645993  51.9482250
  50.2265019  28.1442077  50.9923453  47.0396973  25.7318802  50.4917517
  46.5098886  24.7607396  49.9384120  46.9352111  26.9612054  50.0188488
  47.3930520  27.7539316  50.4455412  46.0655265  27.1988664  48.8840780
  45.1753292  26.5745944  48.9611005  45.6331219  28.6629131  48.8473131
  46.4817537  29.2746479  49.1534239  45.3592467  28.9096713  47.8215438
  44.4649546  28.9344417  49.7574352  43.5637044  28.4601942  49.3689275
  44.6698859  28.5579003  50.7595937  44.2122429  30.7022175  49.8342487
  43.0012580  30.9080828  48.4943995  42.1087520  30.3235321  48.7176317
  42.7326522  31.9607036  48.4052866  43.4351634  30.5636356  47.5556857
  46.7637519  26.7900127  47.5919541  47.9917967  26.8311237  47.4764170
  45.9605764  26.3293950  46.6373179  44.9655447  26.3005039  46.8081298
  46.4484089  25.8671763  45.3634159  47.5274293  26.0090222  45.3026388
  46.2135200  24.8106463  45.2343003  45.7842241  26.6585321  44.2562283
  44.9541410  27.5576302  44.4941230  46.1651902  26.3035390  43.0302455
  46.9062962  25.6318847  42.8897398  45.5489704  26.9024426  41.8612800
  45.6959479  27.9824789  41.8655705  46.1931127  26.3269034  40.6004440
  46.1548211  25.2399214  40.6718800  45.6037637  26.6552213  39.7443043
  47.6312611  26.7708235  40.4233985  47.6357585  27.8230516  40.1389751
  48.1499914  26.6498269  41.3743879  48.3267712  25.9669899  39.3705266
  47.6380151  25.7423072  38.5561363  49.1809095  26.5208617  38.9809458
  48.8012765  24.7182325  39.9357563  48.5043743  24.4620949  40.8665313
  49.5848734  23.8740927  39.2626977  49.9988775  24.1904939  38.0338560
  49.7169787  25.0673658  37.6194544  50.5921536  23.5515921  37.5240250
  49.9772050  22.7517285  39.8261287  49.6833007  22.5330826  40.7673589
  50.5704611  22.1140066  39.3148003  44.0536208  26.6417033  41.8605565
  43.2696102  27.4773995  41.3920939  43.6417330  25.4916904  42.4023393
  44.2900226  24.7933818  42.7372797  42.2255130  25.1759643  42.4108873
  41.8097530  25.3430175  41.4172394  41.9866606  23.7052224  42.8037114
  40.9402864  23.4098138  42.7266779  42.5827740  23.1136103  42.1089137
  42.4361518  23.3313052  44.1780856  43.6263807  23.7628633  44.7276845
  43.7670271  23.2357356  45.9347972  44.6430684  23.4650726  46.5414728
  42.7178046  22.4670634  46.1802664  42.5482051  21.9438424  47.0273648
  41.8844426  22.4916410  45.0899381  40.9724496  21.8946788  45.0874654
  41.4434924  26.1263491  43.3058456  40.2679160  26.3543522  43.0492610
  42.0719115  26.7179069  44.3279346  43.0332272  26.5245660  44.5699899
  41.3021573  27.6083794  45.1992700  40.3138787  27.1926655  45.3957048
  42.0393113  27.7593274  46.5247807  43.0416381  28.1561530  46.3636301
  41.4594983  28.4676136  47.1165979  42.1313381  26.4442681  47.2621158
  41.0894198  25.7695494  47.3918769  43.2410541  26.0387265  47.6756606
  41.0217071  28.9572262  44.5408590  39.9619101  29.5624042  44.7887297
  41.9049534  29.4296676  43.6422962  42.8373810  29.0588396  43.5275584
  41.5112461  30.5819689  42.8291737  41.1978748  31.3935604  43.4858447
  42.6634663  31.0778291  41.9553016  43.0859135  30.1582083  41.5504125
  42.3042876  31.7028347  41.1377084  43.7343629  31.8277576  42.7338680
  43.4219649  32.3715940  43.8019562  44.8720256  31.9460046  42.2044104
  40.3153470  30.2532812  41.9515999  39.4403247  31.1145638  41.7387214
  40.2623201  29.0249115  41.4016300  41.0194811  28.3630959  41.4954740
  39.1207090  28.6579728  40.5653559  38.8993541  29.4732027  39.8765154
  39.4148235  27.3823121  39.7428766  39.6299944  26.5901528  40.4600129
  38.5260045  27.1204382  39.1688357  40.6038065  27.5477384  38.7942050
  41.4162761  28.0159784  39.3498535  41.0710284  26.2416874  38.2341457
  40.2591844  25.7730359  37.6779317  41.9160226  26.4131839  37.5673066
  41.3788058  25.5858260  39.0485285  40.2124660  28.4734337  37.6436374
  39.9270103  29.4473720  38.0412034  41.0592516  28.5915536  36.9675434
  39.3715206  28.0427909  37.1000783  37.8422006  28.4796116  41.3849079
  36.7447400  28.7068059  40.8718641  37.9348143  28.0598987  42.6479126
  38.8031534  27.7235912  43.0390440  36.7520145  28.0601797  43.4938425
  35.9793106  27.4145892  43.0764209  37.1393624  27.5285240  44.8773690
  38.1810693  27.7556596  45.1039864  36.4950225  28.0060539  45.6155366
  36.9727145  26.0369425  45.0582068  37.9496176  25.1031272  45.2196235
  38.9790756  25.4595347  45.1837099  37.3817129  23.8311452  45.4047072
  37.8674890  22.9526287  45.5157467  36.0118531  23.9883617  45.3532961
  34.9897939  23.0299011  45.4447150  35.2564534  21.9849481  45.6030328
  33.6831038  23.4891854  45.3246117  32.8659827  22.7701729  45.3832130
  33.3854063  24.8338185  45.1324784  32.3529082  25.1752070  45.0583096
  34.4074770  25.7942053  45.0280100  34.1319123  26.8397861  44.8904391
  35.7403863  25.3605618  45.1254835  36.1801391  29.4700076  43.6127125
  34.9556437  29.6699051  43.6149347  37.0536761  30.4630435  43.8024461
  38.0450056  30.2956095  43.8990435  36.5667893  31.8387992  43.9244843
  35.8529769  31.9147415  44.7447305  37.7388261  32.7737210  44.2098143
  38.4880094  32.6799306  43.4236673  37.3881865  33.8047624  44.2556995
  38.3158555  32.4129720  45.4602626  39.0552618  32.9947165  45.6511857
  35.8411148  32.2523985  42.6493682  34.7712466  32.8723139  42.7167163
  36.3823663  31.8753214  41.4837174  37.2926018  31.4384153  41.4575700
  35.7056301  32.1421918  40.2169477  35.5301345  33.2107259  40.0923072
  36.6042949  31.6516568  39.0611479  37.4216678  32.3726359  39.0473710
  37.0025527  30.6553018  39.2528964  35.8914331  31.6636789  37.7079127
  35.0005188  31.0406279  37.7865264  35.4817194  33.1022983  37.2772842
  36.3722161  33.7258598  37.1980030  34.9787546  33.0635105  36.3110427
  34.8068757  33.5263581  38.0208295  36.7663148  30.9769856  36.6656703
  36.9522889  29.9465673  36.9685749  36.2582215  30.9856114  35.7013736
  37.7149710  31.5070099  36.5806725  34.3397863  31.4820219  40.1704800
  33.3353664  32.1169186  39.8060573  34.2714012  30.1980167  40.5468032
  35.1081420  29.6794438  40.7727373  32.9875352  29.4973008  40.5919741
  32.5684529  29.4021527  39.5902676  33.2048750  28.0935421  41.1672782
  33.8901935  27.5064787  40.5558909  33.6157425  28.2014011  42.1710981
  31.9584835  27.2899890  41.3012139  31.4920106  26.5496500  40.2198323
  32.0413207  26.5677042  39.2785394  30.3339030  25.7905365  40.3338912
  29.9589555  25.2261475  39.4800878  29.6462540  25.7528785  41.5564340
  28.7412505  25.1539201  41.6580083  30.1282885  26.4915017  42.6535919
  29.6046676  26.4867775  43.6095726  31.2905283  27.2340374  42.5029119
  31.6949235  27.7909005  43.3481740  31.9731847  30.2687072  41.4222988
  30.8459085  30.5029532  40.9895066  32.3648297  30.6524021  42.6295960
  33.2784058  30.4072521  42.9836856  31.4463867  31.3902728  43.5162066
  30.5157262  30.8363018  43.6390328  32.0888722  31.5713033  44.8842370
  33.0927699  31.9276141  44.6533012  31.5450594  32.3449341  45.4263284
  32.1808100  30.3179449  45.7449374  31.1785189  29.3372759  45.7127076
  30.3300618  29.4619798  45.0399008  31.2601256  28.2094477  46.5317735
  30.5082137  27.4227459  46.4698825  32.3332410  28.0815715  47.4160224
  32.4230939  27.0177712  48.2523635  31.6916559  26.4032697  48.1575686
  33.3085532  29.0635772  47.4654380  34.1357559  28.9667242  48.1686134
  33.2385369  30.1406292  46.6457071  34.0198333  30.9000857  46.6757385
  31.0682760  32.7345619  42.9006401  29.8996143  33.1392160  42.9455510
  32.0325007  33.4164946  42.2733887  32.9821077  33.0733004  42.2496459
  31.7416336  34.6971767  41.6291219  31.3575777  35.4030761  42.3655365
  33.0129527  35.2827350  41.0062293  33.5017619  34.4838532  40.4485980
  32.7069312  36.0707900  40.3181739  33.9567278  35.8373468  42.0029114
  33.4404693  36.5594395  42.6354936  34.3534853  35.0319164  42.6209466
  35.3133198  36.6562409  41.1581294  34.4490516  37.5202895  39.8582699
  33.7319241  38.2141445  40.2968955  35.1649878  38.0741602  39.2510111
  33.9214775  36.8011915  39.2316402  30.6834324  34.5448068  40.5504080
  29.7445021  35.3553125  40.4541206  30.8194093  33.5131856  39.7199804
  31.5752916  32.8500265  39.8146442  29.9045349  33.3599840  38.6013450
  29.7828665  34.3130732  38.0866441  30.4494590  32.3428569  37.6159394
  30.5811271  31.3957151  38.1390887  29.6855101  32.2293544  36.8467845
  31.7564479  32.7486357  36.9719042  32.5663447  32.7475815  37.7014019
  32.0556449  31.6879652  35.8584706  31.2463527  31.6887607  35.1283033
  32.9931419  31.9369440  35.3612686  32.1359074  30.6991588  36.3100458
  31.6761470  34.1366903  36.3104912  31.4246801  34.8842376  37.0628454
  32.6389175  34.3824786  35.8624260  30.9079139  34.1274119  35.5372960
  28.5259649  32.9608064  39.0621465  27.5361942  33.4076625  38.4793202
  28.4216125  32.1279712  40.1158662  29.2208107  31.6433976  40.4987107
  27.1078616  31.8538488  40.6871425  26.3687537  31.5092720  39.9638960
  27.2139335  30.8052770  41.8253744  28.0398453  31.0789604  42.4819307
  25.9097747  30.7531088  42.6375538  25.0834244  30.4790161  41.9817190
  26.0046181  30.0116992  43.4309118  25.7152489  31.7315712  43.0767266
  27.6232701  29.4163045  41.2480425  28.5898066  29.4993678  40.7510416
  27.6934555  28.6915035  42.0591141  26.8731721  29.0854647  40.5297120
  26.4805098  33.1476488  41.1871659  25.3165165  33.4374170  40.9066042
  27.2612499  33.9790269  41.8833968  28.2204438  33.7620857  42.1135768
  26.6940049  35.2266397  42.3862341  25.7888004  35.0352975  42.9625084
  27.7193382  35.8920458  43.2965803  28.0621359  35.1350345  44.0019333
  28.5523998  36.2054110  42.6673660  27.1760899  37.1079846  44.0722452
  26.7704586  37.8287961  43.3623193  26.3810492  36.7630250  44.7333144
  28.2708491  37.7702965  44.8980546  29.2939196  38.2350722  44.3376537
  28.1162358  37.8419153  46.1213348  26.2866632  36.1548927  41.2502067
  25.2346652  36.8084167  41.3350226  27.0644869  36.1831920  40.1650646
  27.9106293  35.6340054  40.1147010  26.6930405  37.0006197  38.9994521
  26.6912278  38.0558316  39.2726254  27.6922431  36.7923213  37.8637933
  27.9277870  35.7296117  37.8066384  27.2638586  37.1204387  36.9167316
  29.0202052  37.5257811  38.0193644  29.2436615  38.4015134  39.0820493
  28.4683866  38.5420985  39.8352322  30.4588519  39.1003443  39.1853577
  30.6276639  39.7984728  40.0052478  31.4585272  38.8936866  38.2228984
  32.3976998  39.4437748  38.2817016  31.2499430  37.9893661  37.1977706
  32.0470564  37.7798271  36.4844658  30.0012474  37.3360593  37.0750981
  29.8118366  36.6771116  36.2277426  25.3147811  36.5975761  38.4811010
  24.4665274  37.4461021  38.1764745  25.0878145  35.2987759  38.3494104
  25.7621544  34.6228927  38.6788749  23.8953148  34.8084327  37.6577933
  23.6331130  35.5188392  36.8737832  24.2121644  33.4588799  37.0089546
  24.4677632  32.7344510  37.7822412  23.3409133  33.1074009  36.4562483
  25.0537817  33.5723388  36.3256489  22.6810977  34.6954878  38.5925031
  21.5454594  35.0068558  38.1674095  22.8955842  34.2929947  39.8498041
  23.8479196  34.1003843  40.1255897  21.8262199  34.0703710  40.8341241
  20.8437572  33.9129164  40.3890688  22.1524794  32.8665877  41.7514695
  23.1085585  33.0447819  42.2436676  21.0568328  32.6862979  42.8122098
  20.1004723  32.5075890  42.3207440  21.3024842  31.8357907  43.4481291
  20.9887293  33.5873624  43.4217558  22.3858507  31.6060838  40.9791453
  23.2253584  31.7466763  40.2982909  22.6106511  30.7928676  41.6692495
  21.4917523  31.3593561  40.4065946  21.5996779  35.3102438  41.6827223
  20.4705646  35.5983436  42.1059571  22.6715075  36.0629870  41.8986945
  23.5711264  35.7216856  41.5916138  22.6129633  37.3750147  42.5659770
  23.2920779  38.0382376  42.0302177  21.5916686  37.7418920  42.4637152
  22.9865752  37.3656032  44.0250502  23.0437111  38.4322341  44.6293125
  23.2168554  36.1855480  44.5660288  23.1387829  35.3310913  44.0331989
  23.6081067  36.0917309  45.9818522  24.3263103  36.8784320  46.2129022
  22.4046436  36.2492554  46.8958815  22.7285198  36.0231588  47.9117967
  22.0809815  37.2886512  46.8411157  21.2564639  35.3449536  46.5214491
  20.8341441  35.6815890  45.5746527  21.6516266  34.3359050  46.4041062
  20.1602278  35.3155188  47.5541106  19.1914279  34.5777527  47.4369188
  20.3134875  36.1130453  48.5887902  19.6102481  36.1359718  49.3133798
  21.1336987  36.6988071  48.6538919  24.2349431  34.7205295  46.2370226
  24.1239450  33.8790565  45.3967438  24.9554486  34.6056625  47.3356101
  25.1673378  35.4276738  47.8828757  25.5110528  33.3144555  47.7721114
  25.2505734  32.5383436  47.0524588  27.0319106  33.3938672  47.8747546
  27.2456787  34.2755698  48.4789093  27.3887884  32.5037751  48.3928996
  27.7375926  33.5160265  46.5324357  27.2001727  34.2333872  45.9122145
  29.1546316  33.9832269  46.7257191  29.6928513  33.2660894  47.3455031
  29.6460173  34.0656215  45.7562595  29.1530958  34.9569267  47.2156240
  27.7434638  32.1926950  45.7876498  26.7174075  31.8701771  45.6107595
  28.2551116  32.3147503  44.8329665  28.2620919  31.4419222  46.3838580
  24.8646145  32.9803814  49.1067264  24.5492223  33.8770218  49.8368378
  24.7077597  31.7101126  49.4741943  25.1270084  30.5572760  48.6980795
  26.1884729  30.3582659  48.8456880  24.9314669  30.7147556  47.6373898
  24.2495061  29.4856911  49.2910313  24.7244930  28.5124091  49.1677077
  23.2822725  29.4836597  48.7884815  24.1010755  29.8374402  50.7214221
  24.9249867  29.5070179  51.3539491  23.1651514  29.4277523  51.1012924
  24.0351739  31.3643769  50.7096663  23.0136480  31.7251420  50.5895347
  24.6182824  31.9096194  52.0183000  23.8571801  32.0795630  52.9347052
  25.9318855  32.1195932  52.0703759  26.4981534  31.8874907  51.2669031
  26.6019684  32.6354275  53.2666948  25.9862103  32.4706224  54.1508782
  27.9261749  31.9000000  53.4507289  28.5490415  32.4684015  54.1414215
  27.8199701  30.8781314  53.8148786  28.7110162  31.8154548  52.1101520
  29.5848373  32.7633934  51.5752698  29.7905584  33.6665661  52.1497763
  30.0252519  32.3058269  50.3422443  30.6754375  32.7892342  49.7391891
  29.4539464  31.0956975  50.0821081  29.6141340  30.2550677  48.9912248
  30.2807709  30.5769800  48.1911833  28.9291767  29.0777138  48.9844955
  29.0315154  28.4107652  48.1284544  28.1076873  28.7032341  50.0314483
  27.5692598  27.7555108  50.0354347  27.9485131  29.5539054  51.1311714
  27.3335465  29.2018800  51.9594195  28.6199596  30.7637943  51.1520405
  26.8678607  34.1455855  53.2257800  27.6394154  34.6447495  54.0499813
  26.2478594  34.8763010  52.3113736  25.5555111  34.4592511  51.7057147
  26.5595137  36.2949492  52.1349937  27.6119095  36.4368003  51.8891470
  25.7180700  36.8199627  50.9861881  25.8973825  36.1134661  50.1757507
  24.6907187  36.7179154  51.3358102  25.9423109  38.2312140  50.4841057
  26.9689634  38.5155935  50.7147867  25.7988336  38.2350382  49.4035958
  25.0209319  39.1869379  51.1018643  23.9909305  38.8840749  50.9135294
  25.1959040  39.2291319  52.1769010  25.2299944  40.5419402  50.5323825
  24.5795014  40.8670816  49.8314965  26.2165639  41.3426167  50.8971234
  27.0286006  40.9017160  51.8417592  26.8772860  39.9895965  52.2482589
  27.7968242  41.4788800  52.1529082  26.4083909  42.5525218  50.3437572
  25.7838299  42.8781266  49.6198752  27.1762141  43.1305073  50.6543678
  26.2662121  37.0874754  53.4118467  27.0004715  38.0228717  53.7420738
  25.2359901  36.6978310  54.1605802  24.6901850  35.8965989  53.8773431
  24.7945311  37.4631597  55.3468478  25.1120285  38.5027404  55.2658135
  23.2629938  37.4239549  55.4407125  22.9453865  36.3846292  55.5245390
  22.9542560  37.9706696  56.3317142  22.6210895  38.0527521  54.2122265
  23.2026572  38.9423375  53.9703219  22.7105764  37.3293261  53.4018260
  21.1860061  38.4288392  54.3873272  21.0866233  38.9321119  55.3490645
  20.9208369  39.1198318  53.5871310  20.2594679  37.2297716  54.3467574
  20.3168542  36.7687557  53.3607190  20.5748944  36.5104317  55.1025056
  18.8268182  37.6590760  54.6226697  18.5341969  38.3253095  53.9222374
  18.2215285  36.8511063  54.5925128  18.7733429  38.0859030  55.5364849
  25.4364816  36.9914479  56.6480259  25.1152371  37.5320634  57.7221446
  26.3389161  36.0176683  56.5810169  26.4646748  35.5469622  55.6963024
  27.1196088  35.5614934  57.7230718  26.7137982  35.9744368  58.6465947
  27.1297870  34.0264725  57.8094502  27.4083212  33.6276306  56.8340301
  28.1129864  33.5339628  58.8568909  27.8348148  33.9320440  59.8327252
  28.0935689  32.4446527  58.8904652  29.1172514  33.8712004  58.6003336
  25.7302580  33.5193756  58.1346046  25.8224602  32.7272939  58.8777103
  25.1605991  34.3476512  58.5559689  25.0336789  32.9991627  56.9476547
  25.6025440  32.1705002  56.5259786  24.0410172  32.6501854  57.2321488
  24.9406850  33.7908575  56.2042359  28.5266859  36.1244700  57.5650295
  29.2182692  35.8424070  56.5782940  28.9434890  36.9522053  58.5195695
  28.3432831  37.1780790  59.2998472  30.2480410  37.6002085  58.4402743
  30.6281351  37.5592551  57.4195146  30.1178092  39.0741346  58.8572055
  29.3876872  39.1153768  59.6654878  31.0919095  39.3886367  59.2317945
  29.6812099  40.0066927  57.7291445  28.6952682  39.6826391  57.3959643
  29.6121683  41.0134260  58.1412408  30.6403697  40.0071726  56.5482511
  30.9011575  38.9765970  56.3074138  30.1437578  40.4651435  55.6928338
  31.9063099  40.7871656  56.8773098  31.6624634  41.5489897  57.6177579
  32.6406312  40.0979093  57.2941995  32.4717949  41.4396423  55.6606620
  31.7916719  42.0786850  55.2744536  33.3083069  41.9480833  55.9093294
  32.6982136  40.7338569  54.9745858  31.3148028  36.9225314  59.2961575
  32.5069677  37.1523171  59.0647563  30.9092127  36.0982130  60.2627431
  29.9425680  36.1372973  60.5528635  31.7986212  35.1587627  60.9415087
  32.5707798  35.6917252  61.4963251  30.9813157  34.3348242  61.9182099
  30.1591899  34.9273155  62.3196606  30.5804060  33.5137763  61.3238601
  31.7967298  33.7816020  63.0484218  32.9140308  33.2868599  62.7900063
  31.3440256  33.9038613  64.2110196  32.5403738  34.2012207  60.0144994
  31.9410009  33.2539629  59.5078440  33.8595618  34.3754295  59.8812170
  34.3472815  35.1047608  60.3815216  34.6230400  33.5410281  58.9530165
  34.2505891  33.6596188  57.9355118  36.0896382  33.9739050  58.9902364
  36.1335976  35.0020626  58.6309887  36.4118009  33.9391313  60.0309582
  36.9921699  33.1171563  58.1603960  37.1145887  32.1384160  58.6242730
  36.5801222  32.9949224  57.1587086  38.3424222  33.8073677  58.0713557
  38.6365439  33.8421648  57.0223654  38.2292899  34.8230849  58.4503267
  39.4087720  33.0860408  58.8709847  39.2149229  33.2354309  59.9331549
  39.3635526  32.0217348  58.6401013  40.7755823  33.6146840  58.5318933
  40.8178302  34.6007889  58.7461638  41.4710376  33.1222378  59.0740544
  40.9555761  33.4759652  57.5477904  34.4900891  32.0536662  59.2847042
  34.3670874  31.2022784  58.3817228  34.5593340  31.7132962  60.5708952
  34.7046733  32.3955933  61.3012695  34.5022277  30.3091503  60.9412183
  35.2218266  29.7399679  60.3527388  34.8409024  30.1385370  62.4292638
  35.7081280  30.7573359  62.6597128  33.9880999  30.4750620  63.0188221
  35.1490875  28.6896244  62.7664791  34.3428360  28.0908978  62.3427035
  36.0900507  28.4240715  62.2846398  35.2503327  28.4188068  64.2591416
  35.3681262  29.3796630  65.0587328  35.2267023  27.2260175  64.6251367
  33.1370731  29.7140842  60.6184500  33.0496103  28.5869927  60.1216390
  32.0621599  30.4642014  60.8893885  32.1604425  31.3553427  61.3544766
  30.7205370  30.0160537  60.5287092  30.4947446  29.0768185  61.0336391
  29.6835560  31.0573536  60.9478023  30.1011997  32.0109524  60.6248129
  28.8013046  30.8267855  60.3506668  29.2902925  31.1468648  62.4258607
  30.1794292  31.4107095  62.9985062  28.5474508  31.9384910  62.5239226
  28.7124532  29.8691224  62.9919393  29.2212624  29.3277646  63.9700635
  27.6397302  29.3801886  62.3840873  27.2151244  28.5287515  62.7230067
  27.2524264  29.8615685  61.5851064  30.6138736  29.7981827  59.0284275
  30.0586457  28.7931170  58.5667663  31.1440802  30.7407770  58.2464672
  31.5930071  31.5571931  58.6363759  31.0295888  30.6409202  56.7942519
  29.9898353  30.5288786  56.4869108  31.6050791  31.9007907  56.1292841
  32.5882593  32.1225405  56.5443541  31.7348855  31.6422584  54.5890308
  30.7519676  31.4208800  54.1731401  32.1425428  32.5293478  54.1042748
  32.4005569  30.7964756  54.4168834  30.7584751  33.0724210  56.3737531
  30.6861531  33.2516024  57.4464906  31.1960426  33.9450566  55.8888392
  29.7628736  32.8929594  55.9679552  31.7412780  29.3861072  56.3061117
  31.2540078  28.6783650  55.4154312  32.9022075  29.0817796  56.8961046
  33.3098069  29.6883266  57.5932866  33.6113324  27.8597638  56.5447627
  33.8525525  27.9048924  55.4827479  34.5333748  27.8277442  57.1252040
  32.8119941  26.5973286  56.8168024  32.7604350  25.6955957  55.9655349
  32.1346072  26.5355041  57.9672018  32.2199446  27.2540547  58.6718307
  31.3016499  25.3728318  58.2614483  31.8791185  24.4654471  58.0845805
  30.8204335  25.3709801  59.7149077  30.0255146  26.1137140  59.7823576
  30.4085305  24.3802471  59.9069599  31.8686769  25.6750475  60.7228987
  32.7403192  25.0408477  60.5612469  32.1638831  26.7220185  60.6535662
  31.2007206  25.3558966  62.3640773  30.4401618  26.9362929  62.6983886
  29.6816977  27.1421196  61.9430962  29.9745557  26.9148526  63.6837068
  31.1992625  27.7180919  62.6727458  30.1131342  25.2997514  57.3234479
  29.7397339  24.2041954  56.8846823  29.5071116  26.4530285  56.9985007
  29.7448499  27.3253048  57.4487383  28.4039240  26.4454392  56.0448780
  27.6186444  25.7401057  56.3167969  27.7975229  27.8583952  55.8960463
  28.6079511  28.5777179  55.7782265  26.8562193  27.9304348  54.6582936
  26.0452250  27.2116682  54.7756116  26.4414579  28.9349572  54.5745775
  27.4219301  27.6951918  53.7567776  27.0840826  28.2819746  57.1745444
  26.0862550  27.8435178  57.1605232  27.6451176  27.8801584  58.0182760
  26.9684973  29.8378981  57.3181408  26.4071471  30.2404103  56.4749507
  26.4518113  30.0802032  58.2468082  27.9660104  30.2770512  57.3327012
  28.8670260  25.8787636  54.7112419  28.1861457  25.0423742  54.1110679
  30.0215356  26.3466962  54.2082064  30.5709601  27.0504003  54.6804698
  30.4825726  25.8658473  52.8988092  29.6861799  25.9886217  52.1647899
  31.7009854  26.6444149  52.4285806  32.4331834  26.6128485  53.2354194
  32.0983246  26.1234608  51.5574730  31.4077116  28.1070217  52.0605250
  30.9692605  28.1540095  51.0637032  30.7129523  28.5352738  52.7830288
  32.6958439  28.8877326  52.0794289  33.0225809  28.9954938  53.1137062
  33.4473774  28.3332544  51.5174228  32.5093483  30.2955547  51.4457456
  32.2343560  30.1440330  50.4019444  31.6854131  30.7778734  51.9716721
  33.7308344  31.1691761  51.5201466  34.4943106  30.7226271  51.0325014
  33.5330866  32.0616476  51.0906232  33.9855645  31.3100541  52.4872893
  30.8064040  24.3881174  52.9391293  30.5550649  23.6674812  51.9661370
  31.3948970  23.9347747  54.0443435  31.6419973  24.5699626  54.7897139
  31.7405669  22.5271348  54.1932706  32.4115846  22.2150186  53.3930095
  32.4448359  22.3170817  55.5294502  33.1401864  23.1465420  55.6582239
  31.6797494  22.3613548  56.3045519  33.1949767  21.0102881  55.6369126
  32.5096408  20.2260855  55.3152891  34.0604735  21.0298248  54.9746191
  33.6508580  20.7319021  57.0554338  32.8109076  20.3184052  57.8936144
  34.8463883  20.9618629  57.3325104  30.5020409  21.6442404  54.1028492
  30.5502777  20.5488422  53.5286873  29.3922881  22.0920984  54.6892296
  29.4034926  22.9908887  55.1498268  28.1626132  21.3191339  54.7172695
  28.3897695  20.2530727  54.7136907  27.3716896  21.6463399  55.9858412
  27.1539775  22.7140643  55.9600482  26.4390259  21.0845455  55.9345999
  28.0942145  21.3091889  57.2756113  29.0752152  21.7838813  57.2554686
  27.5155708  21.7072843  58.1091541  28.2605085  19.8169225  57.4455295
  27.2885421  19.3293108  57.3705955  28.9207417  19.4312759  56.6686972
  28.8661119  19.5329157  58.8125462  29.7753726  20.1276140  58.9001785
  28.1470782  19.8563832  59.5651806  29.1862824  18.1184969  59.0196096
  29.8528697  17.8186780  58.3225661  29.5829066  17.9943736  59.9401435
  28.3438038  17.5673068  58.9388726  27.2672912  21.5752892  53.5114868
  26.3136788  20.8332292  53.3071578  27.5123053  22.6265308  52.7487620
  28.3401541  23.1898456  52.8808303  26.5607419  23.0271926  51.7198994
  25.5478729  22.9817420  52.1200617  26.8394912  24.4687893  51.2463300
  27.0517237  25.0593378  52.1375702  27.7042092  24.4893670  50.5830508
  25.6372689  25.0524394  50.5277181  24.5589011  25.5390626  51.2395466
  24.6087251  25.5138451  52.3281150  23.4381237  26.0481580  50.6105412
  22.6199554  26.4645106  51.1982088  23.3860090  26.0851666  49.2312300
  22.2304555  26.5631056  48.6382095  21.5634322  26.8277914  49.2758780
  24.4429219  25.5938807  48.4864326  24.3939765  25.6150060  47.3977368
  25.5727834  25.0707649  49.1262504  26.4007632  24.6784706  48.5357805
  26.6045593  22.0860116  50.5264811  27.6796563  21.7296952  50.0396402
  25.4285192  21.7475427  50.0140853  24.5731395  21.9919693  50.4922909
  25.3337385  20.9726479  48.7698395  26.1272329  20.2258577  48.7420905
  23.9858665  20.2570499  48.6763535  23.9280331  19.5519044  49.5055243
  23.2043710  21.0091580  48.7845114  23.7905516  19.4975132  47.3372709
  22.9552022  18.8292033  47.5462066  23.5319584  20.1523313  46.5051399
  24.9983660  18.6890521  46.9789067  25.2440092  17.7015428  47.6978293
  25.7753706  19.0919820  46.0594909  25.5296631  21.9143094  47.5921828
  24.5859633  22.5764998  47.1388887  26.7651620  21.9680649  47.0711465
  27.5124281  21.3708708  47.3952635  27.0686880  22.9616588  46.0502219
  26.7928451  23.9590087  46.3927175  28.5595714  22.9405002  45.7696261
  28.9574402  21.9262417  45.7367727  28.7441210  23.4337155  44.8152780
  29.3526309  23.6752496  46.7880155  29.3742813  23.3192486  48.1238900
  30.1151085  24.1921300  48.7870536  30.2526659  24.0969191  49.8641385
  30.5829019  25.0891488  47.9235186  31.1769102  25.8757865  48.1436437
  30.1250395  24.7740928  46.6655266  30.4124936  25.3873620  45.8114937
  26.2739977  22.7387358  44.7574092  26.1346743  23.6801533  43.9537656
  25.7371785  21.5315847  44.5476301  25.9482300  20.7336086  45.1296874
  24.9037890  21.3246074  43.3612792  25.4132962  21.7100614  42.4781445
  24.6318737  19.8304504  43.1566483  24.2332458  19.4154150  44.0823591
  23.8971773  19.7124365  42.3601597  25.9260717  19.0857647  42.7756657
  26.1859795  19.3797399  41.7587452  26.7076729  19.4161239  43.4598181
  25.7946202  17.5552598  42.8487158  25.4994502  17.2294250  43.8461151
  25.0763070  17.1832914  42.1181235  27.0981030  16.9972684  42.5444212
  27.3239821  16.8510777  41.5709191  27.9868320  16.6345422  43.4627318
  27.6932456  16.7297491  44.7484544  26.7893770  17.0797890  45.0323449
  28.3742151  16.4519950  45.4407208  29.1881164  16.2137861  43.0970695
  29.4274878  16.1692080  42.1168582  29.8593657  15.9394126  43.8000932
  23.6238186  22.1478909  43.4565469  23.0276869  22.4543781  42.4253604
  23.2314119  22.5449555  44.6767755  23.7148303  22.2255342  45.5040457
  22.0704353  23.4029309  44.8452410  21.2145088  22.9777275  44.3211313
  21.7187999  23.5328081  46.3351186  22.6558716  23.6909640  46.8689561
  21.0899756  24.4173940  46.4360544  20.9922871  22.3195360  46.9271355
  20.0536068  22.1484283  46.4001610  21.6187344  21.4308530  46.8502695
  20.6356637  22.6594520  48.7090967  19.8444540  21.1510706  49.2419378
  20.5265898  20.3127627  49.1004113  19.5817688  21.2309869  50.2967888
  18.9410844  20.9869113  48.6545059  22.3329310  24.7828899  44.2338179
  21.4003573  25.4623740  43.7908262  23.5972565  25.1914957  44.2003012
  24.3169633  24.6395028  44.6446268  23.9774474  26.4550503  43.5854391
  23.3711602  27.2558285  44.0088410  25.4559175  26.7812896  43.8245610
  25.9476232  25.9175284  43.3770777  25.7459805  27.6833560  43.2858222
  25.8751155  26.9044706  45.2818669  25.5473609  26.0108130  45.8129543
  27.3782299  27.0485522  45.4155742  27.7066941  27.9423081  44.8850929
  27.6432304  27.1341689  46.4693983  27.8671009  26.1729268  44.9885077
  25.1340176  28.0321731  46.0005762  24.0616203  27.8392571  45.9714754
  25.4656114  28.0823969  47.0376993  25.3457116  28.9799919  45.5056781
  23.7122780  26.4813976  42.1082708  23.6730495  27.5678367  41.5234484
  23.6134222  25.3046153  41.4716957  23.6711464  24.4514941  42.0092378
  23.5243066  25.2029268  40.0301907  23.7851101  26.1524362  39.5627373
  24.5013761  24.1377973  39.5472949  24.1269672  23.2041337  39.9670441
  24.4442094  24.0953011  38.4596249  25.9641933  24.3419051  39.9758156
  26.0396993  24.3045174  41.0625547  26.8381959  23.1992233  39.3518742
  26.7635581  23.2362621  38.2650642  27.8783410  23.3333088  39.6488926
  26.4810828  22.2326750  39.7073386  26.5216323  25.7252933  39.5499932
  25.9253731  26.5144843  40.0079801  27.5572912  25.8166883  39.8773447
  26.4745238  25.8182520  38.4649871  22.1035370  24.9260761  39.5369439
  21.8987657  24.7097819  38.3386594  21.1114586  25.0335294  40.4171002
  21.2938232  25.3006794  41.3739039  19.7315362  24.7129433  40.0353690
  19.6693501  23.6806529  39.6909730  18.8020561  24.8836746  41.2396462
  19.2526282  24.3323220  42.0649306  18.7889522  25.9471874  41.4781181
  17.3800729  24.3963808  41.0222422  16.9539036  24.9049213  40.1574491
  17.3919120  23.3215129  40.8416297  16.5292251  24.6966203  42.2617986
  16.9316054  24.1261061  43.0988784  16.6055616  25.7620649  42.4788239
  15.0612441  24.3237729  42.0499834  14.4946397  24.6985948  42.9023733
  14.7184938  24.8179289  41.1409007  14.8539168  22.8524875  41.9239608
  15.1710561  22.3944436  42.7664085  13.8717534  22.6614953  41.7862038
  15.3785210  22.5050390  41.1339171  19.2566053  25.5796948  38.8819274
  18.5307487  25.0988142  38.0025320  19.6617877  26.8476973  38.8578052
  20.1799741  27.2062504  39.6471225  19.2959535  27.7739813  37.7925610
  18.6595388  27.2681419  37.0664742  18.5327098  28.9717022  38.3609672
  19.1861590  29.5531896  39.0113331  18.1574624  29.6089210  37.5601916
  17.3497059  28.5788368  39.1844960  16.1997883  28.0488840  38.6293739
  15.3337357  27.7819992  39.5924728  14.3603625  27.3498670  39.3602976
  15.8764876  28.1260541  40.7473830  15.4425620  28.0392561  41.6552787
  17.1368619  28.6259404  40.5203559  17.7478791  28.9642597  41.3571948
  20.4888561  28.2280644  36.9635176  20.4546854  29.3063462  36.3588741
  21.5634051  27.4333688  36.9441693  21.5461120  26.6424508  37.5720619
  22.7462739  27.6301715  36.1112395  22.7292713  28.6352136  35.6896942
  24.0381294  27.4616343  36.9276840  24.0425514  26.4466042  37.3249165
  24.8758905  27.5864028  36.2416162  24.1692810  28.4586858  38.0776242
  23.2292278  28.4658295  38.6293034  24.9715138  28.1179915  38.7321867
  24.5375115  30.1349646  37.5091161  26.3031970  30.1072903  37.1562267
  26.5091225  29.3616526  36.3882956  26.6190434  31.0888502  36.8028403
  26.8516820  29.8545929  38.0636458  22.7581352  26.6295198  34.9618899
  22.0757619  25.6018414  35.0183317  23.5297618  26.8913744  33.9040154
  24.3535333  28.0824137  33.6009975  25.3265190  27.9982246  34.0850546
  23.8511802  28.9843497  33.9506428  24.4472427  28.0234701  32.1062673
  25.2805646  28.6154382  31.7277868  23.5235316  28.3505029  31.6288693
  24.6735485  26.5538052  31.8866091  25.6956082  26.3023454  32.1699128
  24.4858573  26.2155400  30.8675663  23.6863450  25.8849745  32.8498104
  22.7063952  25.7023134  32.4088665  24.2563942  24.5748310  33.3794716
  25.1736459  24.5610020  34.2029441  23.7452071  23.4536774  32.8545807
  23.0865676  23.4474090  32.0889084  24.0952370  22.1770267  33.4793406
  23.9390714  22.2337288  34.5566039  23.2153478  21.0569270  32.9154286
  23.5311192  20.1039551  33.3399664  22.1761186  21.2470560  33.1836703
  23.3358931  21.0093188  31.5221694  22.7818867  20.3054123  31.1769268
  25.5749892  21.8296115  33.3160981  26.1105130  21.0409425  34.1064686
  26.2462970  22.4251210  32.3312203  25.7590193  23.0157946  31.6726123
  27.6787786  22.2226981  32.1498742  27.9006424  21.1685470  31.9836179
  28.1372511  23.0207251  30.9199803  27.6410749  23.9905978  30.9554103
  29.2148937  23.1612161  31.0039373  27.8243361  22.3515201  29.6309117
  26.7698518  22.0764690  29.6083157  28.0270091  23.0770346  28.8430972
  28.6684486  21.1227139  29.4109519  29.8489882  21.2944198  29.0296588
  28.1743263  20.0120381  29.6466562  28.4675736  22.6573047  33.3753049
  29.6071522  22.2049251  33.5698464  27.9081063  23.5473243  34.2020058
  27.0144873  23.9759954  34.0076207  28.6372132  23.9828157  35.3721867
  29.6299000  24.3330230  35.0892964  27.8842879  25.1367171  36.0482377
  26.8076630  25.0718926  35.8908342  28.0958483  25.1273962  37.1174689
  28.3120908  26.4794454  35.5382118  28.0261482  26.8861175  34.2592417
  27.4618013  26.2217398  33.6048605  28.4534856  28.1487237  33.7866621
  28.2687385  28.4548541  32.7569760  29.1244481  29.0121095  34.6654591
  29.4425238  29.9980221  34.3264842  29.3769138  28.6190262  35.9369034
  29.8927249  29.3047289  36.6091020  28.9876308  27.3586410  36.3903800
  29.2097416  27.0549411  37.4133820  28.8870517  22.8420497  36.3488841
  29.7850264  22.9628132  37.1866135  28.1173827  21.7701122  36.2226169
  27.3455201  21.7487477  35.5715630  28.3360913  20.5926650  37.0891171
  28.3022238  20.9043018  38.1330686  27.2804630  19.5313915  36.8667740
  26.9899587  19.4433638  35.8198940  27.6361856  18.5660903  37.2269891
  26.0497880  19.8366038  37.6222668  24.9790043  20.4189262  37.0523160
  24.0483171  20.5725661  37.9435590  23.0826484  20.9999996  37.6735894
  24.5014505  20.1452747  39.0808532  24.0045467  20.1721230  39.9597534
  25.7444773  19.6565838  38.9111078  26.2804963  19.2248829  39.7563410
  29.7224953  20.0783340  36.7956318  30.4232115  19.6627694  37.6835242
  30.1662544  20.2059353  35.5328159  29.5467520  20.5213794  34.8001419
  31.5607534  19.8037566  35.1598740  31.7369661  18.7801819  35.4905450
  31.7918401  19.8761634  33.6467983  31.6799624  20.9469574  33.4765549
  32.8341930  19.5926021  33.5012184  30.9146893  19.1106788  32.6614239
  30.0457434  19.7122872  32.3947756  31.7260628  18.8137446  31.4138145
  32.5949907  18.2117365  31.6796140  31.1097486  18.2662415  30.7007240
  32.0570499  19.7496794  30.9637325  30.3450930  17.8458409  33.2234374
  29.7304434  18.0784777  34.0930266  29.7326401  17.3550163  32.4670684
  31.1567864  17.1815773  33.5200966  32.7792959  20.5516017  35.8017058
  33.8068793  20.1205760  36.4137998  32.4814673  21.8466137  35.9720703
  31.6019256  22.1664820  35.5923469  33.3793743  22.8422145  36.5952477
  34.3962604  22.7390968  36.2165544  32.8639832  24.2442041  36.2414211
  32.8866308  24.3504999  35.1568532  31.8307029  24.2727737  36.5872762
  33.5433685  25.4664460  36.8093527  34.7168474  25.3947045  37.5205899
  35.1620406  24.4150383  37.6942480  35.3321510  26.5300783  38.0119614
  36.2640093  26.4560423  38.5725498  34.7636010  27.7522770  37.7904049
  35.2422660  28.6554587  38.1688789  33.5959529  27.8407227  37.0948192
  33.1356783  28.8170191  36.9428561  32.9957755  26.7081067  36.5843272
  32.0809325  26.7932978  35.9978932  33.4122474  22.5330202  38.0911509
  34.4379456  22.4106937  38.6439804  32.2379313  22.3864902  38.6901972
  31.3637479  22.5033973  38.1980228  32.1928020  22.0880853  40.1440977
  32.6875169  22.8733825  40.7156436  30.7305284  22.0155216  40.5787832
  30.4034623  23.0533520  40.5152610  30.1782569  21.4161255  39.8550287
  30.4672545  21.4850990  41.9839122  30.8626532  20.4717596  42.0539414
  31.1243628  22.3525149  43.0232982  30.7291084  23.3659727  42.9541887
  30.9196005  21.9500894  44.0153803  32.2010223  22.3706747  42.8542570
  28.9961259  21.3655919  42.2380903  28.5565056  20.6788848  41.5147184
  28.8307603  20.9854394  43.2461773  28.5289275  22.3453526  42.1386238
  32.9252679  20.7762589  40.4541046  33.7426897  20.7549459  41.3301031
  32.5717691  19.7242815  39.7354948  31.8180830  19.7759974  39.0651351
  33.1777798  18.3993827  40.0110456  33.1112867  18.1818630  41.0770489
  32.4550715  17.3004092  39.2442523  32.4184169  17.5393422  38.1813944
  33.0365960  16.3903599  39.3916956  31.0482858  17.0894840  39.7625509
  30.7967346  17.4864331  40.8887065  30.2460963  16.5907931  39.0329556
  34.6800443  18.4235897  39.7536322  35.3870005  17.7615245  40.4470523
  35.1102820  19.1915640  38.7654172  34.4949779  19.7027213  38.1487987
  36.5394869  19.2454432  38.5118598  36.9393009  18.2340750  38.4384962
  36.8246246  19.9788959  37.2034662  36.3512364  19.5050790  36.3435241
  36.4669418  21.0044454  37.2951792  38.2792144  20.0609213  36.8973788
  39.0493497  18.9511511  36.6253442  40.2956750  19.3282127  36.4084509
  41.0616578  18.5923594  36.1637280  40.3662720  20.6377600  36.5445023
  41.1964225  21.2022813  36.4337522  39.1173000  21.1233551  36.8650558
  38.9745637  22.1905413  37.0348829  37.2851451  19.9046802  39.6608286
  38.2552941  19.3329579  40.1786903  36.8670056  21.1146745  40.0528760
  36.1099227  21.6068199  39.6004186  37.6299150  21.8137311  41.0786142
  38.7083847  21.7083145  40.9607594  37.2676943  23.3065435  41.1694573
  37.8526510  23.7841381  41.9554785  37.5868827  23.9727581  39.8140788
  37.0019130  23.4959703  39.0275773  37.3356968  25.0323663  39.8613735
  38.6487471  23.8610408  39.5948476  35.8272508  23.5307209  41.6487318
  35.1490369  23.0168861  40.9674826  35.7232754  23.1110257  42.6493039
  35.4833737  25.0190496  41.6828350  35.5866792  25.4393699  40.6824557
  34.4568580  25.1475368  42.0261364  36.1609197  25.5335101  42.3642759
  37.5006777  21.1010976  42.4228632  38.4722386  21.0391032  43.1848653
  36.3382312  20.5013424  42.7100264  35.5279853  20.6289461  42.1206894
  36.2003959  19.6829265  43.9032451  36.4146256  20.2873549  44.7846480
  34.7614282  19.1678950  44.0009778  34.5349807  18.5533083  43.1297116
  34.6495607  18.5701731  44.9055851  34.0741314  20.0131190  44.0372938
  37.1732355  18.5068732  43.9004660  37.5534060  18.0198594  44.9727859
  37.5547757  18.0157820  42.7183807  37.2063631  18.4051542  41.8540329
  38.4327228  16.8585284  42.6487886  38.2095259  16.1747577  43.4677758
  38.2319081  16.1100542  41.3120239  38.5023658  15.0630439  41.4488499
  37.1834350  16.1790446  41.0221198  39.0433295  16.6794598  40.2932233
  38.9061208  16.2029793  39.4711893  39.9049455  17.1930730  42.8140324
  40.7187448  16.2645633  42.9501107  40.2784930  18.4692862  42.7183712
  39.5727866  19.1836089  42.6096469  41.6732304  18.8711445  42.6986098
  42.2672865  18.1082486  42.1954334  41.8483119  20.2087493  41.9464463
  41.3034959  20.9721948  42.5018072  42.9165932  20.4205941  41.9911328
  41.3876872  20.2142560  40.4854940  40.3895619  19.7798386  40.4295634
  41.3552529  21.6145511  39.9417967  42.3531906  22.0494935  39.9969724
  41.0253383  21.5940271  38.9031264  40.6636666  22.2174380  40.5303000
  42.3794778  19.4228927  39.6865343  42.4197825  18.4016121  40.0652966
  42.0759276  19.4099164  38.6397344  43.3647319  19.8810487  39.7729420
  42.2666310  18.9907573  44.0931644  41.5683379  19.2521268  45.0648082
  43.5886806  18.8118050  44.1754258  44.0975892  18.4365869  43.3878200
  44.3255098  19.1038513  45.3983880  43.6403334  19.4799760  46.1581002
  45.0064776  17.8464308  45.9348567  45.5591282  18.1183555  46.8341528
  44.2324001  17.1225736  46.1896798  45.9620053  17.2315015  44.9179153
  46.6638814  16.2478041  45.2584772  46.0230174  17.7228512  43.7724447
  45.3530900  20.1928009  45.1058445  45.4846646  20.6489207  43.9719411
  46.1178369  20.5718437  46.1351519  45.9400185  20.2180252  47.0642872
  47.1772582  21.5698499  45.9626269  46.7464712  22.5282228  45.6727251
  47.9372463  21.7532172  47.2799160  47.2705543  22.1989196  48.0181370
  48.1754973  20.7316577  47.5761469  49.2173517  22.5677587  47.1968294
  50.4262156  21.9821696  46.8152713  50.4443712  20.9166820  46.5861294
  51.5912251  22.7313572  46.7252714  52.5350312  22.2490890  46.4708127
  51.5567950  24.0838699  46.9847421  52.7189787  24.8179847  46.8775717
  53.4757915  24.2867071  46.6195444  50.3568613  24.7011416  47.3238567
  50.3197112  25.7743931  47.5105424  49.2026404  23.9399125  47.4235832
  48.2571258  24.4152806  47.6845955  48.1434083  21.2319166  44.8409076
  48.6790571  22.1335017  44.1843213  48.3892442  19.9586409  44.6009061
  47.8735122  19.2148298  45.0490856  49.4900865  19.6012117  43.7214179
  50.2851127  20.3439312  43.7877536  50.0527065  18.2458400  44.1404074
  49.3459711  17.4319988  43.9782755  50.9581795  18.0605749  43.5625704
  50.4489082  18.1895153  45.5918090  51.5587267  18.8812810  46.0491680
  52.1413061  19.4734712  45.3434686  51.9312817  18.8281570  47.3808634
  52.8327822  19.3396874  47.7181084  51.1569642  18.1240966  48.2843368
  51.4353933  18.0927860  49.3377109  50.0233635  17.4566557  47.8468701
  49.4028465  16.9056105  48.5535582  49.6807139  17.4921280  46.5060051
  48.7931030  16.9649920  46.1561845  49.1046908  19.5799725  42.2469281
  49.9605843  19.8375729  41.3946381  47.8430942  19.3059936  41.9222212
  47.1431216  19.2542303  42.6484844  47.4417176  19.0004536  40.5492041
  48.2472300  18.5297789  39.9855426  46.2321748  18.0601616  40.5525616
  45.4028088  18.5728812  41.0397689  45.8197697  17.6548169  39.1387474
  46.6485278  17.1415938  38.6510369  44.9587354  16.9882567  39.1879054
  45.5573429  18.5449424  38.5669874  46.5441254  16.8927353  41.3331868
  45.7889172  16.3000853  41.3383618  47.1361689  20.2596645  39.7396030
  46.3748066  21.1313097  40.1827093  47.7167440  20.3390886  38.5429788
  48.3954025  19.6586054  38.2323913  47.3946831  21.4529819  37.6525994
  47.5626236  22.3941944  38.1760631  48.2631842  21.4311797  36.3974530
  49.2968635  21.3058533  36.7197875  47.9597454  20.5663824  35.8074102
  48.1460164  22.6841907  35.5536146  47.1147218  22.7773177  35.2132330
  48.4028134  23.5438505  36.1725995  49.0799128  22.6310528  34.3421779
  50.1070849  22.4962782  34.6810762  48.7966706  21.7958682  33.7016001
  48.9699838  23.9452916  33.5494546  47.9086174  24.1441662  33.4009593
  49.4034448  24.7315650  34.1675038  49.6563054  23.9157645  32.2336949
  49.2545088  23.1875348  31.6606846  49.5415130  24.8077467  31.7740316
  50.6398806  23.7319202  32.3711003  45.9289354  21.3927081  37.2476838
  45.4408887  20.3323502  36.8404509  45.1741416  22.4829539  37.3921706
  45.4717082  23.6660182  38.2139930  46.1648598  24.3143492  37.6779818
  45.9239299  23.3496705  39.1539497  44.1355956  24.2946908  38.4098374
  44.2506918  25.3785618  38.4185378  43.7244157  23.9658248  39.3642375
  43.2717774  23.8459161  37.2729040  43.4118463  24.5174399  36.4258293
  42.2122744  23.7943422  37.5236891  43.7936794  22.4512262  36.9226523
  43.2728981  21.6603160  37.4624172  43.6933518  22.1950098  35.4305861
  44.6154973  22.4644404  34.6522874  42.5493649  21.6515619  35.0333300
  41.8976386  21.2794917  35.7092856  42.2324823  21.5090235  33.6147909
  43.1529418  21.4629720  33.0327834  41.4375862  20.2276459  33.3729839
  41.9368836  19.4157826  33.9018312  40.4438246  20.3782958  33.7946975
  41.3143019  19.8727507  31.9026542  41.5352856  20.7204572  31.0093996
  40.9948044  18.7063655  31.6386219  41.4775324  22.7722007  33.2139781
  40.2485657  22.8087499  33.1490934  42.2487899  23.8501301  32.9870944
  43.2517087  23.8102149  33.0996104  41.6445241  25.1254954  32.6203218
  40.9648227  25.4537883  33.4066608  42.7233029  26.1879192  32.4334905
  43.3082702  25.9327935  31.5498485  42.1699973  27.1087214  32.2488928
  43.6490970  26.3846864  33.6099862  43.2913996  27.2004974  34.6587163
  42.3225947  27.6986274  34.6215265  44.1388576  27.3981811  35.7562713
  43.8617388  28.0529449  36.5824622  45.3586865  26.7058264  35.7886346
  46.2112229  26.8809536  36.8548940  45.8707907  27.4939341  37.5106077
  45.7123513  25.8841524  34.7578867  46.6723107  25.3685534  34.7850152
  44.8627616  25.7042991  33.6857980  45.1370926  25.0216277  32.8815577
  40.8172855  25.0016931  31.3557526  39.7554036  25.6231467  31.2358180
  41.3087927  24.2298681  30.3964718  42.2140990  23.7947134  30.5021141
  40.5869832  24.0235856  29.1544574  40.4205919  24.9772850  28.6535876
  41.4051871  23.1160091  28.2230132  42.4257428  23.4935217  28.1593784
  41.4172883  22.1039188  28.6275212  40.8089768  23.1001165  26.8915081
  41.4543282  22.5002540  26.2498014  39.8149581  22.6541280  26.9250238
  40.6975104  24.4728872  26.3080446  41.7103617  25.1663841  26.1521399
  39.4598112  24.9018902  26.0108050  39.3290350  25.8216507  25.6145228
  38.6655751  24.3027510  26.1849389  39.2107908  23.4110742  29.3849114
  38.2595847  23.7250965  28.6573716  39.1022855  22.4699932  30.3306143
  39.9124575  22.1097226  30.8142731  37.7978684  21.8949736  30.6426075
  37.3519511  21.4730235  29.7419327  37.9475680  20.7804586  31.6830941
  38.6209620  20.0405537  31.2504506  38.4463553  21.2850520  32.5105582
  36.6963466  20.0884123  32.1931932  36.0226915  20.8416369  32.6017791
  36.0020913  19.3422955  31.0881519  36.6750098  18.5885309  30.6793509
  35.1094365  18.8564015  31.4820748  35.7177144  20.0401834  30.3006351
  37.1076362  19.0559867  33.2468707  37.6162179  19.5585422  34.0695992
  36.2201331  18.5484580  33.6248311  37.7797099  18.3250863  32.7972037
  36.8540723  22.9752073  31.1371112  35.7123335  23.0677562  30.6775655
  37.3465738  23.8497931  32.0066760  38.2739477  23.7590747  32.3963519
  36.4851698  24.9229953  32.5071878  35.5294206  24.4935183  32.8075076
  37.1290581  25.6240930  33.7071523  38.0732381  26.0734537  33.3994196
  36.1757278  26.7343038  34.2413231  35.2314392  26.2856150  34.5497026
  36.6374467  27.2306303  35.0948900  35.9902975  27.4645900  33.4536704
  37.3954226  24.6183500  34.8306206  36.4396911  24.4206755  35.3160100
  37.7601102  23.7044223  34.3617513  38.3959173  25.0893134  35.8615201
  38.0316766  26.0030135  36.3311801  38.5263568  24.3182109  36.6207867
  39.3520957  25.2867625  35.3769206  36.1468097  25.8973403  31.3774120
  34.9983970  26.3451512  31.2454092  37.1238627  26.2295572  30.5289632
  38.0791453  25.9273184  30.6561875  36.8209147  27.1146228  29.4062702
  36.4233635  28.0596729  29.7763142  38.0850377  27.3998517  28.5986494
  38.8266997  27.7687923  29.3071123  38.4145618  26.4429856  28.1937778
  37.9226754  28.4151941  27.4496388  38.8794175  28.4677783  26.9300425
  37.1646240  28.0177873  26.7747107  37.4385940  30.0785519  27.9749910
  38.8978458  30.6548043  28.8330170  39.7453983  30.6581380  28.1476393
  38.7267848  31.6655712  29.2034072  39.1121044  29.9924549  29.6717588
  35.7404099  26.5058346  28.5180268  34.7932243  27.1960336  28.1195174
  35.8426976  25.2042139  28.2275827  36.6592925  24.6651406  28.4779266
  34.7904304  24.5490381  27.4335933  34.6155445  25.1138258  26.5178810
  35.2062363  23.1188032  27.0564677  35.3278811  22.5371242  27.9702244
  34.4198509  22.6750729  26.4458931  36.4405508  23.1186896  26.3211869
  36.6794847  22.2162844  26.0971884  33.4241637  24.5394055  28.1244824
  32.4006925  24.5736116  27.4366498  33.3675351  24.5061447  29.4651691
  34.1819040  24.3176785  30.0320758  32.0811807  24.6863753  30.1375634
  31.3225403  23.9562398  29.8556661  32.2564552  24.6484601  31.6680429
  33.1664589  25.1965307  31.9121969  31.0231879  25.2908640  32.4500888
  30.1128345  24.7429961  32.2067815  31.2042017  25.2352164  33.5235123
  30.9087287  26.3339122  32.1550443  32.5354367  23.2224086  32.1115997
  33.4469702  22.8642708  31.6331167  32.6593907  23.1957520  33.1942005
  31.7003884  22.5826278  31.8261601  31.4501991  25.9882556  29.7016517
  30.2635280  26.0427848  29.3454240  32.2390031  27.0682353  29.7473573
  33.1781629  27.0169044  30.1153835  31.7286774  28.3698414  29.3345774
  30.8000519  28.5872745  29.8622864  32.7495348  29.4750065  29.6596946
  33.6736620  29.3445550  29.0966044  32.3047521  30.4380190  29.4089450
  33.1389640  29.5451379  31.1209446  32.2307782  29.1776162  32.1421038
  31.2212063  28.8739734  31.8652183  32.6121394  29.1995405  33.4954604
  31.9119809  28.8798288  34.2672526  33.8959589  29.6338365  33.8506723
  34.1934130  29.6963990  34.8974325  34.7997476  29.9891483  32.8445657
  35.8059234  30.3098241  33.1145238  34.4131767  29.9341733  31.4743713
  35.1274425  30.2010256  30.6954527  31.3774010  28.3732850  27.8573242
  30.2909266  28.8127192  27.4609873  32.2859493  27.8741901  27.0311636
  33.1866638  27.5588550  27.3618847  32.0519485  27.9104838  25.5934236
  31.7370611  28.9100809  25.2938393  33.3241572  27.5576003  24.8438810
  33.7877879  26.6842595  25.3025985  33.0856265  27.3372716  23.8033723
  34.2863049  28.7321321  24.9048460  33.7894428  29.5482949  24.3803395
  34.4347261  29.0087506  25.9486624  35.6110143  28.4644218  24.2676966
  35.9298422  27.2721200  24.0780280  36.3379975  29.4474832  23.9955043
  30.8678556  27.0489800  25.1853523  30.0226192  27.5004369  24.4049338
  30.7379802  25.8443059  25.7589329  31.4552833  25.4500020  26.3506255
  29.5702368  25.0228517  25.4439944  29.4359794  24.9748927  24.3633584
  29.7491988  23.5918843  25.9813006  29.9428536  23.6682100  27.0512405
  28.8375139  23.0172884  25.8176848  30.9244050  22.8486746  25.3204203
  31.2492158  23.0941848  24.1483944  31.5401812  21.9186452  26.0565065
  32.3169533  21.4036342  25.6672912  31.2259748  21.7350281  26.9986635
  28.2841070  25.6586055  25.9688336  27.2454205  25.6023744  25.2985967
  28.3263774  26.2753201  27.1591841  29.1510588  26.2647870  27.7421841
  27.1207064  26.9289675  27.6734782  26.3104037  26.2016824  27.7241263
  27.3494171  27.5075663  29.0778385  28.2183285  28.1649301  29.0467736
  26.4693730  28.0828138  29.3654369  27.5717208  26.4715843  30.0309741
  27.7115093  26.8591438  30.8980707  26.6513808  28.0195155  26.7267241
  25.4415592  28.2061311  26.5251516  27.5932099  28.7518243  26.1303384
  28.5774284  28.6538921  26.3348440  27.1815524  29.7969850  25.2061316
  26.3987552  30.4002183  25.6659550  28.3497916  30.7069657  24.8469086
  29.1465481  30.0919965  24.4284695  28.0097221  31.4202748  24.0961470
  28.8829669  31.4715652  26.0790623  28.1008852  32.1636502  26.3912600
  29.0517877  30.7361040  26.8656361  30.4017299  32.3875019  25.7909914
  31.3999012  31.0725559  25.1401212  30.9352289  30.6755257  24.2375993
  32.3922891  31.4538963  24.8996084  31.4861713  30.2794066  25.8828007
  26.5538727  29.2050922  23.9488122  25.5251864  29.7036078  23.4800950
  27.1530559  28.1446061  23.3987570  27.9950237  27.7492449  23.7923039
  26.6203868  27.5579968  22.1639112  26.5583852  28.3230296  21.3899734
  27.5271286  26.4337446  21.6673217  27.6475427  25.7425950  22.5015351
  26.9895705  25.9372246  20.8594856  28.8934417  26.8708361  21.1716447
  28.7668474  27.5728752  20.3474991  29.4293288  27.3594442  21.9853948
  29.6946924  25.6562628  20.6892934  29.8736151  24.9990553  21.5402717
  29.1052162  25.1275844  19.9402164  31.0212817  26.0734301  20.0857320
  31.4852331  25.1912653  19.6445575  30.8224563  26.8076069  19.3049938
  31.9396004  26.6626925  21.0982351  32.1243068  25.9824001  21.8215507
  32.8075015  26.9250958  20.6532718  31.5100594  27.4803876  21.5068527
  25.2063667  27.0235867  22.3520657  24.3437062  27.2103327  21.4799873
  24.9590276  26.3240178  23.4628809  25.6946726  26.1436012  24.1309944
  23.6263194  25.7950592  23.7407274  23.3712704  25.0315841  23.0057750
  23.5799201  25.1666414  25.1345704  23.8719048  25.9507464  25.8331572
  22.5400424  24.8919268  25.3114501  24.4583272  23.9615885  25.3377804
  24.1456535  23.1789052  24.6465908  25.4842761  24.2542405  25.1144358
  24.3800006  23.4419330  26.7563096  24.1613755  24.2478609  27.6903655
  24.5283435  22.2168518  26.9281799  22.5671859  26.8785078  23.6787242
  21.4128328  26.6074654  23.3343145  22.9363127  28.1016153  24.0301035
  23.9129239  28.2723089  24.2229599  21.9970297  29.1861457  24.2300615
  20.9715645  28.8166683  24.2326672  22.2866962  29.8255625  25.5793893
  23.3514768  29.7255330  25.7899495  22.0250258  30.8823653  25.5265081
  21.5058118  29.1765713  26.6613376  20.4877456  29.5657377  26.6474902
  21.4852878  28.1005435  26.4885805  22.1313757  29.4572597  28.0002311
  23.2127802  29.5413723  27.8925815  21.7337504  30.3873851  28.4062611
  21.8342221  28.3645034  28.9443753  21.0448687  28.5045246  29.5587160
  22.4863571  27.2086494  29.0036083  23.5551440  27.0098737  28.2469024
  23.8725874  27.7396165  27.6249657  24.0477452  26.1294765  28.2953214
  22.1077235  26.2727905  29.8589596  21.3197961  26.4390570  30.4685709
  22.6083855  25.3964979  29.8982969  22.0222729  30.2167075  23.1196327
  21.2823717  31.1994335  23.1965348  22.8308259  29.9979779  22.0801244
  23.3717838  29.1456859  22.0475342  22.9660302  30.9383337  20.9889683
  23.4519525  30.4126576  20.1669930  21.9603137  31.2316423  20.6879637
  23.7605032  32.1765341  21.3172019  23.7301757  33.1341817  20.5484650
  24.4887220  32.1866916  22.4310332  24.5450124  31.3559732  23.0027304
  25.1712885  33.3923036  22.8926006  24.5768443  34.2896556  22.7208605
  25.5206799  33.2882761  24.3825151  26.0501524  32.3521027  24.5595424
  26.4055787  34.4611950  24.8037244  25.8765661  35.3977636  24.6274140
  26.6453707  34.3738769  25.8634301  27.3267486  34.4495850  24.2211350
  24.2461864  33.2072883  25.2145286  23.8644387  34.2206730  25.3387095
  23.5220858  32.6124996  24.6577484  24.4678839  32.5938379  26.5518108
  25.1915734  33.1883750  27.1093939  23.5255012  32.5628921  27.0986715
  24.8492230  31.5802018  26.4284325  26.4231122  33.6321984  22.0659393
  27.2819514  32.7525194  21.9472628  26.5273753  34.8368409  21.5055121
  25.7814885  35.4943143  21.6829411  27.6154091  35.2476007  20.6318188
  28.1616394  34.3657662  20.2970063  27.0706254  35.9822024  19.4023310
  26.5288013  36.8726970  19.7209940  27.8985737  36.2732064  18.7558649
  26.3964284  35.3239921  18.8543193  28.5974955  36.1468057  21.3772446
  28.2137629  36.9418088  22.2421835  29.8720709  36.0247171  21.0060010
  30.1108845  35.3862808  20.2607047  30.9510720  36.7336487  21.6802047
  30.8932968  36.5797144  22.7577321  32.2985861  36.1944892  21.1791040
  32.2126643  35.1079822  21.1939094  32.3956902  36.5367514  20.1487995
  33.5371128  36.6200246  21.9777512  34.3979253  36.1012669  21.5558590
  33.6572698  37.6944768  21.8391373  33.4358107  36.3079888  23.4678292
  33.5506764  35.1203987  23.8507296  33.2461147  37.2515625  24.2652883
  30.8782812  38.2452614  21.4823422  31.4611493  38.9869495  22.2773475
  30.1725214  38.7297916  20.4617083  29.7169414  38.1034118  19.8134840
  30.0907467  40.1651773  20.2102851  30.8977129  40.6759196  20.7356869
  30.2159262  40.4629613  18.7132965  30.2592446  41.5403560  18.5537867
  31.1437526  40.0073786  18.3673448  29.0590375  39.8949179  17.8954473
  28.0951167  39.3461889  18.4399059  29.1396625  40.0557293  16.5706982
  28.4040980  39.7010869  15.9763301  29.9357685  40.5311271  16.1703071
  28.8090255  40.8049098  20.7382443  28.5055801  41.9429030  20.3667846
  28.0346019  40.0933347  21.5504899  28.2421113  39.1229930  21.7388412
  26.8431973  40.6736802  22.1525241  26.1905505  41.0745796  21.3770042
  26.0739179  39.6015358  22.9346146  26.8129364  38.9578932  23.4117678
  25.4923887  40.1155913  23.6999059  25.1411609  38.7525603  22.0708183
  24.3248140  39.3797759  21.7126574  25.7390435  38.4164619  21.2236621
  24.5717078  37.5476547  22.7975470  24.4143563  36.5051812  22.1223534
  24.3178807  37.6312309  24.0342296  27.2106944  41.8326607  23.0697073
  28.2842276  41.8605253  23.6711107  26.3033252  42.7927354  23.1813574
  25.4932124  42.8348810  22.5796596  26.4723893  43.8339644  24.1858157
  27.3933175  44.3887888  24.0064825  25.2997085  44.8091981  24.1443682
  24.3711431  44.2698309  24.3313152  25.4353126  45.5740064  24.9090773
  25.2537229  45.2814472  23.1630602  26.5596839  43.2153143  25.5715627
  25.8619781  42.2452097  25.8820166  27.4312911  43.7783375  26.4094934
  28.1369066  44.4115287  26.0612477  27.4058934  43.4925532  27.8271119
  27.2746743  42.4216722  27.9823360  28.7178571  43.9283730  28.4963789
  29.0287961  44.8609932  28.0255968  28.5949342  44.0861973  29.5678645
  29.8751402  42.9480991  28.3294746  29.8793357  41.7220463  28.9879902
  29.0251023  41.4646740  29.6142048  30.9462160  40.8291359  28.8604936
  30.9122704  39.8711870  29.3794179  32.0414365  41.1550260  28.0810260
  32.8751697  40.4609785  27.9747853  32.0719687  42.3964358  27.4221258
  32.9300814  42.6717794  26.8089955  30.9855970  43.2878936  27.5569007
  31.0083152  44.2546963  27.0540326  26.2325519  44.2399102  28.4579535
  25.7653713  45.2494596  27.9287632  25.7747141  43.7498351  29.6182827
  26.2316207  42.9621437  30.0551784  24.5679766  44.2948350  30.2534015
  23.7038102  44.1161346  29.6135721  24.3197974  43.6269887  31.6086016
  25.2493682  43.7256274  32.1691976  23.5215889  44.1507334  32.1345815
  23.9669002  42.1823233  31.4812462  23.6285281  41.7649559  30.3569981
  23.9857086  41.4785440  32.5011726  24.6178908  45.8032235  30.4449181
  23.6020457  46.4893370  30.2774783  25.7721825  46.3334618  30.8213819
  26.5776632  45.7368963  30.9455184  25.9159851  47.7605381  31.1060397
  25.0416739  48.1155389  31.6516161  27.1569773  48.0209770  31.9521219
  27.3646826  49.0900142  31.9981353  27.0141769  47.6353444  32.9615749
  28.3943052  47.3662456  31.4137099  29.2444890  47.8496448  30.4555838
  29.0028052  48.8168602  30.0149217  30.2724314  46.9546510  30.2521102
  31.0506102  47.0927475  29.6232489  30.0788998  45.8515171  31.0563410
  30.8377178  44.6830945  31.1827808  31.7373063  44.5718313  30.5774215
  30.3875618  43.7321206  32.0825063  30.9511463  42.8087318  32.2160187
  29.2268506  43.9272968  32.8246531  28.8851517  43.1659505  33.5258614
  28.4694933  45.0873829  32.7000492  27.5219804  45.1514740  33.2350374
  28.9191458  46.0844595  31.8172440  26.0044975  48.6070689  29.8553163
  26.0104877  49.8370630  29.9696821  26.0789761  47.9907643  28.6850532
  26.1552360  46.9844089  28.6459039  26.1159667  48.7360692  27.4323692
  26.6240457  49.6898776  27.5745119  26.8796893  47.9266252  26.3787292
  26.4404190  46.9304349  26.3263293  26.7667926  48.4240561  25.4154447
  28.3904641  47.8088355  26.7269002  28.8428357  48.7915865  26.5940051
  28.4704641  47.5109764  27.7723566  29.1196428  46.7890124  25.8490025
  28.4624691  46.0642390  25.0989590  30.3613749  46.7049501  25.9025934
  24.6833454  49.0390176  26.9972653  23.8114354  48.1659627  27.0416511
  24.4356679  50.2821102  26.6120191  25.1684518  50.9737063  26.5425782
  23.0609380  50.7036083  26.3641278  22.3678503  49.9132111  26.6522264
  22.7458399  51.9568071  27.1900931  21.6796693  52.1464794  27.0659810
  22.9499419  51.6991166  28.2293419  23.5288896  53.2038019  26.8146065
  24.5942661  53.0117873  26.9419027  23.3274535  53.4554154  25.7733495
  23.1131330  54.3642583  27.7058766  22.0373238  54.5044709  27.6006440
  23.3453710  54.0999409  28.7375263  23.8288196  55.6515773  27.3404978
  24.9002103  55.4951436  27.4660009  23.6150629  55.8774885  26.2958106
  23.3886604  56.7950560  28.1975149  23.5870366  56.5861045  29.1655468
  23.8856548  57.6309576  27.9248153  22.3959905  56.9404518  28.0810430
  22.7606548  50.9475963  24.8840353  23.5629053  51.5240413  24.1528669
  21.7140372  50.5406959  24.3845722  44.2485545  49.1602892  40.1612539
  43.1322820  49.4077448  41.1402848  41.9261935  49.9668680  40.6766796
  40.8478643  50.2086721  41.5410354  39.6090150  50.8214139  41.0168846
  39.7496311  52.1760142  40.7407813  38.6739532  52.8684878  40.2478549
  38.8545921  54.2288770  39.9972400  37.7999368  54.9917678  39.4925037
  36.5636480  54.3946062  39.2374348  36.3850908  53.0355222  39.4863285
  35.1507751  52.5145775  39.2130091  37.4412868  52.2732945  39.9928499
  37.2959340  50.8430668  40.2692034  36.2423469  50.2438939  40.0633491
  38.4732007  50.1266360  40.8116350  38.3302097  48.7738779  41.0560529
  40.9968333  49.8946472  42.8954027  42.1866806  49.3370712  43.3713296
  43.2649744  49.0826047  42.5077867  44.5377917  48.4760517  43.0597020
  45.6296990  49.2642697  42.8597626  44.8506510  47.2684167  42.5066779
  44.4739050  48.2558644  44.4038248  43.8589542  48.6104746  39.2917497
  44.6656875  50.1221004  39.8299411  45.0366345  48.5660005  40.6468874
  41.8273567  50.2204096  39.6112943  39.8277357  54.7003941  40.1978199
  37.9429114  56.0641095  39.2951245  35.7318724  54.9957887  38.8412897
  34.5235082  52.4100325  39.9018796  38.8964728  48.3459481  41.6679680
  40.1691925  50.0879493  43.5933496  42.2800887  49.0939290  44.4397779
  63.4708550  30.4618021  32.6603036  11.8219732  37.1598372  56.1954868
  52.8135026  76.6717314  20.7855012  35.6266097  16.8168735  63.0250872
  43.9094418   5.7523039  66.9750339  57.5905592  22.8146584  33.3307808
  28.9686381  50.4260733   3.7042918  16.9014085  76.0552416  53.5442986
  76.6091686  38.9126006  48.9879055  66.8021833  33.8697989  39.4664730
  20.6265638   4.9028059  39.2282923  39.4057891  81.6251936  15.2448662
  48.4870146  31.9207247  87.2879927  47.8358125  32.5061327  86.9013941
  49.2814508  32.4513442  87.3474964  54.7536869  28.4132183  88.5484764
  53.9766312  28.0743342  88.1039926  55.4328350  28.4184806  87.8739729
  46.1587931  27.5097354  83.0919298  45.2514992  27.2786607  83.2910447
  46.6558963  26.7134973  83.2793280  49.0656009  36.2194861  86.0115985
  48.3917708  36.5226558  86.6200942  49.4521831  37.0223941  85.6621442
  47.0352252  29.1518692  84.9531367  46.5971682  28.4354551  84.4937004
  47.7762693  29.3794807  84.3916458  47.2647225  36.3874533  88.2263064
  47.4398980  35.9162576  89.0408686  46.5780013  37.0140299  88.4544324
  51.1563479  28.0103074  84.5463425  50.5392650  27.2849902  84.4496477
  50.6879968  28.7712434  84.2030499  51.9801165  31.3342246  88.6656064
  52.2561009  31.2198840  89.5749938  51.1105663  30.9359731  88.6268238
  48.9497394  34.5096782  89.5703927  49.4785161  33.9989236  88.9574089
  49.2125614  34.1939312  90.4349460  52.0437578  34.4813580  90.1858910
  52.2174455  33.9160002  89.4332762  52.5366469  35.2814475  90.0038399
  53.0312750  33.7980344  87.2855808  53.7263655  34.4187037  87.5043122
  53.3735900  32.9475696  87.5608186  54.9304173  31.2480050  88.8143139
  55.4555497  31.5867323  88.0892459  54.8426526  30.3127065  88.6306273
  47.1227619  33.9042096  86.1930901  46.5501586  34.5232283  85.7401373
  47.6960412  34.4541458  86.7270823  50.3424878  34.1879246  87.3239484
  51.2755552  34.1224808  87.5272359  50.2548091  35.0235513  86.8654016
  52.9712895  33.5045116  84.2843431  52.8926527  33.1704980  85.1779189
  53.7922562  33.9966884  84.2834904  47.5074417  25.2402909  83.5346954
  48.4533522  25.1109117  83.6035372  47.1288662  24.5017571  84.0116382
  50.5416847  30.8213112  83.9053410  51.2452697  31.0263114  84.5211065
  49.8179496  31.3889874  84.1702493  52.4503544  31.2595641  85.9551870
  53.2849148  30.8276840  85.7729344  52.2887887  31.0877655  86.8828764
  52.1049436  27.7627754  87.3208209  52.0498240  27.5972026  86.3796653
  51.4795492  28.4703787  87.4770399  55.5885805  40.4980968  85.3185511
  55.8411326  39.9762489  84.5568974  54.6510364  40.3347113  85.4212195
  57.2919122  36.8909120  86.2217924  57.4593524  37.7589357  86.5888395
  57.1016291  37.0536402  85.2979213  53.9117400  37.7133188  86.4686822
  53.0754712  38.0507875  86.7896097  53.7722169  37.5782168  85.5313959
  55.8870480  32.5569976  91.1766006  55.2334893  32.2418993  90.5522621
  55.8450954  31.9345717  91.9025829  56.9981685  42.8389271  83.0919298
  56.0908747  42.6078525  83.2910447  57.4952717  42.0426891  83.2793280
  51.2404315  40.1871414  89.2799443  50.3101903  40.1255870  89.4969405
  51.3361787  39.6647367  88.4836084  53.7855780  37.5580416  83.6684729
  52.9085246  37.4369217  83.3046976  54.2613533  36.7666494  83.4163618
  48.5134474  39.1522271  89.1097635  48.8087915  38.2432949  89.0564688
  47.6122509  39.1310010  88.7878637  50.2422315  36.8336369  89.2336960
  49.9135021  35.9533748  89.0512066  50.5961686  36.7784037  90.1213349
  55.3432286  35.6183960  87.8005730  56.0640648  35.9965213  87.2969447
  54.7197590  36.3372837  87.9040708  55.4895909  35.1531751  90.6303267
  55.6111820  34.2248397  90.8294154  55.1997951  35.1670436  89.7181582
  51.4874248  38.4979418  87.2266384  50.7943493  38.5723773  86.5706420
  51.2426000  37.7339762  87.7487901  58.3468172  40.5694826  83.5346954
  59.2927276  40.4401035  83.6035372  57.9682417  39.8309488  84.0116382
  56.5311089  38.4944803  83.4701839  55.6242544  38.1977915  83.5464553
  56.8087070  38.1974621  82.6036125  55.3009873  35.3531738  83.6113818
  56.1629037  35.6786636  83.8709636  55.4860218  34.5663234  83.0986884
  56.2539316  32.5927781  86.8993527  56.2417986  33.5369621  87.0561798
  57.1462738  32.4097926  86.6052988  48.4870147   8.9269369  74.0125234
  47.8358127   9.5123450  73.6259247  49.2814510   9.4575564  74.0720271
  54.7536871   5.4194305  75.2730070  53.9766314   5.0805465  74.8285232
  55.4328352   5.4246928  74.5985035  46.1587932   4.5159476  69.8164605
  45.2514994   4.2848730  70.0155754  46.6558964   3.7197095  70.0038587
  49.0656011  13.2256983  72.7361291  48.3917709  13.5288680  73.3446249
  49.4521833  14.0286064  72.3866748  47.0352253   6.1580815  71.6776674
  46.5971683   5.4416674  71.2182311  47.7762694   6.3856930  71.1161765
  47.2647226  13.3936656  74.9508370  47.4398982  12.9224699  75.7653993
  46.5780014  14.0202422  75.1789631  51.1563481   5.0165196  71.2708731
  50.5392651   4.2912025  71.1741784  50.6879969   5.7774557  70.9275806
  51.9801166   8.3404368  75.3901371  52.2561010   8.2260963  76.2995245
  51.1105665   7.9421853  75.3513544  48.9497395  11.5158904  76.2949233
  49.4785162  11.0051359  75.6819395  49.2125615  11.2001434  77.1594766
  52.0437579  11.4875702  76.9104216  52.2174456  10.9222125  76.1578069
  52.5366470  12.2876597  76.7283706  53.0312751  10.8042467  74.0101114
  53.7263656  11.4249160  74.2288429  53.3735902   9.9537818  74.2853492
  54.9304175   8.2542172  75.5388445  55.4555499   8.5929445  74.8137765
  54.8426527   7.3189188  75.3551580  47.1227620  10.9104219  72.9176208
  46.5501587  11.5294406  72.4646680  47.6960414  11.4603580  73.4516130
  50.3424880  11.1941369  74.0484790  51.2755553  11.1286930  74.2517666
  50.2548092  12.0297636  73.5899323  52.9712896  10.5107239  71.0088738
  52.8926528  10.1767103  71.9024496  53.7922563  11.0029007  71.0080210
  47.5074418   2.2465031  70.2592260  48.4533523   2.1171239  70.3280679
  47.1288663   1.5079693  70.7361689  50.5416848   7.8275234  70.6298716
  51.2452698   8.0325237  71.2456372  49.8179497   8.3951996  70.8947800
  52.4503546   8.2657764  72.6797176  53.2849149   7.8338962  72.4974651
  52.2887888   8.0939777  73.6074071  52.1049438   4.7689877  74.0453516
  52.0498241   4.6034148  73.1041960  51.4795493   5.4765910  74.2015705
  53.7464343  20.5890319  78.7010769  53.1829208  20.4980256  77.9327056
  53.6316738  19.7690224  79.1813261  51.2928775  22.0841511  81.5394989
  52.0850066  21.7432336  81.1241288  51.5325425  22.1936486  82.4597142
  59.3263901  24.2561287  74.0125234  58.6751881  24.8415367  73.6259247
  60.1208264  24.7867482  74.0720271  53.2519528  21.3450424  74.4112368
  54.0250404  20.7979411  74.2725244  53.6044927  22.2094673  74.6226829
  55.5885806  17.5043090  72.0430818  55.8411327  16.9824612  71.2814281
  54.6510365  17.3409236  72.1457501  60.8039166  21.9451719  74.5494218
  60.1684999  22.0186345  75.2615122  60.4736573  22.5345318  73.8713297
  55.3082095  19.4071196  74.2455193  55.1918353  18.7316100  74.9136277
  55.4184355  18.9203570  73.4287346  57.6513636  18.8681343  77.9501882
  57.2871843  18.3411964  78.6614803  58.5080752  18.4779812  77.7768367
  57.2919123  13.8971243  72.9463230  57.4593525  14.7651479  73.3133702
  57.1016292  14.0598525  72.0224520  53.5006938  18.8102019  80.6465765
  52.5757434  18.6778233  80.8543457  53.7491351  19.5896238  81.1435708
  57.2708344  16.3528900  73.9309897  57.1507969  16.7985951  74.7695378
  56.5760932  16.7014218  73.3723435  50.8615749  18.4535292  81.4809554
  50.9908130  18.7069771  82.3948966  50.1813200  19.0463000  81.1614209
  55.0315236  29.1232542  77.5800029  54.9539266  30.0740367  77.6588509
  54.4276879  28.7778415  78.2374955  62.9693410  16.8250374  74.7590231
  63.8811266  17.0577760  74.5837929  62.4603057  17.4087418  74.1965310
  57.1290954  21.5450600  79.4153898  57.5929300  21.8238303  78.6258520
  56.8647752  20.6434045  79.2326989  54.0215035  21.0922082  82.3533661
  54.5916392  21.5209350  81.7151146  54.6123147  20.8104666  83.0517847
  56.0659840  17.6673753  76.2243463  56.7683884  18.1194796  76.6917389
  55.7340469  17.0257571  76.8523356  51.7599920  16.2901884  78.4844073
  50.9631083  16.4020579  79.0027569  51.5325512  16.6288537  77.6184964
  57.3053605  24.4814695  76.3005568  57.1699280  25.3266231  76.7290416
  57.8463417  24.6833973  75.5371502  50.7583002  21.9990133  76.8733493
  51.2707523  22.7933383  77.0239058  51.4105715  21.3016424  76.8067095
  52.5677887  25.1155890  78.9556247  52.7444515  26.0373854  78.7677230
  53.3634720  24.8014309  79.3850626  53.6909202  26.6334063  84.9566589
  54.2416628  26.5051127  84.1843583  52.8520678  26.9328952  84.6061482
  48.7231919  20.3278788  77.6493064  49.5607141  20.7375796  77.4326772
  48.9010187  19.3878230  77.6193258  60.6196351  17.9953868  73.3376897
  60.1042975  18.7658473  73.5765284  60.3473660  17.3219004  73.9609958
  58.2043462  12.8403569  78.3962135  57.3485058  12.4510419  78.2167774
  58.6170414  12.9195530  77.5361921  65.5930625  20.7486223  75.2730070
  64.8160068  20.4097382  74.8285232  66.2722106  20.7538846  74.5985035
  60.4082654  15.8680960  75.1636678  60.1032790  16.1827109  76.0146821
  61.3613096  15.9462380  75.2064011  58.8529086  22.0271184  76.8129632
  58.3250448  21.2923943  76.5002869  58.3516589  22.8045860  76.5669600
  53.5847814  12.6890850  79.1736244  54.1591566  12.4666031  78.4409436
  54.1718796  12.7579544  79.9264845  53.9117401  14.7195311  73.1932129
  53.0754713  15.0569997  73.5141404  53.7722170  14.5844291  72.2559266
  55.8870481   9.5632099  77.9011313  55.2334894   9.2481116  77.2767928
  55.8450956   8.9407839  78.6271136  56.9981686  19.8451394  69.8164605
  56.0908748  19.6140647  70.0155754  57.4952718  19.0489013  70.0038587
  59.9049765  28.5548901  72.7361291  59.2311464  28.8580598  73.3446249
  60.2915587  29.3577981  72.3866748  59.9043270  17.4505448  77.3561641
  60.6515089  17.9626845  77.0468763  60.1734859  17.1289501  78.2166034
  58.1769920  19.9463989  74.3388595  57.2681139  19.6623022  74.4361065
  58.2065004  20.3663067  73.4791902  63.4089187  23.5570578  78.1079763
  62.9551514  22.7161488  78.1644953  62.7783154  24.1931977  78.4454543
  61.8522126  25.3947075  79.0429581  62.1445101  25.9552132  78.3241946
  62.3620747  25.6875636  79.7982740  48.7458090  17.6669503  78.3203797
  48.5482490  17.0738864  77.5954864  48.1904754  17.3621713  79.0379736
  56.7254814  17.5592609  80.4398391  56.7803424  16.6066446  80.3640867
  55.9146016  17.7152048  80.9239689  57.8746008  21.4872732  71.6776674
  57.4365437  20.7708591  71.2182311  58.6156448  21.7148847  71.1161765
  54.6647174  16.1769669  78.1988769  53.8515039  16.4763840  78.6053962
  55.1606168  15.7825358  78.9163252  56.8155752  26.1727426  80.1323034
  56.7731930  26.3988272  79.2031566  57.7318450  25.9390801  80.2808835
  54.9321552  23.0490455  79.9284997  55.7262151  22.5540775  79.7267572
  54.2213245  22.5208318  79.5652702  59.7516397  25.4308551  84.2797364
  59.8053419  25.9999487  85.0475080  58.8831178  25.6010436  83.9151402
  51.2404316  17.1933537  76.0044749  50.3101904  17.1317992  76.2214712
  51.3361788  16.6709490  75.2081391  51.1589865  13.7188350  78.5922991
  51.4196682  14.6333683  78.4832152  51.9807037  13.2512792  78.7419604
  57.5092828  23.6219477  83.6082834  57.3703914  23.2538261  84.4808772
  56.7207425  24.1367116  83.4366792  58.1040980  28.7228573  74.9508370
  58.2792736  28.2516617  75.7653993  57.4173768  29.3494340  75.1789631
  59.0598044  23.0001080  80.9971672  58.7247876  22.9601850  81.8929322
  58.5601989  22.3345796  80.5242082  61.9957235  20.3457114  71.2708731
  61.3786406  19.6203942  71.1741784  61.5273724  21.1066474  70.9275806
  52.6702066  31.8717936  81.7248231  52.9098664  32.5036460  82.4027249
  51.8271262  31.5205976  82.0113590  53.7855781  14.5642538  70.3930036
  52.9085247  14.4431339  70.0292282  54.2613534  13.7728617  70.1408924
  45.3057921  19.3519698  80.4871543  45.9928961  19.0381428  79.8992558
  45.1506050  20.2561063  80.2138794  57.1829927  27.6797059  84.1289735
  57.1100099  28.4852030  84.6409039  56.7407321  27.8789025  83.3037756
  56.9719707  26.9168829  77.6392556  56.1887229  27.4590509  77.7330781
  57.6712452  27.4342808  78.0386797  59.6428611  27.5783893  86.2847893
  60.3556583  28.2131358  86.2123795  59.1518640  27.6747759  85.4687895
  61.3646138  21.4835145  77.8565185  60.4302417  21.6036608  77.6869889
  61.5422806  20.5807612  77.5925195  56.8651326  14.8680841  80.0098446
  56.4949114  14.3151882  80.6979352  57.3610418  14.2638975  79.4573446
  54.6940525  25.3278336  87.1053464  55.3949984  25.9614819  87.2582858
  54.2235640  25.6693068  86.3449103  62.8194920  23.6696286  75.3901371
  63.0954764  23.5552881  76.2995245  61.9499419  23.2713771  75.3513544
  59.4548984  27.9182637  79.0334185  59.6371379  27.1004293  79.4961937
  60.2781970  28.1350329  78.5959075  59.7891150  26.8450822  76.2949233
  60.3178916  26.3343277  75.6819395  60.0519369  26.5293352  77.1594766
  50.2908243  24.8614691  84.0384567  50.8761679  24.1158379  84.1712471
  50.0933081  25.1718648  84.9221231  53.1446898  27.8965939  79.0547009
  52.4757273  28.3812066  78.5711049  53.0059768  28.1435159  79.9690388
  57.2852166  29.9309682  85.6529667  57.8370474  30.0941304  86.4178753
  57.6258360  30.5214120  84.9809692  48.5134475  16.1584394  75.8342941
  48.8087916  15.2495072  75.7809995  47.6122511  16.1372133  75.5123944
  60.4220554  27.8791658  82.6393350  60.2971693  27.0781398  82.1304295
  61.0799645  28.3737851  82.1507320  50.2422317  13.8398491  75.9582266
  49.9135023  12.9595870  75.7757372  50.5961687  13.7846160  76.8458656
  59.4901895  25.4753394  80.4677252  59.3426858  24.5470101  80.6484822
  60.3155389  25.4973485  79.9834327  53.3564140  14.1271461  76.3257744
  53.6960212  14.6557382  75.6036352  53.8036260  14.4651867  77.1016311
  63.0936017  26.2981953  81.5542125  64.0182565  26.0924814  81.4166576
  62.9251321  26.0498354  82.4631466  55.3432287  12.6246083  74.5251037
  56.0640649  13.0027335  74.0214754  54.7197591  13.3434959  74.6286015
  59.4863410  13.3291232  75.4609369  59.7027024  14.2115869  75.1598197
  59.0057477  12.9377445  74.7315011  62.8831333  26.8167620  76.9104216
  63.0568211  26.2514043  76.1578069  63.3760225  27.6168515  76.7283706
  55.4895910  12.1593873  77.3548573  55.6111821  11.2310519  77.5539461
  55.1997952  12.1732559  76.4426889  63.8706506  26.1334385  74.0101114
  64.5657411  26.7541077  74.2288429  64.2129656  25.2829736  74.2853492
  65.7697929  23.5834090  75.5388445  66.2949253  23.9221363  74.8137765
  65.6820282  22.6481105  75.3551580  57.4538590  29.6506073  79.8983698
  57.0143580  29.1582452  80.5916555  58.2046707  29.1079041  79.6575774
  49.9330929  25.8417614  79.9008326  50.7588949  25.5421386  79.5206970
  49.5824981  25.0725237  80.3498115  54.9012462  25.1944082  81.9706000
  54.2792471  24.5314787  81.6708228  55.5717329  25.2205214  81.2879648
  48.1339534  23.7603941  80.8597260  47.2971442  23.3326115  80.6781261
  48.1063179  23.9536384  81.7968051  54.4625969  23.7448006  75.4464461
  54.6114089  24.4283470  74.7931133  55.2692412  23.7253096  75.9613916
  52.2178602  19.7713183  76.4525529  51.9724644  18.8675513  76.6505740
  52.3874516  19.7730334  75.5105007  51.4874249  15.5041541  73.9511691
  50.7943494  15.5785896  73.2951727  51.2426001  14.7401885  74.4733208
  57.9621374  26.2396136  72.9176208  57.3895341  26.8586323  72.4646680
  58.5354168  26.7895498  73.4516130  61.1818634  26.5233286  74.0484790
  62.1149307  26.4578848  74.2517666  61.0941847  27.3589553  73.5899323
  63.8106651  25.8399157  71.0088738  63.7320282  25.5059020  71.9024496
  64.6316318  26.3320925  71.0080210  58.3468173  17.5756949  70.2592260
  59.2927278  17.4463157  70.3280679  57.9682418  16.8371611  70.7361689
  56.5311090  15.5006925  70.1947146  55.6242545  15.2040038  70.2709859
  56.8087071  15.2036743  69.3281432  55.3009875  12.3593861  70.3359125
  56.1629039  12.6848759  70.5954942  55.4860219  11.5725357  69.8232191
  49.2314033  20.3734454  80.4905329  49.2084721  20.4722141  79.5387212
  49.5414669  21.2199605  80.8122495  50.2451640  27.9730229  81.6222141
  50.1106108  27.2130629  81.0560139  49.8283702  28.6971128  81.1550930
  61.3810603  23.1567152  70.6298716  62.0846453  23.3617155  71.2456372
  60.6573251  23.7243914  70.8947800  62.2108413  18.9077013  76.7500986
  62.1543614  19.3645565  75.9108619  62.7636755  18.1467698  76.5723829
  53.4020765  28.8699546  81.8340584  53.2853150  29.8144978  81.7319274
  52.5813212  28.5673107  82.2226383  63.2897300  23.5949681  72.6797176
  64.1242904  23.1630880  72.4974651  63.1281643  23.4231695  73.6074071
  62.9443192  20.0981795  74.0453516  62.8891996  19.9326066  73.1041960
  62.3189247  20.8057828  74.2015705  56.2539318   9.5989904  73.6238834
  56.2417987  10.5431744  73.7807105  57.1462740   9.4160049  73.3298295
  54.4275280  29.5227807  85.0496512  55.3302526  29.5551418  85.3663007
  54.2012650  28.5928258  85.0642848  56.1828882  28.2758794  81.7106591
  55.2324513  28.2760656  81.5970963  56.4861368  27.5291529  81.1942625
  64.5858097  35.9182237  78.7010769  64.0222962  35.8272174  77.9327056
  64.4710492  35.0982141  79.1813261  62.1322529  37.4133429  81.5394989
  62.9243821  37.0724253  81.1241288  62.3719179  37.5228404  82.4597142
  70.1657656  39.5853205  74.0125234  69.5145636  40.1707285  73.6259247
  70.9602019  40.1159400  74.0720271  64.0913283  36.6742342  74.4112368
  64.8644159  36.1271329  74.2725244  64.4438682  37.5386591  74.6226829
  66.4279561  32.8335008  72.0430818  66.6805081  32.3116529  71.2814281
  65.4904120  32.6701153  72.1457501  71.6432921  37.2743637  74.5494218
  71.0078754  37.3478263  75.2615122  71.3130327  37.8637235  73.8713297
  66.1475850  34.7363114  74.2455193  66.0312108  34.0608017  74.9136277
  66.2578109  34.2495488  73.4287346  68.4907390  34.1973261  77.9501882
  68.1265598  33.6703882  78.6614803  69.3474506  33.8071730  77.7768367
  68.1312877  29.2263161  72.9463230  68.2987280  30.0943397  73.3133702
  67.9410046  29.3890442  72.0224520  64.3400692  34.1393936  80.6465765
  63.4151189  34.0070151  80.8543457  64.5885105  34.9188156  81.1435708
  68.1102098  31.6820818  73.9309897  67.9901723  32.1277869  74.7695378
  67.4154687  32.0306136  73.3723435  61.7009503  33.7827210  81.4809554
  61.8301884  34.0361689  82.3948966  61.0206954  34.3754918  81.1614209
  65.8708990  44.4524460  77.5800029  65.7933020  45.4032285  77.6588509
  65.2670634  44.1070332  78.2374955  73.8087164  32.1542291  74.7590231
  74.7205021  32.3869678  74.5837929  73.2996812  32.7379336  74.1965310
  67.9684709  36.8742518  79.4153898  68.4323054  37.1530221  78.6258520
  67.7041507  35.9725962  79.2326989  64.8608790  36.4213999  82.3533661
  65.4310147  36.8501268  81.7151146  65.4516902  36.1396584  83.0517847
  66.9053595  32.9965670  76.2243463  67.6077638  33.4486714  76.6917389
  66.5734223  32.3549489  76.8523356  60.6478929  31.2549223  81.5260597
  59.8577983  31.5106751  81.0500707  61.1390176  32.0697561  81.6312637
  62.5993674  31.6193802  78.4844073  61.8024837  31.7312496  79.0027569
  62.3719266  31.9580454  77.6184964  58.9316632  31.5079713  83.9575587
  59.1824670  32.3926723  84.2233163  59.4676180  31.3284315  83.1850679
  68.1447359  39.8106613  76.3005568  68.0093034  40.6558149  76.7290416
  68.6857172  40.0125891  75.5371502  61.5976757  37.3282051  76.8733493
  62.1101277  38.1225301  77.0239058  62.2499470  36.6308341  76.8067095
  63.4071641  40.4447807  78.9556247  63.5838270  41.3665772  78.7677230
  64.2028475  40.1306226  79.3850626  59.5625673  35.6570705  77.6493064
  60.4000895  36.0667714  77.4326772  59.7403941  34.7170147  77.6193258
  71.4590106  33.3245786  73.3376897  70.9436729  34.0950391  73.5765284
  71.1867414  32.6510922  73.9609958  69.0437217  28.1695487  78.3962135
  68.1878813  27.7802337  78.2167774  69.4564168  28.2487447  77.5361921
  76.4324380  36.0778141  75.2730070  75.6553823  35.7389300  74.8285232
  77.1115861  36.0830764  74.5985035  71.2476409  31.1972878  75.1636678
  70.9426544  31.5119027  76.0146821  72.2006851  31.2754298  75.2064011
  69.6922841  37.3563101  76.8129632  69.1644202  36.6215861  76.5002869
  69.1910343  38.1337778  76.5669600  64.4241568  28.0182768  79.1736244
  64.9985320  27.7957949  78.4409436  65.0112551  28.0871462  79.9264845
  64.7511155  30.0487229  73.1932129  63.9148468  30.3861915  73.5141404
  64.6115925  29.9136208  72.2559266  66.7264236  24.8924016  77.9011313
  66.0728648  24.5773034  77.2767928  66.6844710  24.2699757  78.6271136
  67.8375441  35.1743312  69.8164605  66.9302503  34.9432565  70.0155754
  68.3346473  34.3780931  70.0038587  70.7443520  43.8840819  72.7361291
  70.0705218  44.1872515  73.3446249  71.1309342  44.6869899  72.3866748
  70.7437024  32.7797366  77.3561641  71.4908843  33.2918763  77.0468763
  71.0128614  32.4581418  78.2166034  69.0163674  35.2755906  74.3388595
  68.1074893  34.9914939  74.4361065  69.0458758  35.6954985  73.4791902
  74.2482942  38.8862496  78.1079763  73.7945269  38.0453406  78.1644953
  73.6176908  39.5223894  78.4454543  72.6915881  40.7238993  79.0429581
  72.9838855  41.2844050  78.3241946  73.2014501  41.0167554  79.7982740
  59.5851845  32.9961421  78.3203797  59.3876244  32.4030781  77.5954864
  59.0298509  32.6913631  79.0379736  67.5648568  32.8884527  80.4398391
  67.6197178  31.9358363  80.3640867  66.7539770  33.0443966  80.9239689
  68.7139762  36.8164650  71.6776674  68.2759192  36.1000509  71.2182311
  69.4550203  37.0440765  71.1161765  65.5040928  31.5061587  78.1988769
  64.6908794  31.8055757  78.6053962  65.9999922  31.1117276  78.9163252
  67.6549506  41.5019344  80.1323034  67.6125685  41.7280190  79.2031566
  68.5712205  41.2682718  80.2808835  65.7715307  38.3782373  79.9284997
  66.5655905  37.8832693  79.7267572  65.0606999  37.8500236  79.5652702
  62.0798070  32.5225454  76.0044749  61.1495658  32.4609910  76.2214712
  62.1755542  32.0001407  75.2081391  61.9983619  29.0480267  78.5922991
  62.2590437  29.9625601  78.4832152  62.8200792  28.5804710  78.7419604
  68.9434735  44.0520491  74.9508370  69.1186491  43.5808534  75.7653993
  68.2567523  44.6786257  75.1789631  69.8991798  38.3292997  80.9971672
  69.5641631  38.2893767  81.8929322  69.3995744  37.6637713  80.5242082
  72.8350990  35.6749032  71.2708731  72.2180160  34.9495860  71.1741784
  72.3667478  36.4358392  70.9275806  64.6249536  29.8934456  70.3930036
  63.7479002  29.7723257  70.0292282  65.1007289  29.1020534  70.1408924
  56.1451676  34.6811616  80.4871543  56.8322716  34.3673346  79.8992558
  55.9899804  35.5852980  80.2138794  60.9486398  29.5701812  84.9156566
  60.8644587  28.9627482  84.1806976  60.1269104  30.0610831  84.9166063
  67.8113462  42.2460746  77.6392556  67.0280983  42.7882427  77.7330781
  68.5106207  42.7634726  78.0386797  72.2039892  36.8127063  77.8565185
  71.2696171  36.9328526  77.6869889  72.3816561  35.9099530  77.5925195
  67.7045080  30.1972759  80.0098446  67.3342868  29.6443799  80.6979352
  68.2004173  29.5930892  79.4573446  73.6588675  38.9988204  75.3901371
  73.9348519  38.8844798  76.2995245  72.7893174  38.6005689  75.3513544
  70.2942739  43.2474554  79.0334185  70.4765133  42.4296210  79.4961937
  71.1175725  43.4642247  78.5959075  70.6284904  42.1742740  76.2949233
  71.1572671  41.6635194  75.6819395  70.8913124  41.8585270  77.1594766
  61.1301997  40.1906609  84.0384567  61.7155434  39.4450297  84.1712471
  60.9326836  40.5010566  84.9221231  63.9840652  43.2257856  79.0547009
  63.3151028  43.7103984  78.5711049  63.8453522  43.4727077  79.9690388
  55.7219652  32.7612209  82.7589010  55.7603751  32.2275800  83.5526128
  55.2159945  32.2347415  82.1399987  59.3528229  31.4876311  75.8342941
  59.6481670  30.5786990  75.7809995  58.4516265  31.4664051  75.5123944
  62.8822476  29.5632308  81.8170490  62.1609062  30.1768276  81.6777963
  63.6715732  30.0990073  81.7387136  61.0816071  29.1690409  75.9582266
  60.7528777  28.2887788  75.7757372  61.4355442  29.1138078  76.8458656
  70.3295650  40.8045312  80.4677252  70.1820612  39.8762019  80.6484822
  71.1549143  40.8265402  79.9834327  64.1957894  29.4563379  76.3257744
  64.5353967  29.9849300  75.6036352  64.6430015  29.7943785  77.1016311
  66.1826041  27.9538000  74.5251037  66.9034404  28.3319253  74.0214754
  65.5591345  28.6726877  74.6286015  70.3257164  28.6583149  75.4609369
  70.5420779  29.5407787  75.1598197  69.8451231  28.2669363  74.7315011
  65.0656386  31.6168863  82.0380114  64.9200966  31.9309166  82.9304395
  64.5881589  32.2353763  81.4851012  73.7225088  42.1459538  76.9104216
  73.8961965  41.5805960  76.1578069  74.2153979  42.9460433  76.7283706
  59.5402048  34.1574207  84.9767775  58.9955516  34.9334015  85.1088049
  60.4181398  34.5045011  84.8186896  66.3289664  27.4885791  77.3548573
  66.4505576  26.5602437  77.5539461  66.0391707  27.5024477  76.4426889
  74.7100260  41.4626302  74.0101114  75.4051165  42.0832995  74.2288429
  75.0523411  40.6121653  74.2853492  60.3268070  33.2844103  87.8697932
  59.5849806  33.4326739  88.4562562  60.0060814  33.5452369  87.0064681
  76.6091684  38.9126008  75.5388445  77.1343008  39.2513281  74.8137765
  76.5214036  37.9773023  75.3551580  60.7724683  41.1709532  79.9008326
  61.5982703  40.8713304  79.5206970  60.4218735  40.4017154  80.3498115
  65.7406216  40.5236000  81.9706000  65.1186226  39.8606705  81.6708228
  66.4111083  40.5497132  81.2879648  58.9733288  39.0895858  80.8597260
  58.1365197  38.6618033  80.6781261  58.9456934  39.2828302  81.7968051
  65.3019723  39.0739923  75.4464461  65.4507844  39.7575388  74.7931133
  66.1086167  39.0545014  75.9613916  63.0572356  35.1005101  76.4525529
  62.8118398  34.1967431  76.6505740  63.2268271  35.1022252  75.5105007
  62.3268004  30.8333459  73.9511691  61.6337249  30.9077814  73.2951727
  62.0819756  30.0693802  74.4733208  68.8015129  41.5688054  72.9176208
  68.2289096  42.1878241  72.4646680  69.3747923  42.1187416  73.4516130
  72.0212389  41.8525204  74.0484790  72.9543062  41.7870766  74.2517666
  71.9335601  42.6881471  73.5899323  74.6500405  41.1691074  71.0088738
  74.5714037  40.8350938  71.9024496  75.4710072  41.6612842  71.0080210
  69.1861927  32.9048867  70.2592260  70.1321032  32.7755075  70.3280679
  68.8076172  32.1663529  70.7361689  67.3704845  30.8298843  70.1947146
  66.4636300  30.5331956  70.2709859  67.6480826  30.5328661  69.3281432
  58.2882785  32.1505206  80.6446192  57.9685569  31.2970515  80.3520566
  57.7416213  32.3653785  81.4004159  62.0662692  34.8667647  84.3615699
  62.2848702  35.7984755  84.3803732  62.4788466  34.5075622  85.1470502
  66.1403629  27.6885778  70.3359125  67.0022793  28.0140677  70.5954942
  66.3253973  26.9017274  69.8232191  58.1571045  35.7708118  82.6139314
  57.4634516  35.3562071  82.1009268  58.9044036  35.8128654  82.0172733
  60.0707787  35.7026372  80.4905329  60.0478476  35.8014059  79.5387212
  60.3808424  36.5491523  80.8122495  62.7295165  37.7602527  84.6051943
  63.6838419  37.7286469  84.5381875  62.5307689  37.2993151  85.4202169
  61.0845394  43.3022146  81.6222141  60.9499862  42.5422547  81.0560139
  60.6677456  44.0263046  81.1550930  72.2204357  38.4859070  70.6298716
  72.9240207  38.6909072  71.2456372  71.4967006  39.0535832  70.8947800
  73.0502167  34.2368931  76.7500986  72.9937369  34.6937482  75.9108619
  73.6030510  33.4759616  76.5723829  74.1291054  38.9241599  72.6797176
  74.9636658  38.4922797  72.4974651  73.9675397  38.7523613  73.6074071
  73.7836947  35.4273712  74.0453516  73.7285750  35.2617984  73.1041960
  73.1583002  36.1349745  74.2015705  58.5729462  30.6641777  87.8714938
  59.2188325  30.1540731  88.3602163  58.3646613  31.4010458  88.4458363
  67.0933072  24.9281821  73.6238834  67.0811742  25.8723661  73.7807105
  67.9856494  24.7451967  73.3298295  77.2673315  48.1626926  72.0430818
  77.5198836  47.6408447  71.2814281  76.3297874  47.9993071  72.1457501
  78.9706632  44.5555078  72.9463230  79.1381034  45.4235315  73.3133702
  78.7803801  44.7182360  72.0224520  75.5904910  45.3779146  73.1932129
  74.7542222  45.7153833  73.5141404  75.4509679  45.2428126  72.2559266
  77.5657990  40.2215934  77.9011313  76.9122403  39.9064951  77.2767928
  77.5238465  39.5991675  78.6271136  78.6769195  50.5035229  69.8164605
  77.7696257  50.2724483  70.0155754  79.1740227  49.7072848  70.0038587
  72.9191825  47.8517372  76.0044749  71.9889413  47.7901828  76.2214712
  73.0149297  47.3293325  75.2081391  75.4643290  45.2226374  70.3930036
  74.5872756  45.1015174  70.0292282  75.9401043  44.4312452  70.1408924
  70.1921984  46.8168229  75.8342941  70.4875425  45.9078907  75.7809995
  69.2910020  46.7955968  75.5123944  71.9209825  44.4982327  75.9582266
  71.5922532  43.6179706  75.7757372  72.2749196  44.4429995  76.8458656
  77.0219796  43.2829918  74.5251037  77.7428158  43.6611171  74.0214754
  76.3985100  44.0018795  74.6286015  77.1683419  42.8177708  77.3548573
  77.2899330  41.8894355  77.5539461  76.8785461  42.8316394  76.4426889
  73.1661758  46.1625376  73.9511691  72.4731003  46.2369731  73.2951727
  72.9213510  45.3985720  74.4733208  80.0255682  48.2340784  70.2592260
  80.9714787  48.1046992  70.3280679  79.6469927  47.4955446  70.7361689
  78.2098599  46.1590761  70.1947146  77.3030054  45.8623873  70.2709859
  78.4874580  45.8620579  69.3281432  76.9797384  43.0177696  70.3359125
  77.8416548  43.3432594  70.5954942  77.1647728  42.2309192  69.8232191
  77.9326827  40.2573739  73.6238834  77.9205496  41.2015579  73.7807105
  78.8250249  40.0743884  73.3298295  55.0315237   6.1294665  64.3045335
  54.9539267   7.0802490  64.3833816  54.4276881   5.7840537  64.9620262
  53.6909204   3.6396186  71.6811896  54.2416629   3.5113249  70.9088889
  52.8520680   3.9391075  71.3306788  59.9049766   5.5611024  59.4606598
  59.2311465   5.8642720  60.0691556  60.2915588   6.3640104  59.1112055
  58.1040982   5.7290696  61.6753677  58.2792737   5.2578739  62.4899300
  57.4173770   6.3556462  61.9034938  52.6702067   8.8780059  68.4493537
  52.9098665   9.5098583  69.1272556  51.8271263   8.5268099  68.7358896
  57.1829929   4.6859181  70.8535041  57.1100100   5.4914153  71.3654346
  56.7407322   4.8851147  70.0283063  56.9719708   3.9230951  64.3637863
  56.1887230   4.4652632  64.4576087  57.6712454   4.4404931  64.7632104
  59.6428612   4.5846015  73.0093200  60.3556584   5.2193480  72.9369101
  59.1518641   4.6809881  72.1933202  50.2908244   1.8676814  70.7629873
  50.8761681   1.1220502  70.8957778  50.0933082   2.1780771  71.6466537
  53.1446899   4.9028061  65.7792316  52.4757274   5.3874189  65.2956356
  53.0059769   5.1497282  66.6935694  57.2852168   6.9371805  72.3774974
  57.8370476   7.1003426  73.1424059  57.6258361   7.5276243  71.7054999
  57.4538591   6.6568196  66.6229005  57.0143581   6.1644575  67.3161862
  58.2046708   6.1141164  66.3821080  49.9330930   2.8479737  66.6253633
  50.7588950   2.5483509  66.2452277  49.5824982   2.0787359  67.0743422
  48.1339535   0.7666063  67.5842567  47.2971443   0.3388238  67.4026568
  48.1063180   0.9598507  68.5213358  50.2451641   4.9792351  68.3467448
  50.1106109   4.2192752  67.7805446  49.8283703   5.7033251  67.8796236
  53.4020767   5.8761668  68.5585890  53.2853151   6.8207101  68.4564580
  52.5813213   5.5735230  68.9471689  54.4275281   6.5289930  71.7741819
  55.3302528   6.5613540  72.0908314  54.2012651   5.5990381  71.7888154
  56.1828883   5.2820917  68.4351897  55.2324514   5.2822778  68.3216270
  56.4861369   4.5353651  67.9187932  64.5858098  12.9244360  65.4256075
  64.0222963  12.8334296  64.6572363  64.4710493  12.1044264  65.9058568
  62.1322530  14.4195551  68.2640296  62.9243822  14.0786376  67.8486595
  62.3719180  14.5290526  69.1842449  70.1657657  16.5915327  60.7370540
  69.5145637  17.1769408  60.3504554  70.9602020  17.1221522  60.7965578
  64.0913284  13.6804464  61.1357675  64.8644160  13.1333451  60.9970550
  64.4438683  14.5448714  61.3472136  66.4279562   9.8397131  58.7676124
  66.6805083   9.3178652  58.0059587  65.4904121   9.6763276  58.8702808
  71.6432922  14.2805759  61.2739524  71.0078755  14.3540386  61.9860429
  71.3130329  14.8699358  60.5958604  66.1475851  11.7425236  60.9700499
  66.0312109  11.0670140  61.6381584  66.2578111  11.2557610  60.1532652
  68.4907392  11.2035384  64.6747189  68.1265599  10.6766005  65.3860110
  69.3474508  10.8133853  64.5013674  64.3400693  11.1456059  67.3711072
  63.4151190  11.0132273  67.5788764  64.5885107  11.9250278  67.8681014
  68.1102100   8.6882941  60.6555204  67.9901725   9.1339992  61.4940684
  67.4154688   9.0368258  60.0968742  61.7009504  10.7889333  68.2054861
  61.8301886  11.0423811  69.1194273  61.0206956  11.3817041  67.8859516
  65.8708992  21.4586583  64.3045335  65.7933021  22.4094408  64.3833816
  65.2670635  21.1132455  64.9620262  67.9684710  13.8804640  66.1399205
  68.4323055  14.1592343  65.3503827  67.7041508  12.9788085  65.9572295
  64.8608791  13.4276122  69.0778968  65.4310148  13.8563390  68.4396452
  65.4516903  13.1458707  69.7763153  66.9053596  10.0027793  62.9488770
  67.6077639  10.4548837  63.4162696  66.5734224   9.3611612  63.5768663
  60.6478930   8.2611346  68.2505903  59.8577984   8.5168874  67.7746014
  61.1390177   9.0759683  68.3557944  62.5993675   8.6255925  65.2089380
  61.8024839   8.7374619  65.7272876  62.3719267   8.9642577  64.3430270
  58.9316633   8.5141836  70.6820894  59.1824671   9.3988846  70.9478470
  59.4676181   8.3346437  69.9095986  68.1447361  16.8168735  63.0250875
  68.0093035  17.6620271  63.4535723  68.6857173  17.0188013  62.2616809
  61.5976758  14.3344174  63.5978800  62.1101279  15.1287424  63.7484365
  62.2499471  13.6370464  63.5312401  63.4071643  17.4509930  65.6801553
  63.5838271  18.3727894  65.4922537  64.2028476  17.1368349  66.1095933
  64.5302958  18.9688104  71.6811896  65.0810383  18.8405167  70.9088889
  63.6914434  19.2682993  71.3306788  59.5625675  12.6632828  64.3738371
  60.4000897  13.0729836  64.1572078  59.7403942  11.7232270  64.3438564
  71.4590107  10.3307908  60.0622204  70.9436730  11.1012513  60.3010591
  71.1867415   9.6573045  60.6855265  76.4324381  13.0840263  61.9975377
  75.6553824  12.7451423  61.5530539  77.1115862  13.0892886  61.3230342
  69.6922842  14.3625224  63.5374939  69.1644203  13.6277983  63.2248176
  69.1910345  15.1399900  63.2914907  64.7511157   7.0549351  59.9177435
  63.9148469   7.3924038  60.2386710  64.6115926   6.9198331  58.9804572
  67.8375442  12.1805434  56.5409912  66.9302504  11.9494688  56.7401061
  68.3346474  11.3843053  56.7283893  70.7443521  20.8902941  59.4606598
  70.0705220  21.1934638  60.0691556  71.1309343  21.6932022  59.1112055
  70.7437025   9.7859488  64.0806947  71.4908844  10.2980886  63.7714070
  71.0128615   9.4643541  64.9411341  69.0163675  12.2818029  61.0633902
  68.1074895  11.9977062  61.1606372  69.0458759  12.7017108  60.2037209
  74.2482943  15.8924619  64.8325069  73.7945270  15.0515528  64.8890260
  73.6176910  16.5286017  65.1699850  72.6915882  17.7301115  65.7674887
  72.9838857  18.2906172  65.0487253  73.2014503  18.0229676  66.5228047
  59.5851846  10.0023543  65.0449104  59.3876246   9.4092904  64.3200171
  59.0298510   9.6975753  65.7625043  67.5648570   9.8946650  67.1643697
  67.6197179   8.9420486  67.0886174  66.7539772  10.0506089  67.6484996
  68.7139763  13.8226773  58.4021980  68.2759193  13.1062632  57.9427618
  69.4550204  14.0502888  57.8407072  65.5040929   8.5123709  64.9234076
  64.6908795   8.8117880  65.3299268  65.9999924   8.1179398  65.6408558
  67.6549507  18.5081466  66.8568341  67.6125686  18.7342313  65.9276873
  68.5712206  18.2744841  67.0054142  65.7715308  15.3844495  66.6530303
  66.5655907  14.8894815  66.4512878  65.0607001  14.8562358  66.2898009
  70.5910153  17.7662591  71.0042671  70.6447175  18.3353527  71.7720387
  69.7224934  17.9364476  70.6396708  62.0798072   9.5287577  62.7290056
  61.1495660   9.4672033  62.9460018  62.1755544   9.0063530  61.9326697
  61.9983621   6.0542390  65.3168298  62.2590438   6.9687723  65.2077458
  62.8200793   5.5866832  65.4664911  68.3486584  15.9573517  70.3328141
  68.2097670  15.5892302  71.2054079  67.5601180  16.4721157  70.1612098
  68.9434736  21.0582614  61.6753677  69.1186492  20.5870657  62.4899300
  68.2567524  21.6848380  61.9034938  69.8991799  15.3355120  67.7216978
  69.5641632  15.2955890  68.6174628  69.3995745  14.6699836  67.2487389
  72.8350991  12.6811154  57.9954038  72.2180162  11.9557982  57.8987091
  72.3667479  13.4420515  57.6521112  63.5095821  24.2071977  68.4493537
  63.7492420  24.8390501  69.1272556  62.6665018  23.8560017  68.7358896
  56.1451677  11.6873738  67.2116849  56.8322717  11.3735468  66.6237865
  55.9899806  12.5915103  66.9384101  60.9486399   6.5763935  71.6401873
  60.8644588   5.9689604  70.9052283  60.1269106   7.0672953  71.6411369
  68.0223683  20.0151099  70.8535041  67.9493855  20.8206070  71.3654346
  67.5801076  20.2143065  70.0283063  67.8113463  19.2522869  64.3637863
  67.0280985  19.7944549  64.4576087  68.5106208  19.7696849  64.7632104
  70.4822367  19.9137933  73.0093200  71.1950339  20.5485398  72.9369101
  69.9912395  20.0101799  72.1933202  72.2039894  13.8189186  64.5810492
  71.2696172  13.9390648  64.4115196  72.3816562  12.9161652  64.3170501
  65.5334280  17.6632376  73.8298771  66.2343740  18.2968859  73.9828165
  65.0629395  18.0047108  73.0694410  73.6588676  16.0050326  62.1146678
  73.9348520  15.8906921  63.0240552  72.7893175  15.6067811  62.0758851
  70.2942740  20.2536677  65.7579491  70.4765135  19.4358333  66.2207244
  71.1175726  20.4704369  65.3204381  70.6284906  19.1804862  63.0194540
  71.1572672  18.6697317  62.4064702  70.8913125  18.8647392  63.8840073
  61.1301998  17.1968731  70.7629873  61.7155435  16.4512419  70.8957778
  60.9326837  17.5072688  71.6466537  63.9840654  20.2319979  65.7792316
  63.3151029  20.7166107  65.2956356  63.8453523  20.4789199  66.6935694
  55.7219653   9.7674332  69.4834317  55.7603753   9.2337922  70.2771435
  55.2159946   9.2409537  68.8645294  68.1245922  22.2663722  72.3774974
  68.6764230  22.4295344  73.1424059  68.4652116  22.8568160  71.7054999
  59.3528231   8.4938434  62.5588248  59.6481672   7.5849112  62.5055302
  58.4516266   8.4726173  62.2369250  71.2614309  20.2145698  69.3638656
  71.1365449  19.4135438  68.8549602  71.9193401  20.7091891  68.8752626
  62.8822478   6.5694430  68.5415796  62.1609063   7.1830398  68.4023270
  63.6715733   7.1052195  68.4632442  61.0816072   6.1752532  62.6827573
  60.7528778   5.2949910  62.5002679  61.4355443   6.1200200  63.5703962
  70.3295651  17.8107434  67.1922559  70.1820614  16.8824142  67.3730129
  71.1549145  17.8327525  66.7079634  64.1957895   6.4625501  63.0503051
  64.5353968   6.9911423  62.3281659  64.6430016   6.8005907  63.8261617
  73.9329773  18.6335993  68.2787431  74.8576320  18.4278854  68.1411882
  73.7645076  18.3852394  69.1876773  65.0656387   8.6230985  68.7625420
  64.9200968   8.9371288  69.6549702  64.5881590   9.2415885  68.2096319
  73.7225089  19.1521660  63.6349523  73.8961967  18.5868083  62.8823375
  74.2153980  19.9522555  63.4529013  59.5402049  11.1636330  71.7013082
  58.9955517  11.9396137  71.8333356  60.4181399  11.5107134  71.5432203
  74.7100262  18.4688425  60.7346421  75.4051166  19.0895118  60.9533736
  75.0523412  17.6183776  61.0098799  60.3268071  10.2906226  74.5943238
  59.5849807  10.4388861  75.1807869  60.0060815  10.5514491  73.7309988
  76.6091685  15.9188130  62.2633752  77.1343009  16.2575403  61.5383072
  76.5214037  14.9835146  62.0796886  68.2932346  21.9860114  66.6229005
  67.8537336  21.4936492  67.3161862  69.0440462  21.4433081  66.3821080
  60.7724685  18.1771654  66.6253633  61.5982704  17.8775426  66.2452277
  60.4218737  17.4079277  67.0743422  65.7406218  17.5298123  68.6951307
  65.1186227  16.8668828  68.3953535  66.4111085  17.5559255  68.0124954
  58.9733290  16.0957981  67.5842567  58.1365198  15.6680155  67.4026568
  58.9456935  16.2890424  68.5213358  65.3019725  16.0802046  62.1709767
  65.4507845  16.7637510  61.5176440  66.1086168  16.0607136  62.6859223
  63.0572358  12.1067224  63.1770836  62.8118400  11.2029554  63.3751046
  63.2268272  12.1084374  62.2350314  62.3268005   7.8395581  60.6756998
  61.6337250   7.9139936  60.0197034  62.0819757   7.0755925  61.1978515
  68.8015130  18.5750177  59.6421515  68.2289097  19.1940364  59.1891987
  69.3747924  19.1249538  60.1761437  72.0212390  18.8587327  60.7730097
  72.9543063  18.7932888  60.9762972  71.9335603  19.6943593  60.3144630
  74.6500407  18.1753197  57.7334044  74.5714038  17.8413061  58.6269802
  75.4710073  18.6674965  57.7325517  69.1861929   9.9110989  56.9837567
  70.1321033   9.7817197  57.0525985  68.8076174   9.1725651  57.4606995
  67.3704846   7.8360966  56.9192452  66.4636301   7.5394078  56.9955166
  67.6480827   7.5390784  56.0526739  58.2882786   9.1567329  67.3691499
  57.9685570   8.3032637  67.0765873  57.7416214   9.3715907  68.1249466
  62.0662694  11.8729770  71.0861005  62.2848703  12.8046878  71.1049039
  62.4788468  11.5137744  71.8715809  58.1571046  12.7770241  69.3384620
  57.4634518  12.3624193  68.8254575  58.9044037  12.8190777  68.7418039
  60.0707789  12.7088494  67.2150635  60.0478477  12.8076182  66.2632518
  60.3808425  13.5553645  67.5367801  62.7295167  14.7664649  71.3297250
  63.6838420  14.7348592  71.2627181  62.5307690  14.3055273  72.1447476
  63.3194549  13.3365765  73.8968047  64.1387438  13.8309844  73.9202885
  63.5931356  12.4197734  73.8685615  61.0845395  20.3084269  68.3467448
  60.9499863  19.5484670  67.7805446  60.6677458  21.0325169  67.8796236
  72.2204358  15.4921192  57.3544023  72.9240208  15.6971195  57.9701678
  71.4967007  16.0597954  57.6193106  73.0502169  11.2431054  63.4746293
  72.9937370  11.6999605  62.6353925  73.6030511  10.4821738  63.2969136
  64.2414521  21.2053586  68.5585890  64.1246905  22.1499018  68.4564580
  63.4206967  20.9027147  68.9471689  74.1291056  15.9303722  59.4042483
  74.9636660  15.4984920  59.2219958  73.9675399  15.7585735  60.3319377
  73.7836948  12.4335835  60.7698822  73.7285752  12.2680106  59.8287266
  73.1583003  13.1411868  60.9261012  58.5729463   7.6703899  74.5960244
  59.2188327   7.1602853  75.0847470  58.3646614   8.4072581  75.1703670
  65.2669035  21.8581848  71.7741819  66.1696282  21.8905458  72.0908314
  65.0406405  20.9282299  71.7888154  67.0222637  20.6112834  68.4351897
  66.0718268  20.6114696  68.3216270  67.3255124  19.8645569  67.9187932
  75.4251853  28.2536277  65.4256075  74.8616718  28.1626214  64.6572363
  75.3104248  27.4336182  65.9058568  72.9716285  29.7487469  68.2640296
  73.7637577  29.4078293  67.8486595  73.2112935  29.8582444  69.1842449
  81.0051412  31.9207245  60.7370540  80.3539391  32.5061325  60.3504554
  81.7995774  32.4513440  60.7965578  74.9307039  29.0096382  61.1357675
  75.7037915  28.4625369  60.9970550  75.2832438  29.8740631  61.3472136
  77.2673317  25.1689048  58.7676124  77.5198837  24.6470569  58.0059587
  76.3297876  25.0055194  58.8702808  82.4826677  29.6097677  61.2739524
  81.8472510  29.6832303  61.9860429  82.1524083  30.1991276  60.5958604
  76.9869605  27.0717154  60.9700499  76.8705863  26.3962058  61.6381584
  77.0971865  26.5849528  60.1532652  79.3301146  26.5327301  64.6747189
  78.9659353  26.0057922  65.3860110  80.1868262  26.1425770  64.5013674
  78.9706633  21.5617201  59.6708537  79.1381036  22.4297437  60.0379008
  78.7803802  21.7244483  58.7469826  75.1794448  26.4747977  67.3711072
  74.2544944  26.3424191  67.5788764  75.4278861  27.2542196  67.8681014
  78.9495854  24.0174858  60.6555204  78.8295479  24.4631909  61.4940684
  78.2548442  24.3660176  60.0968742  72.5403259  26.1181250  68.2054861
  72.6695640  26.3715729  69.1194273  71.8600710  26.7108958  67.8859516
  76.7102746  36.7878500  64.3045335  76.6326776  37.7386325  64.3833816
  76.1064390  36.4424373  64.9620262  78.8078464  29.2096558  66.1399205
  79.2716810  29.4884261  65.3503827  78.5435262  28.3080003  65.9572295
  75.7002545  28.7568040  69.0778968  76.2703903  29.1855308  68.4396452
  76.2910657  28.4750624  69.7763153  77.7447350  25.3319711  62.9488770
  78.4471394  25.7840754  63.4162696  77.4127979  24.6903529  63.5768663
  71.4872684  23.5903263  68.2505903  70.6971738  23.8460792  67.7746014
  71.9783932  24.4051601  68.3557944  73.4387430  23.9547842  65.2089380
  72.6418593  24.0666537  65.7272876  73.2113022  24.2934495  64.3430270
  69.7710387  23.8433754  70.6820894  70.0218426  24.7280764  70.9478470
  70.3069936  23.6638355  69.9095986  78.9841115  32.1460653  63.0250875
  78.8486790  32.9912189  63.4535723  79.5250928  32.3479931  62.2616809
  72.4370512  29.6636091  63.5978800  72.9495033  30.4579341  63.7484365
  73.0893225  28.9662382  63.5312401  74.2465397  32.7801847  65.6801553
  74.4232025  33.7019812  65.4922537  75.0422231  32.4660267  66.1095933
  75.3696713  34.2980021  71.6811896  75.9204138  34.1697085  70.9088889
  74.5308189  34.5974910  71.3306788  70.4019429  27.9924745  64.3738371
  71.2394651  28.4021754  64.1572078  70.5797697  27.0524188  64.3438564
  82.2983861  25.6599826  60.0622204  81.7830485  26.4304431  60.3010591
  82.0261170  24.9864962  60.6855265  79.8830972  20.5049527  65.1207442
  79.0272569  20.1156377  64.9413081  80.2957924  20.5841488  64.2607227
  82.0870165  23.5326918  61.8881985  81.7820300  23.8473067  62.7392128
  83.0400607  23.6108338  61.9309318  80.5316596  29.6917142  63.5374939
  80.0037958  28.9569901  63.2248176  80.0304099  30.4691818  63.2914907
  75.2635324  20.3536808  65.8981550  75.8379076  20.1311989  65.1654743
  75.8506306  20.4225502  66.6510151  75.5904911  22.3841269  59.9177435
  74.7542223  22.7215955  60.2386710  75.4509681  22.2490249  58.9804572
  77.5657992  17.2278057  64.6256620  76.9122404  16.9127074  64.0013234
  77.5238466  16.6053797  65.3516443  78.6769197  27.5097352  56.5409912
  77.7696258  27.2786605  56.7401061  79.1740229  26.7134971  56.7283893
  81.5837275  36.2194859  59.4606598  80.9098974  36.5226556  60.0691556
  81.9703097  37.0223939  59.1112055  81.5830780  25.1151406  64.0806947
  82.3302599  25.6272803  63.7714070  81.8522369  24.7935459  64.9411341
  79.8557430  27.6109947  61.0633902  78.9468649  27.3268980  61.1606372
  79.8852514  28.0309025  60.2037209  70.4245600  25.3315461  65.0449104
  70.2270000  24.7384822  64.3200171  69.8692264  25.0267671  65.7625043
  78.4042324  25.2238567  67.1643697  78.4590934  24.2712404  67.0886174
  77.5933526  25.3798006  67.6484996  79.5533518  29.1518690  58.4021980
  79.1152948  28.4354549  57.9427618  80.2943959  29.3794805  57.8407072
  76.3434684  23.8415627  64.9234076  75.5302549  24.1409798  65.3299268
  76.8393678  23.4471316  65.6408558  78.4943262  33.8373384  66.8568341
  78.4519441  34.0634230  65.9276873  79.4105961  33.6036759  67.0054142
  76.6109063  30.7136413  66.6530303  77.4049661  30.2186733  66.4512878
  75.9000755  30.1854276  66.2898009  81.4303907  33.0954509  71.0042671
  81.4840929  33.6645445  71.7720387  80.5618688  33.2656394  70.6396708
  72.9191826  24.8579495  62.7290056  71.9889414  24.7963950  62.9460018
  73.0149298  24.3355447  61.9326697  72.8377375  21.3834308  65.3168298
  73.0984192  22.2979641  65.2077458  73.6594547  20.9158750  65.4664911
  79.1880339  31.2865435  70.3328141  79.0491424  30.9184219  71.2054079
  78.3994935  31.8013074  70.1612098  79.7828491  36.3874531  61.6753677
  79.9580246  35.9162575  62.4899300  79.0961279  37.0140298  61.9034938
  80.7385554  30.6647038  67.7216978  80.4035386  30.6247808  68.6174628
  80.2389499  29.9991754  67.2487389  74.3489576  39.5363894  68.4493537
  74.5886174  40.1682418  69.1272556  73.5058772  39.1851934  68.7358896
  75.4643291  22.2288496  57.1175342  74.5872758  22.1077297  56.7537589
  75.9401044  21.4374575  56.8654231  66.9845431  27.0165656  67.2116849
  67.6716471  26.7027386  66.6237865  66.8293560  27.9207021  66.9384101
  71.7880154  21.9055853  71.6401873  71.7038342  21.2981522  70.9052283
  70.9662860  22.3964871  71.6411369  78.8617438  35.3443017  70.8535041
  78.7887609  36.1497988  71.3654346  78.4194831  35.5434982  70.0283063
  78.6507217  34.5814787  64.3637863  77.8674739  35.1236467  64.4576087
  79.3499963  35.0988766  64.7632104  81.3216121  35.2429851  73.0093200
  82.0344093  35.8777315  72.9369101  80.8306150  35.3393717  72.1933202
  83.0433648  29.1481103  64.5810492  82.1089927  29.2682566  64.4115196
  83.2210317  28.2453570  64.3170501  78.5438836  22.5326799  66.7343753
  78.1736624  21.9797839  67.4224658  79.0397929  21.9284933  66.1818753
  76.3728035  32.9924294  73.8298771  77.0737494  33.6260777  73.9828165
  75.9023150  33.3339026  73.0694410  81.1336495  35.5828595  65.7579491
  81.3158889  34.7650251  66.2207244  81.9569481  35.7996287  65.3204381
  81.4678660  34.5096780  63.0194540  81.9966427  33.9989234  62.4064702
  81.7306880  34.1939310  63.8840073  71.9695753  32.5260649  70.7629873
  72.5549190  31.7804337  70.8957778  71.7720591  32.8364606  71.6466537
  74.8234408  35.5611897  65.7792316  74.1544783  36.0458024  65.2956356
  74.6847278  35.8081117  66.6935694  66.5613408  25.0966249  69.4834317
  66.5997507  24.5629840  70.2771435  66.0553700  24.5701455  68.8645294
  78.9639677  37.5955640  72.3774974  79.5157985  37.7587262  73.1424059
  79.3045870  38.1860078  71.7054999  70.1921985  23.8230352  62.5588248
  70.4875426  22.9141030  62.5055302  69.2910021  23.8018091  62.2369250
  82.1008064  35.5437616  69.3638656  81.9759203  34.7427355  68.8549602
  82.7587155  36.0383809  68.8752626  73.7216232  21.8986348  68.5415796
  73.0002818  22.5122316  68.4023270  74.5109488  22.4344113  68.4632442
  71.9209827  21.5044449  62.6827573  71.5922533  20.6241828  62.5002679
  72.2749197  21.4492118  63.5703962  81.1689406  33.1399352  67.1922559
  81.0214368  32.2116059  67.3730129  81.9942899  33.1619443  66.7079634
  75.0351650  21.7917419  63.0503051  75.3747722  22.3203340  62.3281659
  75.4823770  22.1297825  63.8261617  77.0219797  20.2892041  61.2496343
  77.7428160  20.6673293  60.7460060  76.3985101  21.0080917  61.3531321
  81.1650920  20.9937190  62.1854676  81.3814534  21.8761827  61.8843504
  80.6844987  20.6023403  61.4560318  75.9050141  23.9522903  68.7625420
  75.7594722  24.2663206  69.6549702  75.4275345  24.5707803  68.2096319
  70.3795803  26.4928247  71.7013082  69.8349272  27.2688055  71.8333356
  71.2575153  26.8399052  71.5432203  77.1683420  19.8239831  64.0793880
  77.2899331  18.8956477  64.2784768  76.8785462  19.8378517  63.1672196
  71.1661825  25.6198143  74.5943238  70.4243561  25.7680779  75.1807869
  70.8454570  25.8806409  73.7309988  79.1326100  37.3152031  66.6229005
  78.6931090  36.8228410  67.3161862  79.8834217  36.7724999  66.3821080
  71.6118439  33.5063572  66.6253633  72.4376459  33.2067344  66.2452277
  71.2612491  32.7371195  67.0743422  76.5799972  32.8590040  68.6951307
  75.9579981  32.1960745  68.3953535  77.2504839  32.8851172  68.0124954
  69.8127044  31.4249899  67.5842567  68.9758952  30.9972073  67.4026568
  69.7850689  31.6182342  68.5213358  76.1413479  31.4093964  62.1709767
  76.2901599  32.0929428  61.5176440  76.9479923  31.3899054  62.6859223
  73.8966112  27.4359141  63.1770836  73.6512154  26.5321471  63.3751046
  74.0662027  27.4376292  62.2350314  73.1661760  23.1687499  60.6756998
  72.4731005  23.2431854  60.0197034  72.9213511  22.4047843  61.1978515
  79.6408885  33.9042094  59.6421515  79.0682852  34.5232281  59.1891987
  80.2141678  34.4541456  60.1761437  80.0255683  25.2402907  56.9837567
  80.9714788  25.1109115  57.0525985  79.6469928  24.5017569  57.4606995
  78.2098600  23.1652883  56.9192452  77.3030056  22.8685996  56.9955166
  78.4874581  22.8682701  56.0526739  69.1276541  24.4859247  67.3691499
  68.8079325  23.6324555  67.0765873  68.5809969  24.7007825  68.1249466
  72.9056448  27.2021688  71.0861005  73.1242458  28.1338796  71.1049039
  73.3182222  26.8429662  71.8715809  76.9797385  20.0239819  57.0604432
  77.8416549  20.3494717  57.3200249  77.1647729  19.2371314  56.5477497
  68.9964801  28.1062158  69.3384620  68.3028272  27.6916111  68.8254575
  69.7437792  28.1482695  68.7418039  70.9101543  28.0380412  67.2150635
  70.8872231  28.1368099  66.2632518  71.2202180  28.8845563  67.5367801
  73.5688921  30.0956567  71.3297250  74.5232175  30.0640509  71.2627181
  73.3701445  29.6347191  72.1447476  74.1588303  28.6657683  73.8968047
  74.9781192  29.1601762  73.9202885  74.4325111  27.7489651  73.8685615
  71.9239150  35.6376187  68.3467448  71.7893618  34.8776587  67.7805446
  71.5071212  36.3617086  67.8796236  75.0808276  36.5345504  68.5585890
  74.9640660  37.4790936  68.4564580  74.2600722  36.2319065  68.9471689
  69.4123217  22.9995817  74.5960244  70.0582081  22.4894771  75.0847470
  69.2040369  23.7364499  75.1703670  77.9326828  17.2635862  60.3484141
  77.9205498  18.2077701  60.5052411  78.8250250  17.0806007  60.0543602
  76.1062790  37.1873765  71.7741819  77.0090037  37.2197376  72.0908314
  75.8800160  36.2574216  71.7888154  77.8616392  35.9404752  68.4351897
  76.9112023  35.9406614  68.3216270  78.1648878  35.1937487  67.9187932
  82.3266439  38.9195181  68.2505903  81.5365493  39.1752709  67.7746014
  82.8177686  39.7343519  68.3557944  80.6104142  39.1725671  70.6820894
  80.8612180  40.0572681  70.9478470  81.1463690  38.9930273  69.9095986
  81.2413184  43.3216663  64.3738371  82.0788406  43.7313672  64.1572078
  81.4191451  42.3816105  64.3438564  81.2639355  40.6607378  65.0449104
  81.0663755  40.0676739  64.3200171  80.7086019  40.3559589  65.7625043
  77.8239186  42.3457574  67.2116849  78.5110226  42.0319304  66.6237865
  77.6687315  43.2498938  66.9384101  82.6273908  37.2347770  71.6401873
  82.5432097  36.6273440  70.9052283  81.8056614  37.7256789  71.6411369
  77.4007162  40.4258167  69.4834317  77.4391262  39.8921758  70.2771435
  76.8947455  39.8993373  68.8645294  81.0315740  39.1522269  62.5588248
  81.3269181  38.2432948  62.5055302  80.1303775  39.1310009  62.2369250
  82.7603581  36.8336367  62.6827573  82.4316287  35.9533746  62.5002679
  83.1142952  36.7784036  63.5703962  81.2189558  41.8220165  71.7013082
  80.6743026  42.5979973  71.8333356  82.0968908  42.1690969  71.5432203
  82.0055580  40.9490061  74.5943238  81.2637316  41.0972696  75.1807869
  81.6848324  41.2098327  73.7309988  82.4512193  48.8355490  66.6253633
  83.2770213  48.5359262  66.2452277  82.1006245  48.0663112  67.0743422
  80.6520799  46.7541816  67.5842567  79.8152707  46.3263991  67.4026568
  80.6244444  46.9474260  68.5213358  79.9670295  39.8151164  67.3691499
  79.6473079  38.9616473  67.0765873  79.4203723  40.0299743  68.1249466
  79.8358555  43.4354076  69.3384620  79.1422027  43.0208029  68.8254575
  80.5831546  43.4774612  68.7418039  81.7495298  43.3672330  67.2150635
  81.7265986  43.4660017  66.2632518  82.0595934  44.2137480  67.5367801
  82.7632904  50.9668104  68.3467448  82.6287372  50.2068505  67.7805446
  82.3464967  51.6909004  67.8796236  80.2516972  38.3287735  74.5960244
  80.8975836  37.8186689  75.0847470  80.0434123  39.0656416  75.1703670
  76.7102747  13.7940623  51.0290642  76.6326777  14.7448448  51.1079122
  76.1064391  13.4486495  51.6865568  75.3696714  11.3042144  58.4057202
  75.9204139  11.1759207  57.6334196  74.5308190  11.6037033  58.0552095
  81.5837277  13.2256982  46.1851904  80.9098975  13.5288678  46.7936862
  81.9703099  14.0286062  45.8357362  79.7828492  13.3936654  48.3998984
  79.9580248  12.9224697  49.2144606  79.0961280  14.0202420  48.6280244
  74.3489577  16.5426017  55.1738844  74.5886175  17.1744541  55.8517862
  73.5058774  16.1914057  55.4604203  78.8617439  12.3505139  57.5780348
  78.7887610  13.1560111  58.0899652  78.4194832  12.5497105  56.7528369
  78.6507219  11.5876909  51.0883169  77.8674740  12.1298589  51.1821394
  79.3499964  12.1050889  51.4877411  81.3216123  12.2491973  59.7338506
  82.0344095  12.8839438  59.6614408  80.8306151  12.3455839  58.9178508
  71.9695754   9.5322772  57.4875180  72.5549191   8.7866460  57.6203084
  71.7720593   9.8426728  58.3711844  74.8234409  12.5674019  52.5037622
  74.1544785  13.0520147  52.0201662  74.6847279  12.8143240  53.4181001
  78.9639678  14.6017763  59.1020281  79.5157986  14.7649384  59.8669366
  79.3045871  15.1922201  58.4300306  79.1326101  14.3214154  53.3474312
  78.6931092  13.8290533  54.0407168  79.8834218  13.7787122  53.1066387
  71.6118440  10.5125695  53.3498940  72.4376460  10.2129467  52.9697583
  71.2612492   9.7433317  53.7988728  69.8127045   8.4312021  54.3087873
  68.9758954   8.0034196  54.1271875  69.7850691   8.6244465  55.2458665
  71.9239151  12.6438309  55.0712754  71.7893619  11.8838710  54.5050752
  71.5071213  13.3679209  54.6041543  75.0808277  13.5407626  55.2831197
  74.9640661  14.4853059  55.1809887  74.2600723  13.2381188  55.6716996
  76.1062791  14.1935888  58.4987125  77.0090038  14.2259498  58.8153620
  75.8800161  13.2636339  58.5133461  77.8616393  12.9466875  55.1597204
  76.9112024  12.9468736  55.0461576  78.1648879  12.1999609  54.6433238
  82.3266440  15.9257303  54.9751210  81.5365494  16.1814832  54.4991321
  82.8177688  16.7405641  55.0803250  80.6104143  16.1787794  57.4066201
  80.8612182  17.0634804  57.6723777  81.1463692  15.9992395  56.6341293
  81.2413185  20.3278786  51.0983677  82.0788407  20.7375794  50.8817385
  81.4191453  19.3878228  51.0683871  81.2639356  17.6669501  51.7694411
  81.0663756  17.0738862  51.0445477  80.7086020  17.3621711  52.4870349
  77.8239187  19.3519696  53.9362156  78.5110227  19.0381426  53.3483171
  77.6687316  20.2561061  53.6629407  82.6273909  14.2409893  58.3647180
  82.5432098  13.6335562  57.6297590  81.8056616  14.7318911  58.3656676
  77.4007163  17.4320290  56.2079623  77.4391263  16.8983880  57.0016741
  76.8947456  16.9055495  55.5890600  81.0315741  16.1584392  49.2833555
  81.3269182  15.2495070  49.2300608  80.1303777  16.1372131  48.9614557
  82.7603582  13.8398489  49.4072880  82.4316289  12.9595868  49.2247986
  83.1142953  13.7846158  50.2949269  81.2189559  18.8282287  58.4258388
  80.6743027  19.6042095  58.5578663  82.0968909  19.1753092  58.2677510
  82.0055581  17.9552184  61.3188545  81.2637317  18.1034819  61.9053176
  81.6848325  18.2160449  60.4555294  82.4512195  25.8417612  53.3498940
  83.2770215  25.5421384  52.9697583  82.1006247  25.0725235  53.7988728
  80.6520800  23.7603939  54.3087873  79.8152708  23.3326113  54.1271875
  80.6244445  23.9536382  55.2458665  79.9670296  16.8213287  54.0936805
  79.6473081  15.9678595  53.8011179  79.4203725  17.0361865  54.8494773
  79.8358556  20.4416198  56.0629927  79.1422028  20.0270151  55.5499881
  80.5831547  20.4836735  55.4663346  81.7495299  20.3734452  53.9395942
  81.7265987  20.4722140  52.9877825  82.0595935  21.2199603  54.2613108
  82.7632906  27.9730227  55.0712754  82.6287374  27.2130628  54.5050752
  82.3464968  28.6971127  54.6041543  80.2516973  15.3349857  61.3205551
  80.8975837  14.8248811  61.8092776  80.0434124  16.0718539  61.8948976
  26.8082637  47.2499164  87.2879924  26.1570616  47.8353245  86.9013938
  27.6026999  47.7805359  87.3474961  33.0749361  43.7424100  88.5484761
  32.2978803  43.4035260  88.1039923  33.7540841  43.7476723  87.8739726
  24.4800422  42.8389271  83.0919295  23.5727483  42.6078525  83.2910444
  24.9771454  42.0426891  83.2793277  27.3868500  51.5486778  86.0115981
  26.7130199  51.8518475  86.6200939  27.7734322  52.3515859  85.6621439
  25.3564743  44.4810610  84.9531364  24.9184173  43.7646469  84.4937001
  26.0975184  44.7086725  84.3916455  25.5859716  51.7166451  88.2263061
  25.7611471  51.2454494  89.0408683  24.8992504  52.3432217  88.4544321
  29.4775970  43.3394991  84.5463422  28.8605141  42.6141820  84.4496474
  29.0092459  44.1004352  84.2030496  30.3013656  46.6634163  88.6656061
  30.5773500  46.5490758  89.5749935  29.4318154  46.2651648  88.6268234
  27.2709885  49.8388699  89.5703923  27.7997652  49.3281154  88.9574086
  27.5338105  49.5231230  90.4349456  30.3650069  49.8105498  90.1858906
  30.5386946  49.2451920  89.4332759  30.8578960  50.6106392  90.0038396
  31.3525241  49.1272262  87.2855805  32.0476146  49.7478955  87.5043119
  31.6948391  48.2767613  87.5608183  33.2516664  46.5771967  88.8143135
  33.7767988  46.9159240  88.0892455  33.1639017  45.6418983  88.6306270
  25.4440110  49.2334014  86.1930898  24.8714077  49.8524201  85.7401370
  26.0172903  49.7833375  86.7270820  28.6637369  49.5171164  87.3239481
  29.5968043  49.4516725  87.5272356  28.5760582  50.3527431  86.8654013
  31.2925386  48.8337034  84.2843428  31.2139018  48.4996898  85.1779186
  32.1135053  49.3258802  84.2834900  25.8286908  40.5694826  83.5346951
  26.7746013  40.4401035  83.6035369  25.4501153  39.8309488  84.0116379
  28.8629338  46.1505030  83.9053406  29.5665188  46.3555032  84.5211062
  28.1391987  46.7181791  84.1702490  30.7716035  46.5887559  85.9551867
  31.6061639  46.1568757  85.7729341  30.6100378  46.4169572  86.8828761
  30.4261927  43.0919672  87.3208206  30.3710731  42.9263943  86.3796650
  29.8007983  43.7995705  87.4770396  33.9098296  55.8272885  85.3185508
  34.1623817  55.3054407  84.5568971  32.9722855  55.6639031  85.4212192
  35.6131613  52.2201038  86.2217921  35.7806015  53.0881274  86.5888392
  35.4228782  52.3828320  85.2979210  32.2329891  53.0425106  86.4686819
  31.3967203  53.3799793  86.7896094  32.0934660  52.9074086  85.5313956
  34.2082971  47.8861894  91.1766003  33.5547384  47.5710911  90.5522618
  34.1663445  47.2637634  91.9025826  35.3194176  58.1681189  83.0919295
  34.4121238  57.9370442  83.2910444  35.8165208  57.3718808  83.2793277
  29.5616806  55.5163332  89.2799440  28.6314394  55.4547787  89.4969402
  29.6574278  54.9939285  88.4836081  32.1068271  52.8872333  83.6684726
  31.2297737  52.7661134  83.3046973  32.5826024  52.0958412  83.4163615
  26.8346965  54.4814189  89.1097632  27.1300406  53.5724867  89.0564685
  25.9335000  54.4601928  88.7878634  28.5634806  52.1628286  89.2336957
  28.2347512  51.2825665  89.0512063  28.9174177  52.1075955  90.1213346
  33.6644777  50.9475878  87.8005727  34.3853139  51.3257131  87.2969444
  33.0410081  51.6664755  87.9040705  33.8108400  50.4823668  90.6303264
  33.9324311  49.5540314  90.8294151  33.5210442  50.4962354  89.7181579
  29.8086739  53.8271336  87.2266381  29.1155984  53.9015691  86.5706417
  29.5638491  53.0631680  87.7487898  36.6680663  55.8986744  83.5346951
  37.6139767  55.7692952  83.6035369  36.2894908  55.1601406  84.0116379
  34.8523580  53.8236720  83.4701836  33.9455035  53.5269833  83.5464550
  35.1299561  53.5266539  82.6036122  36.4685646  48.3673610  89.6246077
  35.6586374  48.0220695  90.0001323  37.1570062  48.0581154  90.2133689
  33.6222364  50.6823656  83.6113815  34.4841528  51.0078554  83.8709633
  33.8072709  49.8955152  83.0986881  34.5751807  47.9219699  86.8993524
  34.5630477  48.8661539  87.0561795  35.4675229  47.7389844  86.6052985
  38.3903927  44.5162475  91.1539461  37.6236323  43.9620962  91.2996143
  38.8014632  44.5884344  92.0153613  26.8082638  24.2561287  74.0125230
  26.1570618  24.8415367  73.6259244  27.6027001  24.7867482  74.0720268
  33.0749362  20.7486223  75.2730067  32.2978805  20.4097382  74.8285229
  33.7540843  20.7538846  74.5985032  24.4800423  19.8451394  69.8164602
  23.5727485  19.6140647  70.0155751  24.9771455  19.0489013  70.0038584
  27.3868502  28.5548901  72.7361288  26.7130200  28.8580598  73.3446246
  27.7734324  29.3577981  72.3866745  25.3564744  21.4872732  71.6776671
  24.9184174  20.7708591  71.2182308  26.0975185  21.7148847  71.1161762
  25.5859717  28.7228573  74.9508367  25.7611473  28.2516617  75.7653990
  24.8992505  29.3494340  75.1789628  29.4775972  20.3457114  71.2708728
  28.8605142  19.6203942  71.1741781  29.0092460  21.1066474  70.9275802
  30.3013657  23.6696286  75.3901368  30.5773501  23.5552881  76.2995242
  29.4318156  23.2713771  75.3513541  27.2709886  26.8450822  76.2949230
  27.7997653  26.3343277  75.6819392  27.5338106  26.5293352  77.1594763
  30.3650070  26.8167620  76.9104213  30.5386947  26.2514043  76.1578066
  30.8578961  27.6168515  76.7283703  31.3525242  26.1334385  74.0101111
  32.0476147  26.7541077  74.2288426  31.6948393  25.2829736  74.2853489
  33.2516666  23.5834090  75.5388442  33.7767990  23.9221363  74.8137762
  33.1639018  22.6481105  75.3551577  25.4440111  26.2396136  72.9176205
  24.8714078  26.8586323  72.4646677  26.0172905  26.7895498  73.4516127
  28.6637371  26.5233286  74.0484787  29.5968044  26.4578848  74.2517663
  28.5760584  27.3589553  73.5899320  31.2925387  25.8399157  71.0088735
  31.2139019  25.5059020  71.9024493  32.1135054  26.3320925  71.0080207
  25.8286909  17.5756949  70.2592257  26.7746014  17.4463157  70.3280675
  25.4501154  16.8371611  70.7361686  28.8629339  23.1567152  70.6298713
  29.5665189  23.3617155  71.2456369  28.1391988  23.7243914  70.8947797
  30.7716037  23.5949681  72.6797173  31.6061640  23.1630880  72.4974648
  30.6100379  23.4231695  73.6074068  30.4261929  20.0981795  74.0453512
  30.3710733  19.9326066  73.1041957  29.8007984  20.8057828  74.2015702
  39.4000312  34.1119332  82.7752350  40.0378722  33.9926080  82.0715690
  39.2821155  35.0600176  82.8340302  36.2090018  34.0646761  82.7113875
  35.8708529  33.9487825  81.8234409  37.0779786  33.6637926  82.6914881
  32.0676834  35.9182237  78.7010766  31.5041699  35.8272174  77.9327053
  31.9529229  35.0982141  79.1813258  29.6141266  37.4133429  81.5394986
  30.4062557  37.0724253  81.1241285  29.8537916  37.5228404  82.4597139
  37.6476392  39.5853205  74.0125230  36.9964372  40.1707285  73.6259244
  38.4420755  40.1159400  74.0720268  31.5732019  36.6742342  74.4112365
  32.3462895  36.1271329  74.2725241  31.9257418  37.5386591  74.6226826
  34.3373269  35.3795573  84.2080624  34.9336841  35.1551595  83.4937587
  34.3948240  34.6380318  84.8106072  33.9098297  32.8335008  72.0430815
  34.1623818  32.3116529  71.2814278  32.9722856  32.6701153  72.1457498
  38.9541580  31.8370786  79.8505558  39.7404669  31.4190209  79.4995975
  39.2180284  32.7416878  80.0187206  39.1251657  37.2743637  74.5494215
  38.4897490  37.3478263  75.2615119  38.7949064  37.8637235  73.8713294
  44.3550007  31.7746019  80.7538536  45.0875179  31.2045236  80.9876366
  43.5989363  31.3867620  81.1945042  33.6294586  34.7363114  74.2455190
  33.5130844  34.0608017  74.9136274  33.7396846  34.2495488  73.4287343
  35.9726127  34.1973261  77.9501879  35.6084334  33.6703882  78.6614800
  36.8293243  33.8071730  77.7768364  35.6131614  29.2263161  72.9463227
  35.7806016  30.0943397  73.3133698  35.4228783  29.3890442  72.0224517
  38.3706947  37.6880140  84.6129058  38.0707670  38.5905178  84.5044865
  38.0258007  37.4212323  85.4650211  31.8219429  34.1393936  80.6465762
  30.8969925  34.0070151  80.8543454  32.0703842  34.9188156  81.1435705
  41.7704091  30.2062680  82.2926495  40.8620968  30.1378088  81.9985256
  41.7191687  30.6834625  83.1208321  35.5920835  31.6820818  73.9309894
  35.4720460  32.1277869  74.7695375  34.8973423  32.0306136  73.3723432
  29.1828240  33.7827210  81.4809551  29.3120621  34.0361689  82.3948963
  28.5025691  34.3754918  81.1614206  33.3527727  44.4524460  77.5800025
  33.2751757  45.4032285  77.6588506  32.7489371  44.1070332  78.2374952
  43.6365737  28.4079118  84.0704369  42.9940118  28.7011651  83.4244164
  43.1320666  28.2932038  84.8757566  41.2905901  32.1542291  74.7590228
  42.2023757  32.3869678  74.5837926  40.7815548  32.7379336  74.1965307
  39.8975483  37.1368110  82.1503810  39.2684346  37.3013824  81.4479878
  39.5101145  37.5509719  82.9214774  43.7764715  38.0722548  79.5048174
  43.0915753  38.4521449  78.9545207  43.8608564  38.6817874  80.2380121
  41.0315647  35.7182507  86.1043517  41.2432542  36.3614267  85.4277898
  40.9845395  34.8844823  85.6365447  35.4503445  36.8742518  79.4153895
  35.9141791  37.1530221  78.6258517  35.1860243  35.9725962  79.2326986
  32.3427526  36.4213999  82.3533658  32.9128883  36.8501268  81.7151143
  32.9335638  36.1396584  83.0517844  34.3872331  32.9965670  76.2243460
  35.0896375  33.4486714  76.6917386  34.0552960  32.3549489  76.8523353
  42.1461475  38.5954462  84.2765874  42.9678918  38.1934649  83.9948556
  42.1423878  38.4922696  85.2281990  30.0812411  31.6193802  78.4844070
  29.2843574  31.7312496  79.0027566  29.8538003  31.9580454  77.6184961
  35.9118078  38.1438505  86.4326585  35.9762511  38.6058913  87.2684757
  35.2029002  37.5135870  86.5608895  50.2367468  34.9393211  80.6250846
  49.4831176  34.3700609  80.4694850  50.3715009  34.9055875  81.5721481
  35.6266096  39.8106613  76.3005565  35.4911771  40.6558149  76.7290413
  36.1675908  40.0125891  75.5371499  29.0795493  37.3282051  76.8733490
  29.5920014  38.1225301  77.0239055  29.7318206  36.6308341  76.8067092
  30.8890378  40.4447807  78.9556243  31.0657006  41.3665772  78.7677227
  31.6847211  40.1306226  79.3850623  32.0121693  41.9625981  84.9566586
  32.5629119  41.8343044  84.1843580  31.1733169  42.2620870  84.6061479
  39.3515810  40.7132979  88.4587309  39.3334286  41.5341860  87.9667578
  40.2735730  40.5887055  88.6837450  27.0444410  35.6570705  77.6493061
  27.8819632  36.0667714  77.4326769  27.2222678  34.7170147  77.6193255
  38.9408842  33.3245786  73.3376894  38.4255466  34.0950391  73.5765281
  38.6686151  32.6510922  73.9609955  36.5255953  28.1695487  78.3962132
  35.6697550  27.7802337  78.2167771  36.9382905  28.2487447  77.5361918
  43.9143116  36.0778141  75.2730067  43.1372559  35.7389300  74.8285229
  44.5934597  36.0830764  74.5985032  38.7295145  31.1972878  75.1636675
  38.4245281  31.5119027  76.0146818  39.6825587  31.2754298  75.2064008
  37.1741577  37.3563101  76.8129629  36.6462939  36.6215861  76.5002866
  36.6729080  38.1337778  76.5669597  42.1534423  35.5512122  81.9296675
  41.4958098  36.2411383  82.0176804  42.9574822  35.9408554  82.2730662
  31.9060305  28.0182768  79.1736240  32.4804057  27.7957949  78.4409433
  32.4931287  28.0871462  79.9264842  40.9639882  33.9056494  79.9800617
  41.4771764  34.5386486  80.4822327  41.6141106  33.3057690  79.6143977
  32.2329892  30.0487229  73.1932126  31.3967204  30.3861915  73.5141400
  32.0934662  29.9136208  72.2559263  34.2082972  24.8924016  77.9011310
  33.5547385  24.5773034  77.2767925  34.1663447  24.2699757  78.6271133
  35.3194177  35.1743312  69.8164602  34.4121239  34.9432565  70.0155751
  35.8165209  34.3780931  70.0038584  38.2262256  43.8840819  72.7361288
  37.5523955  44.1872515  73.3446246  38.6128078  44.6869899  72.3866745
  37.4420713  31.3805950  82.2258958  36.5243274  31.6020897  82.0680646
  37.8580856  31.4552260  81.3670665  38.2255761  32.7797366  77.3561638
  38.9727580  33.2918763  77.0468760  38.4947350  32.4581418  78.2166031
  36.4982411  35.2755906  74.3388592  35.5893630  34.9914939  74.4361062
  36.5277495  35.6954985  73.4791899  41.7301678  38.8862496  78.1079760
  41.2764005  38.0453406  78.1644950  41.0995645  39.5223894  78.4454540
  40.6734598  29.8154482  79.3380427  39.9357355  29.3031868  79.6690670
  40.9261371  29.3754864  78.5263704  40.1734617  40.7238993  79.0429578
  40.4657592  41.2844050  78.3241943  40.6833238  41.0167554  79.7982737
  40.7746225  22.5930734  79.9322196  41.0805102  21.7328097  79.6448111
  41.4998830  23.1848354  79.7321190  27.0670581  32.9961421  78.3203794
  26.8694981  32.4030781  77.5954861  26.5117245  32.6913631  79.0379733
  35.0467305  32.8884527  80.4398387  35.1015915  31.9358363  80.3640864
  34.2358507  33.0443966  80.9239686  36.1958499  36.8164650  71.6776671
  35.7577929  36.1000509  71.2182308  36.9368939  37.0440765  71.1161762
  32.9859665  31.5061587  78.1988766  32.1727530  31.8055757  78.6053958
  33.4818659  31.1117276  78.9163249  35.1368243  41.5019344  80.1323031
  35.0944421  41.7280190  79.2031563  36.0530941  41.2682718  80.2808832
  44.3131613  35.0921847  77.7352989  44.1749512  35.2823443  76.8074178
  43.9567832  35.8541230  78.1921040  44.3400993  37.1598374  82.7464261
  44.7737500  37.0673663  83.5947315  45.0532574  37.1355875  82.1084277
  33.2534043  38.3782373  79.9284994  34.0474642  37.8832693  79.7267569
  32.5425736  37.8500236  79.5652699  38.0728888  40.7600468  84.2797361
  38.1265910  41.3291405  85.0475077  37.2043669  40.9302353  83.9151398
  29.5616807  32.5225454  76.0044746  28.6314395  32.4609910  76.2214709
  29.6574279  32.0001407  75.2081388  29.4802356  29.0480267  78.5922988
  29.7409173  29.9625601  78.4832149  30.3019528  28.5804710  78.7419601
  45.2016543  37.2022075  85.2797146  45.3952433  38.1067885  85.5256421
  45.1017161  36.7429494  86.1135731  37.0316988  34.9260730  85.8384293
  37.9609048  35.0771890  85.6653260  36.6108018  35.0144751  84.9832940
  35.8305319  38.9511395  83.6082831  35.6916405  38.5830179  84.4808769
  35.0419916  39.4659034  83.4366789  36.4253471  44.0520491  74.9508367
  36.6005227  43.5808534  75.7653990  35.7386259  44.6786257  75.1789628
  37.3810535  38.3292997  80.9971669  37.0460367  38.2893767  81.8929318
  36.8814480  37.6637713  80.5242079  40.3169726  35.6749032  71.2708728
  39.6998897  34.9495860  71.1741781  39.8486215  36.4358392  70.9275802
  41.9723858  40.3847940  88.9314509  41.9136404  39.7007160  88.2645092
  42.3743376  41.1266930  88.4795135  30.9914557  47.2009854  81.7248227
  31.2311155  47.8328378  82.4027246  30.1483753  46.8497894  82.0113587
  32.1068272  29.8934456  70.3930033  31.2297738  29.7723257  70.0292279
  32.5826025  29.1020534  70.1408921  41.9741265  38.3487524  87.1628488
  41.0868044  38.0113446  87.2854887  42.5439816  37.6170555  87.3997254
  23.6270412  34.6811616  80.4871540  24.3141452  34.3673346  79.8992555
  23.4718541  35.5852980  80.2138791  35.5042419  43.0088976  84.1289731
  35.4312590  43.8143948  84.6409036  35.0619812  43.2080942  83.3037753
  35.2932198  42.2460746  77.6392553  34.5099720  42.7882427  77.7330778
  35.9924943  42.7634726  78.0386794  38.6028848  28.0555376  80.2826758
  39.0997548  27.3025338  79.9627829  37.8315830  28.0919693  79.7169968
  46.4558606  33.7595741  81.9245050  46.4448482  34.6420457  81.5538983
  45.5875985  33.4067292  81.7299587  37.9641102  42.9075810  86.2847890
  38.6769074  43.5423275  86.2123792  37.4731131  43.0039676  85.4687892
  39.6858629  36.8127063  77.8565182  38.7514908  36.9328526  77.6869886
  39.8635297  35.9099530  77.5925192  35.1863817  30.1972759  80.0098443
  34.8161605  29.6443799  80.6979349  35.6822909  29.5930892  79.4573443
  43.0731180  32.6544382  78.3915216  43.5391632  33.4872374  78.3175519
  43.5238681  32.1889364  79.0960474  33.0153016  40.6570254  87.1053461
  33.7162475  41.2906737  87.2582855  32.5448131  40.9984985  86.3449100
  41.1407411  38.9988204  75.3901368  41.4167255  38.8844798  76.2995242
  40.2711910  38.6005689  75.3513541  40.8154302  33.2114861  84.9306011
  40.1625752  33.4590769  84.2758464  41.1934681  32.3979000  84.5968489
  37.7761475  43.2474554  79.0334182  37.9583870  42.4296210  79.4961934
  38.5994461  43.4642247  78.5959072  38.1103641  42.1742740  76.2949230
  38.6391407  41.6635194  75.6819392  38.3731860  41.8585270  77.1594763
  28.6120734  40.1906609  84.0384564  29.1974170  39.4450297  84.1712468
  28.4145572  40.5010566  84.9221228  31.4659389  43.2257856  79.0547006
  30.7969764  43.7103984  78.5711046  31.3272259  43.4727077  79.9690385
  35.6064657  45.2601600  85.6529664  36.1582965  45.4233221  86.4178750
  35.9470851  45.8506038  84.9809689  26.8346966  31.4876311  75.8342938
  27.1300407  30.5786990  75.7809992  25.9335002  31.4664051  75.5123941
  38.7433045  43.2083575  82.6393347  38.6184184  42.4073315  82.1304292
  39.4012136  43.7029769  82.1507317  40.8067953  41.0092595  84.2672897
  39.8598289  40.8897947  84.1951223  41.1550726  40.1215093  84.3499158
  28.5634808  29.1690409  75.9582263  28.2347514  28.2887788  75.7757369
  28.9174178  29.1138078  76.8458653  37.8114386  40.8045312  80.4677249
  37.6639349  39.8762019  80.6484819  38.6367880  40.8265402  79.9834324
  31.6776631  29.4563379  76.3257741  32.0172703  29.9849300  75.6036349
  32.1248751  29.7943785  77.1016308  41.4148508  41.6273870  81.5542122
  42.3395056  41.4216732  81.4166573  41.2463812  41.3790272  82.4631463
  33.6644778  27.9538000  74.5251034  34.3853140  28.3319253  74.0214751
  33.0410082  28.6726877  74.6286012  37.8075901  28.6583149  75.4609366
  38.0239515  29.5407787  75.1598194  37.3269968  28.2669363  74.7315008
  41.2043824  42.1459538  76.9104213  41.3780702  41.5805960  76.1578066
  41.6972716  42.9460433  76.7283703  33.8108401  27.4885791  77.3548570
  33.9324312  26.5602437  77.5539458  33.5210443  27.5024477  76.4426886
  47.0583216  34.9095961  78.5294513  47.5014362  34.1603286  78.1313636
  46.1809726  34.9006097  78.1468245  42.1918997  41.4626302  74.0101111
  42.8869902  42.0832995  74.2288426  42.5342147  40.6121653  74.2853489
  44.0910420  38.9126008  75.5388442  44.6161744  39.2513281  74.8137762
  44.0032773  37.9773023  75.3551577  35.7530469  42.8260081  87.6678319
  36.0617595  42.5809228  88.5401018  36.5505951  43.0306720  87.1797189
  35.7751081  44.9797991  79.8983695  35.3356071  44.4874370  80.5916552
  36.5259198  44.4370959  79.6575771  28.2543420  41.1709532  79.9008323
  29.0801440  40.8713304  79.5206967  27.9037472  40.4017154  80.3498112
  33.2224953  40.5236000  81.9705997  32.6004962  39.8606705  81.6708225
  33.8929820  40.5497132  81.2879645  26.4552025  39.0895858  80.8597257
  25.6183933  38.6618033  80.6781258  26.4275670  39.2828302  81.7968048
  43.7804326  39.5458911  90.8439640  42.9899870  39.5283050  90.3044139
  43.5437681  40.0847205  91.5988677  43.9002201  36.3951378  88.1572369
  43.9500206  36.2301385  89.0987891  43.7916125  35.5278637  87.7670249
  32.7838460  39.0739923  75.4464458  32.9326580  39.7575388  74.7931130
  33.5904903  39.0545014  75.9613913  45.4020398  38.8148319  88.4014390
  45.1105206  39.1778300  89.2377851  44.7892529  38.1015328  88.2227722
  46.6016080  36.3801199  80.9216960  47.4362972  36.8191003  81.0854521
  46.7375209  35.9039852  80.1025206  43.6507586  33.9380934  86.8694448
  44.1261708  34.1308580  86.0613300  42.7273152  33.9940120  86.6237832
  30.5391093  35.1005101  76.4525526  30.2937135  34.1967431  76.6505737
  30.7087007  35.1022252  75.5105004  29.8086740  30.8333459  73.9511688
  29.1155985  30.9077814  73.2951724  29.5638492  30.0693802  74.4733205
  36.2833865  41.5688054  72.9176205  35.7107832  42.1878241  72.4646677
  36.8566659  42.1187416  73.4516127  42.3509255  30.8146694  85.1022754
  43.3026678  30.9144792  85.1234978  42.1812706  30.0224963  85.6120838
  39.5031125  41.8525204  74.0484787  40.4361798  41.7870766  74.2517663
  39.4154338  42.6881471  73.5899320  42.1319142  41.1691074  71.0088735
  42.0532773  40.8350938  71.9024493  42.9528809  41.6612842  71.0080207
  44.8297333  34.0352814  84.2165053  44.7973653  33.0968814  84.4024737
  45.4397957  34.1136850  83.4830878  36.6680664  32.9048867  70.2592257
  37.6139769  32.7755075  70.3280675  36.2894909  32.1663529  70.7361686
  44.9791822  30.8263857  84.2623337  44.4630870  30.0422314  84.0753265
  45.8631770  30.4982574  84.4269856  42.6402548  24.5704873  80.2219149
  42.4427370  24.2619961  81.1062481  43.2502254  25.2966512  80.3517079
  50.6473883  35.0968821  83.3571090  51.3777271  34.8354109  83.9178794
  50.0380828  34.3597542  83.3973158  48.7289180  33.2376683  83.9545541
  48.0022344  33.1032648  83.3462033  48.3136467  33.5453512  84.7602259
  34.8523581  30.8298843  70.1947143  33.9455036  30.5331956  70.2709856
  35.1299562  30.5328661  69.3281429  36.4685647  25.3735733  76.3491384
  35.6586375  25.0282818  76.7246630  37.1570064  25.0643277  76.9378996
  38.3976195  24.4513780  77.9715681  38.9507234  24.8709233  78.6305704
  38.6346281  23.5249528  78.0138637  33.6222366  27.6885778  70.3359122
  34.4841530  28.0140677  70.5954939  33.8072710  26.9017274  69.8232188
  41.7755002  26.5614305  77.4794345  41.1953671  27.2199109  77.0972397
  41.5090935  25.7391649  77.0681762  40.2258569  25.9619362  79.6815665
  40.7258347  26.0735897  78.8729984  40.8694176  25.6580415  80.3216474
  27.5526524  35.7026372  80.4905326  27.5297212  35.8014059  79.5387209
  27.8627160  36.5491523  80.8122492  40.5579880  28.7214395  76.5350693
  39.6705735  29.0064046  76.3170888  40.9733869  28.5608158  75.6877970
  43.9094416  28.7460916  80.2505032  44.6854806  29.2357369  80.5229649
  43.1842550  29.1718970  80.7076902  46.3466975  29.4588535  81.3078973
  46.9411466  29.2184271  80.5972281  46.4193559  28.7395666  81.9352509
  28.5664131  43.3022146  81.6222138  28.4318599  42.5422547  81.0560136
  28.1496193  44.0263046  81.1550927  39.7023094  38.4859070  70.6298713
  40.4058944  38.6909072  71.2456369  38.9785742  39.0535832  70.8947797
  40.5320904  34.2368931  76.7500983  40.4756105  34.6937482  75.9108616
  41.0849246  33.4759616  76.5723826  44.3425710  30.0258663  77.5751103
  44.0862644  29.6255299  78.4059310  43.7178578  30.7402457  77.4501242
  48.6538048  32.7654736  80.0822394  48.0937606  32.8347925  80.8553956
  48.0481551  32.5895721  79.3621890  31.7233256  44.1991463  81.8340580
  31.6065641  45.1436896  81.7319271  30.9025703  43.8965025  82.2226380
  41.6109791  38.9241599  72.6797173  42.4455395  38.4922797  72.4974648
  41.4494134  38.7523613  73.6074068  41.2655683  35.4273712  74.0453512
  41.2104487  35.2617984  73.1041957  40.6401738  36.1349745  74.2015702
  34.5751809  24.9281821  73.6238831  34.5630479  25.8723661  73.7807102
  35.4675231  24.7451967  73.3298292  32.7487771  44.8519725  85.0496509
  33.6515017  44.8843335  85.3663004  32.5225141  43.9220176  85.0642845
  34.5041373  43.6050712  81.7106588  33.5537004  43.6052573  81.5970960
  34.8073859  42.8583446  81.1942622  38.3903928  21.5224598  77.8784768
  37.6236324  20.9683085  78.0241450  38.8014633  21.5946467  78.7398919
  50.2394066  49.4411250  82.7752350  50.8772476  49.3217997  82.0715690
  50.1214909  50.3892094  82.8340302  47.0483772  49.3938678  82.7113875
  46.7102284  49.2779743  81.8234409  47.9173541  48.9929843  82.6914881
  42.9070588  51.2474155  78.7010766  42.3435453  51.1564092  77.9327053
  42.7922983  50.4274059  79.1813258  40.4535020  52.7425346  81.5394986
  41.2456312  52.4016171  81.1241285  40.6931670  52.8520321  82.4597139
  48.4870147  54.9145122  74.0125230  47.8358127  55.4999203  73.6259244
  49.2814510  55.4451317  74.0720268  42.4125774  52.0034259  74.4112365
  43.1856650  51.4563247  74.2725241  42.7651173  52.8678509  74.6226826
  45.1767023  50.7087490  84.2080624  45.7730596  50.4843513  83.4937587
  45.2341995  49.9672236  84.8106072  44.7492052  48.1626926  72.0430815
  45.0017572  47.6408447  71.2814278  43.8116611  47.9993071  72.1457498
  49.7935335  47.1662704  79.8505558  50.5798424  46.7482127  79.4995975
  50.0574039  48.0708796  80.0187206  49.9645412  52.6035554  74.5494215
  49.3291245  52.6770181  75.2615119  49.6342818  53.1929153  73.8713294
  55.1943762  47.1037937  80.7538536  55.9268934  46.5337154  80.9876366
  54.4383117  46.7159538  81.1945042  44.4688341  50.0655032  74.2455190
  44.3524599  49.3899935  74.9136274  44.5790600  49.5787405  73.4287343
  46.8119881  49.5265179  77.9501879  46.4478089  48.9995800  78.6614800
  47.6686997  49.1363648  77.7768364  52.7169182  40.8159511  85.2133145
  52.3852507  41.6854922  84.9894360  52.1214795  40.4995795  85.8927175
  46.4525368  44.5555078  72.9463227  46.6199771  45.4235315  73.3133698
  46.2622538  44.7182360  72.0224517  42.6613183  49.4685854  80.6465762
  41.7363680  49.3362068  80.8543454  42.9097596  50.2480073  81.1435705
  52.6097845  45.5354597  82.2926495  51.7014723  45.4670006  81.9985256
  52.5585441  46.0126542  83.1208321  46.4314589  47.0112736  73.9309894
  46.3114215  47.4569787  74.7695375  45.7367178  47.3598054  73.3723432
  40.0221994  49.1119128  81.4809551  40.1514375  49.3653607  82.3948963
  39.3419445  49.7046836  81.1614206  44.1921481  59.7816378  77.5800025
  44.1145511  60.7324203  77.6588506  43.5883125  59.4362250  78.2374952
  54.4759492  43.7371036  84.0704369  53.8333872  44.0303569  83.4244164
  53.9714420  43.6223956  84.8757566  52.1299655  47.4834209  74.7590228
  53.0417512  47.7161596  74.5837926  51.6209303  48.0671253  74.1965307
  46.7671493  46.8431444  85.7685078  47.6132688  47.2670857  85.9119727
  46.7070131  46.1865068  86.4623641  49.4735630  43.6592245  83.0080089
  48.6120109  43.9573499  83.2996827  49.4998065  43.8762644  82.0761122
  46.2897200  52.2034436  79.4153895  46.7535545  52.4822139  78.6258517
  46.0253998  51.3017880  79.2326986  43.1821281  51.7505917  82.3533658
  43.7522638  52.1793185  81.7151143  43.7729393  51.4688502  83.0517844
  45.2266086  48.3257588  76.2243460  45.9290129  48.7778632  76.6917386
  44.8946714  47.6841407  76.8523353  38.9691420  46.5841141  81.5260594
  38.1790474  46.8398669  81.0500704  39.4602667  47.3989478  81.6312634
  40.9206165  46.9485720  78.4844070  40.1237328  47.0604414  79.0027566
  40.6931757  47.2872372  77.6184961  37.2529123  46.8371631  83.9575584
  37.5037161  47.7218641  84.2233160  37.7888671  46.6576233  83.1850676
  46.4659850  55.1398531  76.3005565  46.3305525  55.9850066  76.7290413
  47.0069663  55.3417808  75.5371499  39.9189248  52.6573969  76.8733490
  40.4313768  53.4517219  77.0239055  40.5711961  51.9600259  76.8067092
  41.7284132  55.7739725  78.9556243  41.9050761  56.6957690  78.7677227
  42.5240966  55.4598144  79.3850623  41.0136489  47.8204357  88.8318407
  40.8990004  46.9189614  89.1325506  40.1581007  48.0668054  88.4803223
  49.8152314  38.6629092  84.8304459  49.4716583  39.5530734  84.7543569
  50.1831277  38.4730750  83.9674044  37.8838165  50.9862623  77.6493061
  38.7213387  51.3959631  77.4326769  38.0616432  50.0462065  77.6193255
  49.7802597  48.6537704  73.3376894  49.2649220  49.4242308  73.5765281
  49.5079905  47.9802840  73.9609955  47.3649708  43.4987404  78.3962132
  46.5091304  43.1094255  78.2167771  47.7776659  43.5779365  77.5361918
  48.8948854  41.0333748  82.7953692  48.3913650  40.9963883  81.9821497
  49.1879461  41.9426490  82.8550349  45.1391740  41.1172477  81.8019874
  46.0044737  40.9215286  81.4425763  45.2069249  40.8882829  82.7289230
  54.7536871  51.4070058  75.2730067  53.9766314  51.0681218  74.8285229
  55.4328352  51.4122681  74.5985032  49.5688900  46.5264796  75.1636675
  49.2639035  46.8410945  76.0146818  50.5219342  46.6046216  75.2064008
  48.0135332  52.6855019  76.8129629  47.4856693  51.9507779  76.5002866
  47.5122834  53.4629695  76.5669597  42.7454059  43.3474685  79.1736240
  43.3197811  43.1249867  78.4409433  43.3325042  43.4163380  79.9264842
  51.8033636  49.2348412  79.9800617  52.3165518  49.8678404  80.4822327
  52.4534860  48.6349608  79.6143977  43.0723646  45.3779146  73.1932126
  42.2360959  45.7153833  73.5141400  42.9328416  45.2428126  72.2559263
  45.0476727  40.2215934  77.9011310  44.3941139  39.9064951  77.2767925
  45.0057201  39.5991675  78.6271133  46.1587932  50.5035229  69.8164602
  45.2514994  50.2724483  70.0155751  46.6558964  49.7072848  70.0038584
  49.0656011  59.2132736  72.7361288  48.3917709  59.5164433  73.3446246
  49.4521833  60.0161817  72.3866745  48.2814467  46.7097868  82.2258958
  47.3637029  46.9312815  82.0680646  48.6974611  46.7844178  81.3670665
  49.0649515  48.1089283  77.3561638  49.8121334  48.6210681  77.0468760
  49.3341105  47.7873336  78.2166031  47.3376165  50.6047824  74.3388592
  46.4287385  50.3206857  74.4361062  47.3671249  51.0246903  73.4791899
  52.5695433  54.2154414  78.1079760  52.1157760  53.3745323  78.1644950
  51.9389399  54.8515812  78.4454540  51.5128352  45.1446400  79.3380427
  50.7751109  44.6323786  79.6690670  51.7655126  44.7046781  78.5263704
  51.0128372  56.0530910  79.0429578  51.3051346  56.6135967  78.3241943
  51.5226992  56.3459471  79.7982737  51.6139980  37.9222652  79.9322196
  51.9198856  37.0620015  79.6448111  52.3392584  38.5140272  79.7321190
  37.9064336  48.3253338  78.3203794  37.7088735  47.7322699  77.5954861
  37.3511000  48.0205548  79.0379733  45.8861059  48.2176445  80.4398387
  45.9409669  47.2650281  80.3640864  45.0752261  48.3735884  80.9239686
  47.0352253  52.1456568  71.6776671  46.5971683  51.4292427  71.2182308
  47.7762694  52.3732683  71.1161762  43.8253419  46.8353504  78.1988766
  43.0121285  47.1347675  78.6053958  44.3212413  46.4409193  78.9163249
  45.9761997  56.8311261  80.1323031  45.9338176  57.0572108  79.2031563
  46.8924696  56.5974636  80.2808832  55.1525368  50.4213765  77.7352989
  55.0143266  50.6115361  76.8074178  54.7961587  51.1833148  78.1921040
  43.3167494  44.4071860  83.8150001  43.9566873  44.2660619  83.1172965
  42.4845025  44.1206373  83.4388603  44.0927798  53.7074290  79.9284994
  44.8868396  53.2124611  79.7267569  43.3819490  53.1792154  79.5652699
  40.4010561  47.8517372  76.0044746  39.4708149  47.7901828  76.2214709
  40.4968033  47.3293325  75.2081388  40.3196110  44.3772185  78.5922988
  40.5802928  45.2917518  78.4832149  41.1413283  43.9096628  78.7419601
  41.7921036  45.7909942  85.7621813  42.4644089  45.5827304  85.1134461
  40.9650822  45.5932028  85.3227045  47.6946608  42.4171883  87.7787473
  47.0474523  43.1161833  87.6851950  48.4647623  42.8508027  88.1463722
  47.2647226  59.3812409  74.9508367  47.4398982  58.9100452  75.7653990
  46.5780014  60.0078175  75.1789628  48.2204289  53.6584915  80.9971669
  47.8854122  53.6185685  81.8929318  47.7208235  52.9929631  80.5242079
  42.1948533  49.0652545  86.5224250  42.0568331  48.3332784  87.1235789
  43.1053456  48.9761445  86.2408437  51.1563481  51.0040949  71.2708728
  50.5392651  50.2787778  71.1741781  50.6879969  51.7650310  70.9275802
  44.8230834  48.7772504  86.0107929  45.5330452  48.1365697  85.9694548
  44.7800142  49.0285399  86.9334110  43.5359768  45.7637722  87.8303569
  42.9997125  45.3128461  88.4825165  42.9476476  45.8983631  87.0874033
  42.9462027  45.2226374  70.3930033  42.0691493  45.1015174  70.0292279
  43.4219780  44.4312452  70.1408921  34.4664167  50.0103533  80.4871540
  35.1535207  49.6965263  79.8992555  34.3112295  50.9144898  80.2138791
  39.2698889  44.8993730  84.9156563  39.1857078  44.2919400  84.1806973
  38.4481595  45.3902748  84.9166060  46.1325953  57.5752664  77.6392553
  45.3493475  58.1174344  77.7330778  46.8318698  58.0926644  78.0386794
  49.4422603  43.3847294  80.2826758  49.9391302  42.6317256  79.9627829
  48.6709584  43.4211610  79.7169968  50.5252383  52.1418981  77.8565182
  49.5908662  52.2620443  77.6869886  50.7029052  51.2391448  77.5925192
  46.0257571  45.5264677  80.0098443  45.6555359  44.9735717  80.6979349
  46.5216664  44.9222810  79.4573443  53.9124935  47.9836300  78.3915216
  54.3785387  48.8164292  78.3175519  54.3632435  47.5181282  79.0960474
  51.9801166  54.3280121  75.3901368  52.2561010  54.2136716  76.2995242
  51.1105665  53.9297606  75.3513541  51.8841598  40.3516887  82.4306117
  50.9704677  40.5821114  82.5988324  52.3134699  40.4355331  83.2820150
  48.6155230  58.5766472  79.0334182  48.7977624  57.7588128  79.4961934
  49.4388216  58.7934164  78.5959072  48.9497395  57.5034657  76.2949230
  49.4785162  56.9927112  75.6819392  49.2125615  57.1877188  77.1594763
  39.4514488  55.5198527  84.0384564  40.0367925  54.7742214  84.1712468
  39.2539327  55.8302483  84.9221228  42.3053143  58.5549774  79.0547006
  41.6363519  59.0395902  78.5711046  42.1666013  58.8018994  79.9690385
  34.0432143  48.0904127  82.7589007  34.0816242  47.5567717  83.5526125
  33.5372436  47.5639332  82.1399984  41.4222905  42.9368667  86.2551549
  41.4864232  43.7983498  85.8428947  41.3590025  42.3242669  85.5223908
  40.8975178  45.0091800  89.9024583  41.5247216  44.6268877  90.5162108
  40.0403097  44.7906002  90.2680276  37.6740720  46.8168229  75.8342938
  37.9694162  45.9078907  75.7809992  36.7728756  46.7955968  75.5123941
  41.2034967  44.8924226  81.8170487  40.4821553  45.5060193  81.6777960
  41.9928223  45.4281990  81.7387133  44.0061281  42.2278652  88.0911139
  44.5295683  42.4740949  88.8537448  43.7873614  43.0598687  87.6714276
  39.4028562  44.4982327  75.9582263  39.0741268  43.6179706  75.7757369
  39.7567933  44.4429995  76.8458653  48.6508141  56.1337229  80.4677249
  48.5033103  55.2053937  80.6484819  49.4761634  56.1557320  79.9834324
  42.5170385  44.7855296  76.3257741  42.8566458  45.3141218  75.6036349
  42.9642506  45.1235703  77.1016308  45.2113826  43.1692347  85.7760809
  44.8710646  42.3700160  86.1781489  44.5052832  43.4694058  85.2037642
  45.8630298  40.2541660  84.2288132  46.6856367  39.7802138  84.1067022
  46.1068361  41.0332143  84.7286818  44.5038532  43.2829918  74.5251034
  45.2246895  43.6611171  74.0214751  43.8803836  44.0018795  74.6286012
  48.6469655  43.9875067  75.4609366  48.8633270  44.8699705  75.1598194
  48.1663722  43.5961280  74.7315008  43.3868877  46.9460780  82.0380111
  43.2413457  47.2601083  82.9304392  42.9094080  47.5645681  81.4851009
  45.2465259  43.9363328  82.0861000  45.2326828  43.0404421  81.7493298
  45.9637688  43.9433992  82.7199286  47.0991390  44.3700668  84.1314128
  46.8409168  45.2917739  84.1298458  46.5676431  43.9731103  84.8214592
  52.0437579  57.4751455  76.9104213  52.2174456  56.9097878  76.1578066
  52.5366470  58.2752350  76.7283703  37.8614539  49.4866125  84.9767772
  37.3168007  50.2625933  85.1088046  38.7393889  49.8336929  84.8186893
  44.6502155  42.8177708  77.3548570  44.7718067  41.8894355  77.5539458
  44.3604198  42.8316394  76.4426886  47.5193346  40.5032619  80.4915290
  47.5415043  40.5671952  79.5367270  47.9361405  39.6637128  80.6855796
  57.8976970  50.2387878  78.5294513  58.3408116  49.4895204  78.1313636
  57.0203480  50.2298015  78.1468245  53.0312751  56.7918220  74.0101111
  53.7263656  57.4124913  74.2288426  53.3735902  55.9413571  74.2853489
  38.6480561  48.6136021  87.8697929  37.9062297  48.7618656  88.4562559
  38.3273305  48.8744286  87.0064678  54.9304175  54.2417925  75.5388442
  55.4555499  54.5805198  74.8137762  54.8426527  53.3064941  75.3551577
  39.0937174  56.5001450  79.9008323  39.9195194  56.2005221  79.5206967
  38.7431226  55.7309072  80.3498112  44.0618707  55.8527918  81.9705997
  43.4398717  55.1898623  81.6708225  44.7323574  55.8789050  81.2879645
  37.2945779  54.4187776  80.8597257  36.4577688  53.9909950  80.6781258
  37.2669425  54.6120219  81.7968048  43.6232214  54.4031841  75.4464458
  43.7720335  55.0867306  74.7931130  44.4298658  54.3836931  75.9613913
  41.3784847  50.4297019  76.4525526  41.1330889  49.5259349  76.6505737
  41.5480762  50.4314169  75.5105004  49.0681557  41.3020695  85.8350282
  49.5863501  42.0381722  85.5096771  48.7136690  41.6084688  86.6697041
  40.6480495  46.1625376  73.9511688  39.9549740  46.2369731  73.2951724
  40.4032247  45.3985720  74.4733205  49.3194151  37.7220978  81.3551179
  49.5995905  37.0544167  81.9811605  50.1044758  37.9150073  80.8425842
  47.1227620  56.8979972  72.9176205  46.5501587  57.5170159  72.4646677
  47.6960414  57.4479333  73.4516127  51.2117389  43.2294195  85.2882155
  50.6167321  43.5099208  84.5928643  50.9267086  43.7188096  86.0598896
  50.3424880  57.1817122  74.0484787  51.2755553  57.1162683  74.2517663
  50.2548092  58.0173389  73.5899320  52.9712896  56.4982992  71.0088735
  52.8926528  56.1642856  71.9024493  53.7922563  56.9904760  71.0080207
  47.5074418  48.2340784  70.2592257  48.4533523  48.1046992  70.3280675
  47.1288663  47.4955446  70.7361686  53.4796303  39.8996790  80.2219149
  53.2821124  39.5911879  81.1062481  54.0896008  40.6258429  80.3517079
  45.6917336  46.1590761  70.1947143  44.7848791  45.8623873  70.2709856
  45.9693317  45.8620579  69.3281429  36.6095276  47.4797124  80.6446189
  36.2898060  46.6262432  80.3520563  36.0628704  47.6945702  81.4004156
  40.3875183  50.1959565  84.3615696  40.6061193  51.1276673  84.3803729
  40.8000957  49.8367540  85.1470499  47.3079401  40.7027650  76.3491384
  46.4980130  40.3574735  76.7246630  47.9963818  40.3935194  76.9378996
  49.2369950  39.7805697  77.9715681  49.7900988  40.2001151  78.6305704
  49.4740036  38.8541445  78.0138637  44.4616120  43.0177696  70.3359122
  45.3235284  43.3432594  70.5954939  44.6466464  42.2309192  69.8232188
  36.4783536  51.1000036  82.6139311  35.7847007  50.6853988  82.1009265
  37.2256527  51.1420572  82.0172730  52.6148757  41.8906222  77.4794345
  52.0347426  42.5491026  77.0972397  52.3484689  41.0683567  77.0681762
  51.0652323  41.2911280  79.6815665  51.5652101  41.4027815  78.8729984
  51.7087931  40.9872333  80.3216474  38.3920278  51.0318289  80.4905326
  38.3690967  51.1305977  79.5387209  38.7020915  51.8783440  80.8122492
  41.0507656  53.0894444  84.6051940  42.0050910  53.0578387  84.5381872
  40.8520180  52.6285068  85.4202166  51.3973635  44.0506313  76.5350693
  50.5099490  44.3355963  76.3170888  51.8127624  43.8900076  75.6877970
  54.7488171  44.0752834  80.2505032  55.5248561  44.5649286  80.5229649
  54.0236305  44.5010888  80.7076902  57.1860729  44.7880453  81.3078973
  57.7805220  44.5476189  80.5972281  57.2587313  44.0687584  81.9352509
  39.4057885  58.6314064  81.6222138  39.2712353  57.8714465  81.0560136
  38.9889947  59.3554964  81.1550927  50.5416848  53.8150987  70.6298713
  51.2452698  54.0200990  71.2456369  49.8179497  54.3827749  70.8947797
  51.3714658  49.5660849  76.7500983  51.3149860  50.0229400  75.9108616
  51.9243001  48.8051533  76.5723826  55.1819464  45.3550581  77.5751103
  54.9256399  44.9547216  78.4059310  54.5572332  46.0694375  77.4501242
  59.4931802  48.0946654  80.0822394  58.9331360  48.1639843  80.8553956
  58.8875306  47.9187638  79.3621890  52.4503546  54.2533517  72.6797173
  53.2849149  53.8214715  72.4974648  52.2887888  54.0815530  73.6074068
  52.1049438  50.7565630  74.0453512  52.0498241  50.5909901  73.1041957
  51.4795493  51.4641663  74.2015702  36.8941953  45.9933694  87.8714935
  37.5400816  45.4832648  88.3602160  36.6859104  46.7302376  88.4458360
  45.4145563  40.2573739  73.6238831  45.4024233  41.2015579  73.7807102
  46.3068985  40.0743884  73.3298292  49.2297683  36.8516516  77.8784768
  48.4630078  36.2975002  78.0241450  49.6408388  36.9238384  78.7398919
  55.5885806  63.4918843  72.0430815  55.8411327  62.9700365  71.2814278
  54.6510365  63.3284989  72.1457498  57.2919123  59.8846996  72.9463227
  57.4593525  60.7527232  73.3133698  57.1016292  60.0474278  72.0224517
  53.9117401  60.7071064  73.1932126  53.0754713  61.0445750  73.5141400
  53.7722170  60.5720044  72.2559263  55.8870481  55.5507852  77.9011310
  55.2334894  55.2356869  77.2767925  55.8450956  54.9283592  78.6271133
  56.9981686  65.8327147  69.8164602  56.0908748  65.6016400  70.0155751
  57.4952718  65.0364766  70.0038584  51.2404316  63.1809290  76.0044746
  50.3101904  63.1193745  76.2214709  51.3361788  62.6585243  75.2081388
  53.7855781  60.5518291  70.3930033  52.9085247  60.4307092  70.0292279
  54.2613534  59.7604370  70.1408921  48.5134475  62.1460147  75.8342938
  48.8087916  61.2370825  75.7809992  47.6122511  62.1247886  75.5123941
  50.2422317  59.8274244  75.9582263  49.9135023  58.9471623  75.7757369
  50.5961687  59.7721913  76.8458653  55.3432287  58.6121836  74.5251034
  56.0640649  58.9903088  74.0214751  54.7197591  59.3310712  74.6286012
  55.4895910  58.1469626  77.3548570  55.6111821  57.2186272  77.5539458
  55.1997952  58.1608312  76.4426886  51.4874249  61.4917294  73.9511688
  50.7943494  61.5661649  73.2951724  51.2426001  60.7277638  74.4733205
  58.3468173  63.5632702  70.2592257  59.2927278  63.4338910  70.3280675
  57.9682418  62.8247364  70.7361686  56.5311090  61.4882678  70.1947143
  55.6242545  61.1915791  70.2709856  56.8087071  61.1912496  69.3281429
  58.1473156  56.0319568  76.3491384  57.3373884  55.6866653  76.7246630
  58.8357573  55.7227112  76.9378996  55.3009875  58.3469614  70.3359122
  56.1629039  58.6724512  70.5954939  55.4860219  57.5601110  69.8232188
  56.2539318  55.5865657  73.6238831  56.2417987  56.5307497  73.7807102
  57.1462740  55.4035802  73.3298292  60.0691437  52.1808433  77.8784768
  59.3023833  51.6266920  78.0241450  60.4802142  52.2530302  78.7398919
  26.8082639   1.2623410  60.7370537  26.1570619   1.8477490  60.3504551
  27.6027002   1.7929604  60.7965575  33.0749363  -2.2451655  61.9975374
  32.2978806  -2.5840495  61.5530536  33.7540844  -2.2399031  61.3230339
  24.4800424  -3.1486484  56.5409909  23.5727486  -3.3797230  56.7401058
  24.9771456  -3.9448864  56.7283890  27.3868503   5.5611024  59.4606595
  26.7130202   5.8642720  60.0691553  27.7734325   6.3640104  59.1112052
  25.3564745  -1.5065145  58.4021977  24.9184175  -2.2229286  57.9427615
  26.0975186  -1.2789030  57.8407069  25.5859718   5.7290696  61.6753674
  25.7611474   5.2578739  62.4899297  24.8992506   6.3556462  61.9034935
  29.4775973  -2.6480763  57.9954035  28.8605144  -3.3733935  57.8987088
  29.0092461  -1.8871403  57.6521109  30.3013658   0.6758409  62.1146675
  30.5773502   0.5615003  63.0240549  29.4318157   0.2775893  62.0758848
  27.2709888   3.8512945  63.0194537  27.7997654   3.3405399  62.4064699
  27.5338107   3.5355475  63.8840070  30.3650071   3.8229743  63.6349520
  30.5386949   3.2576165  62.8823372  30.8578962   4.6230638  63.4529010
  31.3525244   3.1396507  60.7346418  32.0476148   3.7603200  60.9533733
  31.6948394   2.2891858  61.0098796  33.2516667   0.5896213  62.2633749
  33.7767991   0.9283485  61.5383069  33.1639019  -0.3456772  62.0796883
  25.4440112   3.2458259  59.6421512  24.8714079   3.8648446  59.1891983
  26.0172906   3.7957621  60.1761434  28.6637372   3.5295409  60.7730094
  29.5968045   3.4640971  60.9762969  28.5760585   4.3651676  60.3144627
  31.2925389   2.8461279  57.7334041  31.2139020   2.5121143  58.6269799
  32.1135055   3.3383047  57.7325514  28.8629340   0.1629275  57.3544020
  29.5665191   0.3679277  57.9701675  28.1391989   0.7306037  57.6193103
  30.7716038   0.6011804  59.4042480  31.6061642   0.1693002  59.2219955
  30.6100381   0.4293818  60.3319374  30.4261930  -2.8956083  60.7698819
  30.3710734  -3.0611811  59.8287263  29.8007985  -2.1880050  60.9261009
  39.4000313  11.1181455  69.4997657  40.0378723  10.9988202  68.7960997
  39.2821156  12.0662299  69.5585609  36.2090019  11.0708883  69.4359181
  35.8708531  10.9549948  68.5479716  37.0779787  10.6700048  69.4160187
  32.0676835  12.9244360  65.4256072  31.5041700  12.8334296  64.6572360
  31.9529230  12.1044264  65.9058565  29.6141267  14.4195551  68.2640293
  30.4062559  14.0786376  67.8486592  29.8537917  14.5290526  69.1842446
  37.6476394  16.5915327  60.7370537  36.9964373  17.1769408  60.3504551
  38.4420756  17.1221522  60.7965575  31.5732021  13.6804464  61.1357671
  32.3462897  13.1333451  60.9970547  31.9257420  14.5448714  61.3472133
  34.3373270  12.3857695  70.9325930  34.9336842  12.1613718  70.2182893
  34.3948242  11.6442441  71.5351378  33.9098299   9.8397131  58.7676121
  34.1623819   9.3178652  58.0059584  32.9722858   9.6763276  58.8702805
  38.9541581   8.8432909  66.5750865  39.7404671   8.4252332  66.2241282
  39.2180286   9.7479001  66.7432513  39.1251659  14.2805759  61.2739521
  38.4897492  14.3540386  61.9860426  38.7949065  14.8699358  60.5958601
  44.3550009   8.7808142  67.4783843  45.0875180   8.2107359  67.7121673
  43.5989364   8.3929743  67.9190349  33.6294587  11.7425236  60.9700496
  33.5130845  11.0670140  61.6381581  33.7396847  11.2557610  60.1532649
  35.9726128  11.2035384  64.6747186  35.6084335  10.6766005  65.3860107
  36.8293244  10.8133853  64.5013671  35.6131615   6.2325283  59.6708534
  35.7806018   7.1005520  60.0379005  35.4228784   6.3952565  58.7469823
  38.3706948  14.6942262  71.3374364  38.0707671  15.5967301  71.2290172
  38.0258008  14.4274445  72.1895517  31.8219430  11.1456059  67.3711069
  30.8969926  11.0132273  67.5788761  32.0703843  11.9250278  67.8681011
  41.7704092   7.2124802  69.0171802  40.8620970   7.1440211  68.7230563
  41.7191688   7.6896747  69.8453627  35.5920836   8.6882941  60.6555201
  35.4720461   9.1339992  61.4940681  34.8973424   9.0368258  60.0968739
  29.1828241  10.7889333  68.2054858  29.3120622  11.0423811  69.1194270
  28.5025692  11.3817041  67.8859513  33.3527728  21.4586583  64.3045332
  33.2751758  22.4094408  64.3833813  32.7489372  21.1132455  64.9620258
  43.6365739   5.4141241  70.7949676  42.9940119   5.7073774  70.1489470
  43.1320667   5.2994161  71.6002872  41.2905902   9.1604414  61.4835535
  42.2023758   9.3931801  61.3083232  40.7815549   9.7441458  60.9210614
  39.8975485  14.1430232  68.8749116  39.2684347  14.3075947  68.1725184
  39.5101147  14.5571842  69.6460080  43.7764716  15.0784670  66.2293480
  43.0915755  15.4583572  65.6790513  43.8608566  15.6879997  66.9625428
  41.0315648  12.7244629  72.8288824  41.2432543  13.3676389  72.1523205
  40.9845396  11.8906946  72.3610754  35.4503446  13.8804640  66.1399201
  35.9141792  14.1592343  65.3503824  35.1860245  12.9788085  65.9572292
  32.3427527  13.4276122  69.0778965  32.9128885  13.8563390  68.4396449
  32.9335639  13.1458707  69.7763150  34.3872332  10.0027793  62.9488767
  35.0896376  10.4548837  63.4162693  34.0552961   9.3611612  63.5768660
  42.1461476  15.6016585  71.0011181  42.9678920  15.1996772  70.7193863
  42.1423879  15.4984819  71.9527297  30.0812412   8.6255925  65.2089377
  29.2843575   8.7374619  65.7272873  29.8538004   8.9642577  64.3430267
  35.9118079  15.1500628  73.1571892  35.9762512  15.6121035  73.9930063
  35.2029003  14.5197993  73.2854201  50.2367469  11.9455333  67.3496152
  49.4831177  11.3762731  67.1940157  50.3715010  11.9117998  68.2966787
  29.0795494  14.3344174  63.5978797  29.5920015  15.1287424  63.7484362
  29.7318207  13.6370464  63.5312398  30.8890379  17.4509930  65.6801550
  31.0657008  18.3727894  65.4922534  31.6847213  17.1368349  66.1095930
  32.0121695  18.9688104  71.6811892  32.5629120  18.8405167  70.9088886
  31.1733171  19.2682993  71.3306785  39.3515812  17.7195102  75.1832615
  39.3334287  18.5403983  74.6912884  40.2735732  17.5949177  75.4082756
  27.0444411  12.6632828  64.3738367  27.8819633  13.0729836  64.1572075
  27.2222679  11.7232270  64.3438561  38.9408843  10.3307908  60.0622200
  38.4255467  11.1012513  60.3010588  38.6686152   9.6573045  60.6855262
  36.5255954   5.1757609  65.1207439  35.6697551   4.7864460  64.9413078
  36.9382906   5.2549570  64.2607224  43.9143118  13.0840263  61.9975374
  43.1372560  12.7451423  61.5530536  44.5934598  13.0892886  61.3230339
  38.7295147   8.2035001  61.8881982  38.4245282   8.5181150  62.7392125
  39.6825589   8.2816420  61.9309315  37.1741578  14.3625224  63.5374936
  36.6462940  13.6277983  63.2248173  36.6729081  15.1399900  63.2914904
  42.1534424  12.5574244  68.6541982  41.4958099  13.2473506  68.7422111
  42.9574824  12.9470676  68.9975968  31.9060306   5.0244890  65.8981547
  32.4804058   4.8020072  65.1654740  32.4931288   5.0933585  66.6510148
  40.9639883  10.9118617  66.7045924  41.4771765  11.5448609  67.2067633
  41.6141107  10.3119813  66.3389284  32.2329893   7.0549351  59.9177432
  31.3967205   7.3924038  60.2386707  32.0934663   6.9198331  58.9804569
  34.2082974   1.8986139  64.6256617  33.5547386   1.5835156  64.0013231
  34.1663448   1.2761880  65.3516439  35.3194179  12.1805434  56.5409909
  34.4121240  11.9494688  56.7401058  35.8165211  11.3843053  56.7283890
  37.4420714   8.3868073  68.9504264  36.5243275   8.6083020  68.7925952
  37.8580858   8.4614383  68.0915972  38.2255762   9.7859488  64.0806944
  38.9727581  10.2980886  63.7714066  38.4947351   9.4643541  64.9411338
  36.4982412  12.2818029  61.0633899  35.5893631  11.9977062  61.1606368
  36.5277496  12.7017108  60.2037206  41.7301679  15.8924619  64.8325066
  41.2764007  15.0515528  64.8890257  41.0995646  16.5286017  65.1699846
  40.6734599   6.8216605  66.0625734  39.9357356   6.3093991  66.3935976
  40.9261373   6.3816986  65.2509011  40.1734619  17.7301115  65.7674884
  40.4657593  18.2906172  65.0487250  40.6833239  18.0229676  66.5228044
  40.7746226  -0.4007143  66.6567503  41.0805103  -1.2609780  66.3693418
  41.4998831   0.1910477  66.4566497  27.0670582  10.0023543  65.0449101
  26.8694982   9.4092904  64.3200167  26.5117246   9.6975753  65.7625040
  35.0467306   9.8946650  67.1643694  35.1015916   8.9420486  67.0886171
  34.2358508  10.0506089  67.6484992  36.1958500  13.8226773  58.4021977
  35.7577930  13.1062632  57.9427615  36.9368941  14.0502888  57.8407069
  32.9859666   8.5123709  64.9234073  32.1727532   8.8117880  65.3299265
  33.4818660   8.1179398  65.6408555  35.1368244  18.5081466  66.8568338
  35.0944423  18.7342313  65.9276870  36.0530943  18.2744841  67.0054139
  44.3131615  12.0983970  64.4598296  44.1749513  12.2885566  63.5319485
  43.9567833  12.8603353  64.9166347  44.3400994  14.1660497  69.4709567
  44.7737501  14.0735786  70.3192621  45.0532575  14.1417997  68.8329583
  33.2534045  15.3844495  66.6530300  34.0474643  14.8894815  66.4512875
  32.5425737  14.8562358  66.2898006  38.0728889  17.7662591  71.0042668
  38.1265911  18.3353527  71.7720384  37.2043670  17.9364476  70.6396705
  29.5616808   9.5287577  62.7290053  28.6314396   9.4672033  62.9460015
  29.6574280   9.0063530  61.9326694  29.4802357   6.0542390  65.3168295
  29.7409174   6.9687723  65.2077455  30.3019529   5.5866832  65.4664907
  45.2016544  14.2084197  72.0042453  45.3952434  15.1130008  72.2501728
  45.1017162  13.7491616  72.8381038  37.0316989  11.9322853  72.5629600
  37.9609049  12.0834012  72.3898567  36.6108019  12.0206874  71.7078246
  35.8305321  15.9573517  70.3328137  35.6916406  15.5892302  71.2054076
  35.0419917  16.4721157  70.1612095  36.4253473  21.0582614  61.6753674
  36.6005228  20.5870657  62.4899297  35.7386261  21.6848380  61.9034935
  37.3810536  15.3355120  67.7216975  37.0460368  15.2955890  68.6174625
  36.8814481  14.6699836  67.2487385  40.3169727  12.6811154  57.9954035
  39.6998898  11.9557982  57.8987088  39.8486216  13.4420515  57.6521109
  41.9723859  17.3910063  75.6559815  41.9136405  16.7069283  74.9890398
  42.3743377  18.1329053  75.2040441  30.9914558  24.2071977  68.4493534
  31.2311156  24.8390501  69.1272553  30.1483754  23.8560017  68.7358893
  32.1068273   6.8996579  57.1175339  31.2297740   6.7785379  56.7537586
  32.5826026   6.1082657  56.8654228  41.9741266  15.3549647  73.8873795
  41.0868045  15.0175568  74.0100194  42.5439817  14.6232678  74.1242560
  23.6270413  11.6873738  67.2116846  24.3141453  11.3735468  66.6237862
  23.4718542  12.5915103  66.9384098  35.5042420  20.0151099  70.8535038
  35.4312591  20.8206070  71.3654343  35.0619813  20.2143065  70.0283060
  35.2932199  19.2522869  64.3637860  34.5099721  19.7944549  64.4576084
  35.9924945  19.7696849  64.7632101  38.6028849   5.0617498  67.0072065
  39.0997549   4.3087461  66.6873135  37.8315831   5.0981815  66.4415274
  46.4558607  10.7657864  68.6490357  46.4448483  11.6482579  68.2784290
  45.5875986  10.4129415  68.4544894  37.9641103  19.9137933  73.0093197
  38.6769075  20.5485398  72.9369098  37.4731132  20.0101799  72.1933199
  39.6858630  13.8189186  64.5810488  38.7514909  13.9390648  64.4115193
  39.8635299  12.9161652  64.3170498  35.1863818   7.2034881  66.7343750
  34.8161606   6.6505922  67.4224655  35.6822911   6.5993015  66.1818750
  43.0731182   9.6606505  65.1160523  43.5391634  10.4934497  65.0420825
  43.5238682   9.1951487  65.8205781  33.0153017  17.6632376  73.8298768
  33.7162476  18.2968859  73.9828162  32.5448132  18.0047108  73.0694407
  41.1407413  16.0050326  62.1146675  41.4167257  15.8906921  63.0240549
  40.2711911  15.6067811  62.0758848  40.8154303  10.2176984  71.6551318
  40.1625753  10.4652891  71.0003771  41.1934683   9.4041122  71.3213795
  37.7761477  20.2536677  65.7579488  37.9583871  19.4358333  66.2207241
  38.5994463  20.4704369  65.3204378  38.1103642  19.1804862  63.0194537
  38.6391409  18.6697317  62.4064699  38.3731862  18.8647392  63.8840070
  28.6120735  17.1968731  70.7629870  29.1974172  16.4512419  70.8957774
  28.4145573  17.5072688  71.6466534  31.4659390  20.2319979  65.7792313
  30.7969765  20.7166107  65.2956353  31.3272260  20.4789199  66.6935691
  35.6064659  22.2663722  72.3774971  36.1582967  22.4295344  73.1424056
  35.9470852  22.8568160  71.7054996  26.8346967   8.4938434  62.5588245
  27.1300408   7.5849112  62.5055299  25.9335003   8.4726173  62.2369247
  38.7433046  20.2145698  69.3638653  38.6184185  19.4135438  68.8549599
  39.4012137  20.7091891  68.8752623  40.8067954  18.0154718  70.9918203
  39.8598290  17.8960069  70.9196530  41.1550727  17.1277216  71.0744465
  28.5634809   6.1752532  62.6827570  28.2347515   5.2949910  62.5002676
  28.9174179   6.1200200  63.5703959  37.8114388  17.8107434  67.1922555
  37.6639350  16.8824142  67.3730126  38.6367881  17.8327525  66.7079631
  31.6776632   6.4625501  63.0503048  32.0172704   6.9911423  62.3281656
  32.1248752   6.8005907  63.8261614  41.4148509  18.6335993  68.2787428
  42.3395057  18.4278854  68.1411879  41.2463813  18.3852394  69.1876770
  33.6644779   4.9600123  61.2496340  34.3853142   5.3381376  60.7460057
  33.0410083   5.6789000  61.3531318  37.8075902   5.6645272  62.1854673
  38.0239516   6.5469910  61.8843501  37.3269969   5.2731485  61.4560315
  41.2043826  19.1521660  63.6349520  41.3780703  18.5868083  62.8823372
  41.6972717  19.9522555  63.4529010  33.8108402   4.4947913  64.0793877
  33.9324313   3.5664560  64.2784765  33.5210445   4.5086599  63.1672192
  47.0583217  11.9158083  65.2539819  47.5014363  11.1665409  64.8558943
  46.1809727  11.9068220  64.8713551  42.1918998  18.4688425  60.7346418
  42.8869903  19.0895118  60.9533733  42.5342148  17.6183776  61.0098796
  44.0910421  15.9188130  62.2633749  44.6161745  16.2575403  61.5383069
  44.0032774  14.9835146  62.0796883  35.7530470  19.8322204  74.3923625
  36.0617596  19.5871351  75.2646325  36.5505952  20.0368842  73.9042496
  35.7751082  21.9860114  66.6229002  35.3356072  21.4936492  67.3161859
  36.5259199  21.4433081  66.3821077  28.2543421  18.1771654  66.6253630
  29.0801441  17.8775426  66.2452274  27.9037473  17.4079277  67.0743419
  33.2224954  17.5298123  68.6951304  32.6004963  16.8668828  68.3953531
  33.8929821  17.5559255  68.0124951  26.4552026  16.0957981  67.5842564
  25.6183934  15.6680155  67.4026565  26.4275672  16.2890424  68.5213355
  43.7804327  16.5521034  77.5684947  42.9899871  16.5345173  77.0289446
  43.5437682  17.0909328  78.3233983  43.9002202  13.4013500  74.8817675
  43.9500207  13.2363508  75.8233198  43.7916126  12.5340759  74.4915556
  32.7838461  16.0802046  62.1709764  32.9326581  16.7637510  61.5176437
  33.5904905  16.0607136  62.6859220  45.4020399  15.8210442  75.1259697
  45.1105208  16.1840422  75.9623158  44.7892531  15.1077450  74.9473029
  46.6016082  13.3863322  67.6462267  47.4362973  13.8253126  67.8099827
  46.7375210  12.9101975  66.8270513  43.6507587  10.9443057  73.5939755
  44.1261709  11.1370703  72.7858606  42.7273153  11.0002242  73.3483138
  30.5391094  12.1067224  63.1770833  30.2937136  11.2029554  63.3751043
  30.7087009  12.1084374  62.2350311  29.8086742   7.8395581  60.6756995
  29.1155987   7.9139936  60.0197030  29.5638494   7.0755925  61.1978511
  36.2833867  18.5750177  59.6421512  35.7107834  19.1940364  59.1891983
  36.8566660  19.1249538  60.1761434  42.3509256   7.8208817  71.8268060
  43.3026679   7.9206914  71.8480284  42.1812707   7.0287085  72.3366145
  39.5031126  18.8587327  60.7730094  40.4361800  18.7932888  60.9762969
  39.4154339  19.6943593  60.3144627  44.8297334  11.0414936  70.9410360
  44.7973654  10.1030937  71.1270044  45.4397958  11.1198973  70.2076185
  36.6680665   9.9110989  56.9837564  37.6139770   9.7817197  57.0525982
  36.2894910   9.1725651  57.4606992  44.9791823   7.8325980  70.9868643
  44.4630871   7.0484436  70.7998572  45.8631771   7.5044696  71.1515163
  42.6402550   1.5766995  66.9464456  42.4427371   1.2682083  67.8307788
  43.2502255   2.3028634  67.0762386  50.6473884  12.1030943  70.0816397
  51.3777273  11.8416231  70.6424100  50.0380830  11.3659665  70.1218465
  48.7289181  10.2438806  70.6790848  48.0022345  10.1094771  70.0707340
  48.3136468  10.5515634  71.4847566  34.8523582   7.8360966  56.9192449
  33.9455038   7.5394078  56.9955163  35.1299563   7.5390784  56.0526736
  36.4685648   2.3797855  63.0736691  35.6586376   2.0344940  63.4491937
  37.1570065   2.0705399  63.6624302  38.3976196   1.4575902  64.6960987
  38.9507235   1.8771356  65.3551010  38.6346283   0.5311650  64.7383943
  33.6222367   4.6947901  57.0604428  34.4841531   5.0202799  57.3200246
  33.8072711   3.9079397  56.5477494  41.7755003   3.5676427  64.2039651
  41.1953672   4.2261231  63.8217704  41.5090936   2.7453772  63.7927069
  40.2258570   2.9681485  66.4060972  40.7258348   3.0798020  65.5975291
  40.8694178   2.6642538  67.0461780  27.5526525  12.7088494  67.2150632
  27.5297213  12.8076182  66.2632515  27.8627162  13.5553645  67.5367798
  40.5579881   5.7276518  63.2596000  39.6705736   6.0126168  63.0416195
  40.9733870   5.5670281  62.4123277  46.3466976   6.4650658  68.0324280
  46.9411467   6.2246394  67.3217588  46.4193560   5.7457788  68.6597816
  28.5664132  20.3084269  68.3467444  28.4318600  19.5484670  67.7805442
  28.1496194  21.0325169  67.8796233  39.7023095  15.4921192  57.3544020
  40.4058945  15.6971195  57.9701675  38.9785744  16.0597954  57.6193103
  40.5320905  11.2431054  63.4746290  40.4756107  11.6999605  62.6353922
  41.0849248  10.4821738  63.2969133  44.3425711   7.0320786  64.2996409
  44.0862645   6.6317421  65.1304617  43.7178579   7.7464579  64.1746549
  48.6538049   9.7716859  66.8067701  48.0937607   9.8410048  67.5799263
  48.0481552   9.5957843  66.0867197  31.7233258  21.2053586  68.5585887
  31.6065642  22.1499018  68.4564577  30.9025704  20.9027147  68.9471686
  41.6109792  15.9303722  59.4042480  42.4455396  15.4984920  59.2219955
  41.4494135  15.7585735  60.3319374  41.2655684  12.4335835  60.7698819
  41.2104488  12.2680106  59.8287263  40.6401740  13.1411868  60.9261009
  34.5751810   1.9343944  60.3484137  34.5630480   2.8785784  60.5052408
  35.4675232   1.7514089  60.0543599  32.7487772  21.8581848  71.7741816
  33.6515019  21.8905458  72.0908310  32.5225142  20.9282299  71.7888151
  34.5041374  20.6112834  68.4351894  33.5537005  20.6114696  68.3216266
  34.8073860  19.8645569  67.9187929  38.3903929  -1.4713279  64.6030074
  37.6236325  -2.0254793  64.7486757  38.8014634  -1.3991411  65.4644226
  50.2394067  26.4473373  69.4997657  50.8772477  26.3280120  68.7960997
  50.1214910  27.3954217  69.5585609  47.0483774  26.4000801  69.4359181
  46.7102285  26.2841866  68.5479716  47.9173542  25.9991966  69.4160187
  42.9070589  28.2536277  65.4256072  42.3435454  28.1626214  64.6572360
  42.7922984  27.4336182  65.9058565  47.5303557  27.5535653  75.3945387
  47.5192197  27.1588451  74.5225890  47.6924196  26.8201725  75.9879158
  40.4535021  29.7487469  68.2640293  41.2456313  29.4078293  67.8486592
  40.6931671  29.8582444  69.1842446  44.2510818  30.3372764  74.3424571
  43.9600684  31.2418395  74.2271237  44.8867802  30.3789292  75.0568640
  45.1767025  27.7149613  70.9325930  45.7730597  27.4905635  70.2182893
  45.2341996  26.9734358  71.5351378  49.7935336  24.1724827  66.5750865
  50.5798425  23.7544250  66.2241282  50.0574040  25.0770919  66.7432513
  49.9645413  29.6097677  61.2739521  49.3291246  29.6832303  61.9860426
  49.6342820  30.1991276  60.5958601  55.1943763  24.1100060  67.4783843
  55.9268935  23.5399277  67.7121673  54.4383119  23.7221660  67.9190349
  46.8119883  26.5327301  64.6747186  46.4478090  26.0057922  65.3860107
  47.6686999  26.1425770  64.5013671  52.7169183  17.8221634  71.9378452
  52.3852508  18.6917045  71.7139667  52.1214797  17.5057918  72.6172482
  49.2100703  30.0234180  71.3374364  48.9101426  30.9259219  71.2290172
  48.8651762  29.7566363  72.1895517  42.6613184  26.4747977  67.3711069
  41.7363681  26.3424191  67.5788761  42.9097598  27.2542196  67.8681011
  52.6097847  22.5416720  69.0171802  51.7014724  22.4732128  68.7230563
  52.5585442  23.0188665  69.8453627  40.0221995  26.1181250  68.2054858
  40.1514377  26.3715729  69.1194270  39.3419447  26.7108958  67.8859513
  44.1921483  36.7878500  64.3045332  44.1145512  37.7386325  64.3833813
  43.5883126  36.4424373  64.9620258  46.6838712  23.9606366  76.9606699
  45.9072047  24.5200286  76.9509564  47.3229276  24.4463149  77.4821569
  54.4759493  20.7433158  70.7949676  53.8333873  21.0365692  70.1489470
  53.9714422  20.6286079  71.6002872  52.1299657  24.4896332  61.4835535
  53.0417513  24.7223718  61.3083232  51.6209304  25.0733376  60.9210614
  44.9385085  26.7691819  76.5224666  45.6799769  27.3076863  76.2459490
  44.2322070  27.3958108  76.6796218  50.4140424  28.9120959  75.1196828
  50.8223780  28.4703370  74.3751460  49.6917686  28.3373587  75.3731020
  46.7671494  23.8493566  72.4930384  47.6132690  24.2732980  72.6365033
  46.7070132  23.1927191  73.1868948  50.7369239  29.4722150  68.8749116
  50.1078101  29.6367864  68.1725184  50.3494901  29.8863760  69.6460080
  54.6158471  30.4076588  66.2293480  53.9309509  30.7875489  65.6790513
  54.7002320  31.0171915  66.9625428  49.9170940  21.5097935  74.1511558
  49.6731872  22.2639995  73.6145834  50.1930870  21.8883282  74.9858805
  51.8709403  28.0536547  72.8288824  52.0826298  28.6968307  72.1523205
  51.8239151  27.2198864  72.3610754  49.4735631  20.6654368  69.7325396
  48.6120111  20.9635621  70.0242133  49.4998066  20.8824766  68.8006428
  46.2897201  29.2096558  66.1399201  46.7535546  29.4884261  65.3503824
  46.0253999  28.3080003  65.9572292  43.1821282  28.7568040  69.0778965
  43.7522639  29.1855308  68.4396449  43.7729394  28.4750624  69.7763150
  43.6746448  23.9231467  77.3239976  43.0445109  24.6047748  77.5575373
  43.5682536  23.8114549  76.3793114  38.9691421  23.5903263  68.2505900
  38.1790475  23.8460792  67.7746011  39.4602668  24.4051601  68.3557941
  52.9855230  30.9308502  71.0011181  53.8072674  30.5288690  70.7193863
  52.9817633  30.8276737  71.9527297  40.9206166  23.9547842  65.2089377
  40.1237330  24.0666537  65.7272873  40.6931759  24.2934495  64.3430267
  46.7511834  30.4792546  73.1571892  46.8156266  30.9412953  73.9930063
  46.0422758  29.8489911  73.2854201  37.2529124  23.8433754  70.6820891
  37.5037162  24.7280764  70.9478467  37.7888672  23.6638355  69.9095983
  61.0761224  27.2747251  67.3496152  60.3224932  26.7054649  67.1940157
  61.2108765  27.2409915  68.2966787  46.4659852  32.1460653  63.0250872
  46.3305526  32.9912189  63.4535720  47.0069664  32.3479931  62.2616806
  39.9189249  29.6636091  63.5978797  40.4313770  30.4579341  63.7484362
  40.5711962  28.9662382  63.5312398  41.7284134  32.7801847  65.6801550
  41.9050762  33.7019812  65.4922534  42.5240967  32.4660267  66.1095930
  45.8695152  19.6410112  77.2785484  46.6104866  20.2417265  77.1989946
  46.1013075  18.8987750  76.7203526  41.0136490  24.8266479  75.5563713
  40.8990005  23.9251737  75.8570812  40.1581008  25.0730176  75.2048530
  48.0928328  32.7684220  77.1551214  47.6492182  31.9820598  76.8372118
  48.7545542  32.9563370  76.4895105  42.8515449  34.2980021  71.6811892
  43.4022874  34.1697085  70.9088886  42.0126925  34.5974910  71.3306785
  50.1909566  33.0487020  75.1832615  50.1728041  33.8695901  74.6912884
  51.1129486  32.9241095  75.4082756  46.6482620  30.5631149  76.0256124
  47.1810957  29.8019437  75.7955432  46.1196701  30.2704801  76.7680278
  49.8152315  15.6691215  71.5549765  49.4716585  16.5592857  71.4788876
  50.1831278  15.4792873  70.6919350  47.3649709  20.5049527  65.1207439
  46.5091305  20.1156377  64.9413078  47.7776661  20.5841488  64.2607224
  48.8948856  18.0395870  69.5198999  48.3913651  18.0026005  68.7066804
  49.1879462  18.9488613  69.5795655  45.1391741  18.1234600  68.5265180
  46.0044738  17.9277409  68.1671070  45.2069250  17.8944952  69.4534537
  54.7536872  28.4132181  61.9975374  53.9766315  28.0743340  61.5530536
  55.4328353  28.4184804  61.3230339  48.0135333  29.6917142  63.5374936
  47.4856694  28.9569901  63.2248173  47.5122836  30.4691818  63.2914904
  52.9928179  27.8866162  68.6541982  52.3351853  28.5765423  68.7422111
  53.7968578  28.2762594  68.9975968  42.7454061  20.3536808  65.8981547
  43.3197812  20.1311989  65.1654740  43.3325043  20.4225502  66.6510148
  51.8033638  26.2410535  66.7045924  52.3165519  26.8740527  67.2067633
  52.4534862  25.6411730  66.3389284  45.0476728  17.2278057  64.6256617
  44.3941141  16.9127074  64.0013231  45.0057202  16.6053797  65.3516439
  49.0656012  36.2194859  59.4606595  48.3917711  36.5226556  60.0691553
  49.4521834  37.0223939  59.1112052  48.2814469  23.7159990  68.9504264
  47.3637030  23.9374937  68.7925952  48.6974612  23.7906301  68.0915972
  49.0649516  25.1151406  64.0806944  49.8121335  25.6272803  63.7714066
  49.3341106  24.7935459  64.9411338  52.5695434  31.2216536  64.8325066
  52.1157761  30.3807446  64.8890257  51.9389401  31.8577935  65.1699846
  51.5128353  22.1508522  66.0625734  50.7751110  21.6385908  66.3935976
  51.7655127  21.7108904  65.2509011  51.0128373  33.0593033  65.7674884
  51.3051348  33.6198090  65.0487250  51.5226994  33.3521594  66.5228044
  51.6139981  14.9284774  66.6567503  51.9198858  14.0682138  66.3693418
  52.3392586  15.5202394  66.4566497  45.8861061  25.2238567  67.1643694
  45.9409670  24.2712404  67.0886171  45.0752263  25.3798006  67.6484992
  43.8253420  23.8415627  64.9234073  43.0121286  24.1409798  65.3299265
  44.3212415  23.4471316  65.6408555  45.9761998  33.8373384  66.8568338
  45.9338177  34.0634230  65.9276870  46.8924697  33.6036759  67.0054139
  49.4227632  24.3057452  73.7548967  49.7777020  24.5328925  74.6143433
  50.0699763  24.6375828  73.1326222  55.1525369  27.4275887  64.4598296
  55.0143268  27.6177483  63.5319485  54.7961588  28.1895270  64.9166347
  43.3167495  21.4133983  70.5395308  43.9566875  21.2722742  69.8418271
  42.4845026  21.1268496  70.1633910  55.1794749  29.4952414  69.4709567
  55.6131255  29.4027703  70.3192621  55.8926329  29.4709915  68.8329583
  44.0927799  30.7136413  66.6530300  44.8868398  30.2186733  66.4512875
  43.3819492  30.1854276  66.2898006  48.9122644  33.0954509  71.0042668
  48.9659666  33.6645445  71.7720384  48.0437425  33.2656394  70.6396705
  40.4010563  24.8579495  62.7290053  39.4708151  24.7963950  62.9460015
  40.4968035  24.3355447  61.9326694  40.3196112  21.3834308  65.3168295
  40.5802929  22.2979641  65.2077455  41.1413284  20.9158750  65.4664907
  41.7921037  22.7972065  72.4867119  42.4644090  22.5889427  71.8379768
  40.9650824  22.5994151  72.0472352  56.0410298  29.5376115  72.0042453
  56.2346188  30.4421926  72.2501728  55.9410916  29.0783534  72.8381038
  47.6946609  19.4234006  74.5032780  47.0474524  20.1223955  74.4097256
  48.4647624  19.8570150  74.8709028  51.1025407  29.6882858  77.5783333
  50.9510913  29.4593409  76.6613417  51.0930086  30.6453459  77.5914678
  47.8710743  27.2614771  72.5629600  48.8002803  27.4125930  72.3898567
  47.4501773  27.3498791  71.7078246  46.6699075  31.2865435  70.3328137
  46.5310161  30.9184219  71.2054076  45.8813671  31.8013074  70.1612095
  47.2647227  36.3874531  61.6753674  47.4398983  35.9162575  62.4899297
  46.5780015  37.0140298  61.9034935  48.2204290  30.6647038  67.7216975
  47.8854123  30.6247808  68.6174625  47.7208236  29.9991754  67.2487385
  42.1948534  26.0714668  73.2469556  42.0568332  25.3394907  73.8481095
  43.1053458  25.9823568  72.9653744  44.8230835  25.7834627  72.7353236
  45.5330453  25.1427819  72.6939854  44.7800143  26.0347522  73.6579417
  52.8117614  32.7201980  75.6559815  52.7530160  32.0361200  74.9890398
  53.2137132  33.4620970  75.2040441  43.5359769  22.7699845  74.5548875
  42.9997126  22.3190583  75.2070472  42.9476477  22.9045754  73.8119340
  41.8308312  39.5363894  68.4493534  42.0704911  40.1682418  69.1272553
  40.9877509  39.1851934  68.7358893  52.8135021  30.6841564  73.8873795
  51.9261800  30.3467486  74.0100194  53.3833572  29.9524596  74.1242560
  39.2698890  21.9055853  71.6401870  39.1857079  21.2981522  70.9052280
  38.4481597  22.3964871  71.6411366  46.3436174  35.3443017  70.8535038
  46.2706346  36.1497988  71.3654343  45.9013567  35.5434982  70.0283060
  46.1325954  34.5814787  64.3637860  45.3493476  35.1236467  64.4576084
  46.8318699  35.0988766  64.7632101  49.4422604  20.3909416  67.0072065
  49.9391304  19.6379378  66.6873135  48.6709585  20.4273733  66.4415274
  57.2952361  26.0949782  68.6490357  57.2842238  26.9774497  68.2784290
  56.4269741  25.7421332  68.4544894  48.8034858  35.2429851  73.0093197
  49.5162830  35.8777315  72.9369098  48.3124886  35.3393717  72.1933199
  50.5252385  29.1481103  64.5810488  49.5908663  29.2682566  64.4115193
  50.7029053  28.2453570  64.3170498  46.0257573  22.5326799  66.7343750
  45.6555360  21.9797839  67.4224655  46.5216665  21.9284933  66.1818750
  53.9124936  24.9898423  65.1160523  54.3785388  25.8226414  65.0420825
  54.3632437  24.5243404  65.8205781  43.8546771  32.9924294  73.8298768
  44.5556231  33.6260777  73.9828162  43.3841886  33.3339026  73.0694407
  51.9801167  31.3342244  62.1146675  52.2561011  31.2198838  63.0240549
  51.1105666  30.9359729  62.0758848  51.8841599  17.3579010  69.1551424
  50.9704679  17.5883236  69.3233631  52.3134700  17.4417454  70.0065456
  51.6548057  25.5468902  71.6551318  51.0019508  25.7944809  71.0003771
  52.0328437  24.7333040  71.3213795  48.6155231  35.5828595  65.7579488
  48.7977626  34.7650251  66.2207241  49.4388217  35.7996287  65.3204378
  48.9497397  34.5096780  63.0194537  49.4785163  33.9989234  62.4064699
  49.2125616  34.1939310  63.8840070  47.7035630  26.2888713  78.1417355
  47.0276267  26.1882842  78.8119730  48.5263264  26.1327926  78.6053352
  39.4514489  32.5260649  70.7629870  40.0367926  31.7804337  70.8957774
  39.2539328  32.8364606  71.6466534  42.3053145  35.5611897  65.7792313
  41.6363520  36.0458024  65.2956353  42.1666014  35.8081117  66.6935691
  34.0432144  25.0966249  69.4834313  34.0816244  24.5629840  70.2771432
  33.5372437  24.5701455  68.8645291  46.4458413  37.5955640  72.3774971
  46.9976721  37.7587262  73.1424056  46.7864607  38.1860078  71.7054996
  41.4222906  19.9430790  72.9796856  41.4864233  20.8045621  72.5674253
  41.3590027  19.3304792  72.2469214  40.8975179  22.0153922  76.6269890
  41.5247218  21.6331000  77.2407414  40.0403098  21.7968124  76.9925582
  51.2969288  32.4216898  78.2323625  51.8409191  33.0346856  77.7378580
  50.7156132  32.9796476  78.7490638  37.6740722  23.8230352  62.5588245
  37.9694163  22.9141030  62.5055299  36.7728757  23.8018091  62.2369247
  49.5826800  35.5437616  69.3638653  49.4577940  34.7427355  68.8549599
  50.2405892  36.0383809  68.8752623  41.2034969  21.8986348  68.5415793
  40.4821554  22.5122316  68.4023267  41.9928224  22.4344113  68.4632439
  51.6461709  33.3446636  70.9918203  50.6992044  33.2251987  70.9196530
  51.9944482  32.4569134  71.0744465  44.0061282  19.2340775  74.8156445
  44.5295684  19.4803071  75.5782754  43.7873615  20.0660809  74.3959583
  39.4028563  21.5044449  62.6827570  39.0741269  20.6241828  62.5002676
  39.7567934  21.4492118  63.5703959  48.6508142  33.1399352  67.1922555
  48.5033105  32.2116059  67.3730126  49.4761636  33.1619443  66.7079631
  42.5170386  21.7917419  63.0503048  42.8566459  22.3203340  62.3281656
  42.9642507  22.1297825  63.8261614  52.2542264  33.9627911  68.2787428
  53.1788811  33.7570772  68.1411879  52.0857567  33.7144312  69.1876770
  45.2113827  20.1754470  72.5006116  44.8710648  19.3762283  72.9026796
  44.5052834  20.4756181  71.9282949  45.8630299  17.2603782  70.9533439
  46.6856368  16.7864260  70.8312329  46.1068363  18.0394266  71.4532125
  44.5038534  20.2892041  61.2496340  45.2246896  20.6673293  60.7460057
  43.8803838  21.0080917  61.3531318  43.3868878  23.9522903  68.7625417
  43.2413459  24.2663206  69.6549699  42.9094081  24.5707803  68.2096316
  45.2465261  20.9425451  68.8106307  45.2326829  20.0466544  68.4738605
  45.9637689  20.9496115  69.4444593  47.0991391  21.3762791  70.8559434
  46.8409169  22.2979862  70.8543765  46.5676432  20.9793226  71.5459898
  52.0437580  34.4813578  63.6349520  52.2174458  33.9160001  62.8823372
  52.5366471  35.2814473  63.4529010  37.8614540  26.4928247  71.7013079
  37.3168008  27.2688055  71.8333353  38.7393890  26.8399052  71.5432200
  44.6502157  19.8239831  64.0793877  44.7718068  18.8956477  64.2784765
  44.3604199  19.8378517  63.1672192  47.5193347  17.5094741  67.2160597
  47.5415044  17.5734075  66.2612576  47.9361406  16.6699250  67.4101103
  57.8976971  27.2450001  65.2539819  58.3408117  26.4957326  64.8558943
  57.0203482  27.2360137  64.8713551  53.0312753  33.7980343  60.7346418
  53.7263657  34.4187035  60.9533733  53.3735903  32.9475694  61.0098796
  38.6480562  25.6198143  74.5943235  37.9062298  25.7680779  75.1807866
  38.3273306  25.8806409  73.7309985  54.9304176  31.2480048  62.2633749
  55.4555500  31.5867321  61.5383069  54.8426528  30.3127063  62.0796883
  46.5924224  35.1614122  74.3923625  46.9011351  34.9163268  75.2646325
  47.3899707  35.3660760  73.9042496  46.6144837  37.3152031  66.6229002
  46.1749827  36.8228410  67.3161859  47.3652954  36.7724999  66.3821077
  39.0937176  33.5063572  66.6253630  39.9195195  33.2067344  66.2452274
  38.7431228  32.7371195  67.0743419  44.0618709  32.8590040  68.6951304
  43.4398718  32.1960745  68.3953531  44.7323576  32.8851172  68.0124951
  37.2945781  31.4249899  67.5842564  36.4577689  30.9972073  67.4026565
  37.2669426  31.6182342  68.5213355  44.1343236  21.3371828  78.2883810
  44.1831392  22.2133951  77.9061579  44.6765750  20.7949221  77.7155453
  54.6198082  31.8812952  77.5684947  53.8293626  31.8637091  77.0289446
  54.3831436  32.4201245  78.3233983  54.7395957  28.7305418  74.8817675
  54.7893962  28.5655425  75.8233198  54.6309880  27.8632677  74.4915556
  43.6232216  31.4093964  62.1709764  43.7720336  32.0929428  61.5176437
  44.4298659  31.3899054  62.6859220  52.0299719  24.7136346  76.1976982
  52.9309582  24.5742811  75.9060980  52.1047694  24.8790801  77.1375159
  46.3642525  22.0903201  75.0430168  45.4945834  22.3836767  74.7712757
  46.6002005  22.6743646  75.7637432  56.2414154  31.1502360  75.1259697
  55.9498962  31.5132340  75.9623158  55.6286285  30.4369368  74.9473029
  57.4409836  28.7155239  67.6462267  58.2756727  29.1545043  67.8099827
  57.5768965  28.2393893  66.8270513  54.4901342  26.2734974  73.5939755
  54.9655464  26.4662621  72.7858606  53.5666907  26.3294160  73.3483138
  41.3784849  27.4359141  63.1770833  41.1330891  26.5321471  63.3751043
  41.5480763  27.4376292  62.2350311  49.0681558  18.3082818  72.5595589
  49.5863502  19.0443845  72.2342077  48.7136691  18.6146811  73.3942348
  40.6480496  23.1687499  60.6756995  39.9549741  23.2431854  60.0197030
  40.4032248  22.4047843  61.1978511  49.3194153  14.7283100  68.0796485
  49.5995906  14.0606289  68.7056912  50.1044760  14.9212196  67.5671149
  53.1903011  23.1500734  71.8268060  54.1420434  23.2498832  71.8480284
  53.0206461  22.3579003  72.3366145  51.2117390  20.2356317  72.0127461
  50.6167323  20.5161330  71.3173950  50.9267087  20.7250218  72.7844202
  50.3424881  34.1879244  60.7730094  51.2755554  34.1224806  60.9762969
  50.2548094  35.0235511  60.3144627  52.9712898  33.5045115  57.7334041
  52.8926529  33.1704978  58.6269799  53.7922564  33.9966883  57.7325514
  55.6691089  26.3706854  70.9410360  55.6367409  25.4322855  71.1270044
  56.2791712  26.4490891  70.2076185  55.8185577  23.1617897  70.9868643
  55.3024626  22.3776354  70.7998572  56.7025526  22.8336614  71.1515163
  53.4796304  16.9058913  66.9464456  53.2821125  16.5974001  67.8307788
  54.0896010  17.6320552  67.0762386  61.4867639  27.4322861  70.0816397
  62.2171027  27.1708149  70.6424100  60.8774584  26.6951583  70.1218465
  59.5682936  25.5730723  70.6790848  58.8416099  25.4386688  70.0707340
  59.1530223  25.8807552  71.4847566  47.3913112  29.2920653  78.4438221
  48.3116122  29.4699252  78.6378268  47.3562695  28.3476698  78.2917920
  36.6095277  24.4859247  67.3691496  36.2898062  23.6324555  67.0765870
  36.0628705  24.7007825  68.1249463  40.3875185  27.2021688  71.0861002
  40.6061194  28.1338796  71.1049036  40.8000959  26.8429662  71.8715806
  47.3079403  17.7089773  63.0736691  46.4980131  17.3636858  63.4491937
  47.9963819  17.3997317  63.6624302  49.2369951  16.7867820  64.6960987
  49.7900989  17.2063273  65.3551010  49.4740037  15.8603568  64.7383943
  45.2603050  22.7754893  80.4763751  45.1599777  23.7249250  80.4075842
  45.0424592  22.4473132  79.6039821  36.4783537  28.1062158  69.3384617
  35.7847009  27.6916111  68.8254572  37.2256528  28.1482695  68.7418036
  52.6148758  18.8968345  64.2039651  52.0347427  19.5553149  63.8217704
  52.3484691  18.0745690  63.7927069  51.0652324  18.2973403  66.4060972
  51.5652103  18.4089937  65.5975291  51.7087932  17.9934456  67.0461780
  45.1234320  26.2052032  79.2928813  44.6401402  27.0052392  79.4992702
  45.2095259  26.2159977  78.3396257  38.3920280  28.0380412  67.2150632
  38.3690968  28.1368099  66.2632515  38.7020916  28.8845563  67.5367798
  41.0507658  30.0956567  71.3297247  42.0050911  30.0640509  71.2627178
  40.8520181  29.6347191  72.1447472  41.6407040  28.6657683  73.8968044
  42.4599929  29.1601762  73.9202882  41.9143847  27.7489651  73.8685612
  51.3973636  21.0568435  63.2596000  50.5099491  21.3418086  63.0416195
  51.8127625  20.8962199  62.4123277  54.7488172  21.0814956  66.9750339
  55.5248562  21.5711409  67.2474956  54.0236306  21.5073011  67.4322208
  57.1860731  21.7942576  68.0324280  57.7805221  21.5538312  67.3217588
  57.2587314  21.0749706  68.6597816  39.4057886  35.6376187  68.3467444
  39.2712354  34.8776587  67.7805442  38.9889949  36.3617086  67.8796233
  51.3714660  26.5722971  63.4746290  51.3149861  27.0291523  62.6353922
  51.9243002  25.8113656  63.2969133  55.1819466  22.3612703  64.2996409
  54.9256400  21.9609339  65.1304617  54.5572334  23.0756497  64.1746549
  59.4931803  25.1008776  66.8067701  58.9331361  25.1701966  67.5799263
  58.8875307  24.9249761  66.0867197  42.5627012  36.5345504  68.5585887
  42.4459396  37.4790936  68.4564577  41.7419459  36.2319065  68.9471686
  52.4503547  31.2595639  59.4042480  53.2849151  30.8276838  59.2219955
  52.2887890  31.0877653  60.3319374  52.1049439  27.7627753  60.7698819
  52.0498243  27.5972024  59.8287263  51.4795494  28.4703785  60.9261009
  36.8941954  22.9995817  74.5960241  37.5400818  22.4894771  75.0847466
  36.6859105  23.7364499  75.1703667  49.4195346  30.0676664  80.0952382
  50.2886506  30.2417317  79.7339017  48.9402098  30.8871081  79.9728111
  45.4145564  17.2635862  60.3484137  45.4024234  18.2077701  60.5052408
  46.3068986  17.0806007  60.0543599  43.5881526  37.1873765  71.7741816
  44.4908773  37.2197376  72.0908310  43.3618896  36.2574216  71.7888151
  45.3435128  35.9404752  68.4351894  44.3930759  35.9406614  68.3216266
  45.6467615  35.1937487  67.9187929  49.2297684  13.8578638  64.6030074
  48.4630080  13.3037125  64.7486757  49.6408389  13.9300507  65.4644226
  61.0787822  41.7765290  69.4997657  61.7166232  41.6572038  68.7960997
  60.9608665  42.7246134  69.5585609  57.8877528  41.7292718  69.4359181
  57.5496040  41.6133783  68.5479716  58.7567296  41.3283884  69.4160187
  53.7464344  43.5828195  65.4256072  53.1829209  43.4918132  64.6572360
  53.6316739  42.7628099  65.9058565  58.3697311  42.8827570  75.3945387
  58.3585952  42.4880368  74.5225890  58.5317951  42.1493643  75.9879158
  51.2928776  45.0779386  68.2640293  52.0850068  44.7370211  67.8486592
  51.5325426  45.1874362  69.1842446  59.3263903  47.2499163  60.7370537
  58.6751882  47.8353243  60.3504551  60.1208265  47.7805358  60.7965575
  55.0904572  45.6664682  74.3424571  54.7994438  46.5710313  74.2271237
  55.7261557  45.7081210  75.0568640  56.0160779  43.0441531  70.9325930
  56.6124351  42.8197553  70.2182893  56.0735751  42.3026276  71.5351378
  60.6329090  39.5016744  66.5750865  61.4192180  39.0836167  66.2241282
  60.8967795  40.4062836  66.7432513  60.8039168  44.9389595  61.2739521
  60.1685001  45.0124221  61.9860426  60.4736574  45.5283193  60.5958601
  66.0337517  39.4391977  67.4783843  66.7662689  38.8691194  67.7121673
  65.2776873  39.0513578  67.9190349  55.3082096  42.4009072  60.9700496
  55.1918354  41.7253975  61.6381581  55.4184356  41.9141446  60.1532649
  57.6513637  41.8619219  64.6747186  57.2871844  41.3349840  65.3860107
  58.5080753  41.4717688  64.5013671  63.5562938  33.1513552  71.9378452
  63.2246263  34.0208962  71.7139667  62.9608551  32.8349836  72.6172482
  57.2919124  36.8909119  59.6708534  57.4593527  37.7589355  60.0379005
  57.1016293  37.0536400  58.7469823  60.0494457  45.3526098  71.3374364
  59.7495180  46.2551136  71.2290172  59.7045517  45.0858281  72.1895517
  53.5006939  41.8039894  67.3711069  52.5757435  41.6716108  67.5788761
  53.7491352  42.5834114  67.8681011  63.4491601  37.8708638  69.0171802
  62.5408478  37.8024046  68.7230563  63.3979197  38.3480583  69.8453627
  57.2708345  39.3466776  60.6555201  57.1507970  39.7923827  61.4940681
  56.5760933  39.6952094  60.0968739  50.8615750  41.4473168  68.2054858
  50.9908131  41.7007647  69.1194270  50.1813201  42.0400876  67.8859513
  55.0315237  52.1170418  64.3045332  54.9539267  53.0678243  64.3833813
  54.4276881  51.7716290  64.9620258  57.5232467  39.2898283  76.9606699
  56.7465801  39.8492203  76.9509564  58.1623030  39.7755066  77.4821569
  65.3153248  36.0725076  70.7949676  64.6727628  36.3657609  70.1489470
  64.8108176  35.9577996  71.6002872  62.9693411  39.8188249  61.4835535
  63.8811267  40.0515636  61.3083232  62.4603058  40.4025294  60.9210614
  55.7778839  42.0983737  76.5224666  56.5193524  42.6368781  76.2459490
  55.0715825  42.7250025  76.6796218  61.2534179  44.2412877  75.1196828
  61.6617535  43.7995288  74.3751460  60.5311440  43.6665505  75.3731020
  57.6065249  39.1785484  72.4930384  58.4526444  39.6024897  72.6365033
  57.5463887  38.5219108  73.1868948  61.5762994  44.8014068  68.8749116
  60.9471856  44.9659782  68.1725184  61.1888656  45.2155677  69.6460080
  65.4552225  45.7368506  66.2293480  64.7703264  46.1167407  65.6790513
  65.5396075  46.3463832  66.9625428  60.7564694  36.8389852  74.1511558
  60.5125626  37.5931913  73.6145834  61.0324625  37.2175200  74.9858805
  62.7103157  43.3828465  72.8288824  62.9220052  44.0260225  72.1523205
  62.6632905  42.5490781  72.3610754  60.3129386  35.9946285  69.7325396
  59.4513865  36.2927539  70.0242133  60.3391821  36.2116684  68.8006428
  57.1290955  44.5388476  66.1399201  57.5929301  44.8176179  65.3503824
  56.8647754  43.6371920  65.9572292  54.0215036  44.0859957  69.0778965
  54.5916394  44.5147226  68.4396449  54.6123148  43.8042542  69.7763150
  56.0659841  40.6611628  62.9488767  56.7683885  41.1132672  63.4162693
  55.7340470  40.0195447  63.5768660  54.5140203  39.2523385  77.3239976
  53.8838864  39.9339666  77.5575373  54.4076291  39.1406466  76.3793114
  49.8085175  38.9195181  68.2505900  49.0184229  39.1752709  67.7746011
  50.2996423  39.7343519  68.3557941  63.8248985  46.2600420  71.0011181
  64.6466429  45.8580607  70.7193863  63.8211388  46.1568654  71.9527297
  51.7599921  39.2839760  65.2089377  50.9631084  39.3958454  65.7272873
  51.5325513  39.6226412  64.3430267  57.5905588  45.8084463  73.1571892
  57.6550021  46.2704871  73.9930063  56.8816512  45.1781828  73.2854201
  48.0922878  39.1725671  70.6820891  48.3430917  40.0572681  70.9478467
  48.6282427  38.9930273  69.9095983  71.9154978  42.6039169  67.3496152
  71.1618686  42.0346567  67.1940157  72.0502519  42.5701833  68.2966787
  53.7920946  33.5544151  79.6865227  53.3987891  33.0010349  80.3612871
  54.6087086  33.8654729  80.0771745  50.7583003  44.9928009  63.5978797
  51.2707524  45.7871259  63.7484362  51.4105716  44.2954299  63.5312398
  52.5677888  48.1093765  65.6801550  52.7444517  49.0311730  65.4922534
  53.3634722  47.7952184  66.1095930  56.7088907  34.9702030  77.2785484
  57.4498620  35.5709183  77.1989946  56.9406830  34.2279668  76.7203526
  51.8530245  40.1558397  75.5563713  51.7383760  39.2543654  75.8570812
  50.9974762  40.4022094  75.2048530  58.9322082  48.0976137  77.1551214
  58.4885937  47.3112516  76.8372118  59.5939296  48.2855288  76.4895105
  53.6909204  49.6271939  71.6811892  54.2416629  49.4989002  70.9088886
  52.8520680  49.9266828  71.3306785  61.0303321  48.3778937  75.1832615
  61.0121796  49.1987818  74.6912884  61.9523241  48.2533012  75.4082756
  57.4876375  45.8923067  76.0256124  58.0204711  45.1311355  75.7955432
  56.9590456  45.5996719  76.7680278  60.6546070  30.9983133  71.5549765
  60.3110339  31.8884774  71.4788876  61.0225032  30.8084790  70.6919350
  48.7231920  43.3216663  64.3738367  49.5607142  43.7313672  64.1572075
  48.9010188  42.3816105  64.3438561  60.6196352  40.9891744  60.0622200
  60.1042976  41.7596348  60.3010588  60.3473661  40.3156880  60.6855262
  58.2043463  35.8341445  65.1207439  57.3485060  35.4448295  64.9413078
  58.6170415  35.9133405  64.2607224  59.7342610  33.3687788  69.5198999
  59.2307406  33.3317923  68.7066804  60.0273217  34.2780531  69.5795655
  55.9785496  33.4526518  68.5265180  56.8438493  33.2569326  68.1671070
  56.0463005  33.2236869  69.4534537  65.5930627  43.7424098  61.9975374
  64.8160069  43.4035258  61.5530536  66.2722107  43.7476722  61.3230339
  60.4082656  38.8618836  61.8881982  60.1032791  39.1764985  62.7392125
  61.3613098  38.9400256  61.9309315  58.8529087  45.0209059  63.5374936
  58.3250449  44.2861819  63.2248173  58.3516590  45.7983736  63.2914904
  63.8321933  43.2158080  68.6541982  63.1745608  43.9057341  68.7422111
  64.6362333  43.6054512  68.9975968  53.5847815  35.6828726  65.8981547
  54.1591567  35.4603907  65.1654740  54.1718797  35.7517420  66.6510148
  62.6427392  41.5702452  66.7045924  63.1559274  42.2032444  67.2067633
  63.2928616  40.9703648  66.3389284  55.8870483  32.5569974  64.6256617
  55.2334895  32.2418992  64.0013231  55.8450957  31.9345715  65.3516439
  59.1208223  39.0451908  68.9504264  58.2030784  39.2666855  68.7925952
  59.5368367  39.1198218  68.0915972  59.9043271  40.4443324  64.0806944
  60.6515090  40.9564721  63.7714066  60.1734860  40.1227376  64.9411338
  58.1769921  42.9401864  61.0633899  57.2681140  42.6560897  61.1606368
  58.2065005  43.3600943  60.2037206  63.4089188  46.5508454  64.8325066
  62.9551516  45.7099364  64.8890257  62.7783155  47.1869852  65.1699846
  62.3522108  37.4800440  66.0625734  61.6144865  36.9677826  66.3935976
  62.6048882  37.0400821  65.2509011  61.8522128  48.3884951  65.7674884
  62.1445102  48.9490008  65.0487250  62.3620748  48.6813512  66.5228044
  62.4533735  30.2576692  66.6567503  62.7592612  29.3974055  66.3693418
  63.1786340  30.8494312  66.4566497  48.7458091  40.6607378  65.0449101
  48.5482491  40.0676739  64.3200167  48.1904755  40.3559589  65.7625040
  56.7254815  40.5530485  67.1643694  56.7803425  39.6004321  67.0886171
  55.9146017  40.7089924  67.6484992  54.6647175  39.1707545  64.9234073
  53.8515041  39.4701715  65.3299265  55.1606169  38.7763233  65.6408555
  56.8155753  49.1665302  66.8568338  56.7731932  49.3926148  65.9276870
  57.7318452  48.9328676  67.0054139  60.2621387  39.6349369  73.7548967
  60.6170774  39.8620842  74.6143433  60.9093518  39.9667746  73.1326222
  65.9919124  42.7567805  64.4598296  65.8537022  42.9469401  63.5319485
  65.6355342  43.5187188  64.9166347  54.1561250  36.7425900  70.5395308
  54.7960629  36.6014659  69.8418271  53.3238780  36.4560414  70.1633910
  66.0188503  44.8244332  69.4709567  66.4525010  44.7319621  70.3192621
  66.7320084  44.8001833  68.8329583  54.9321554  46.0428331  66.6530300
  55.7262152  45.5478651  66.4512875  54.2213246  45.5146194  66.2898006
  59.7516398  48.4246426  71.0042668  59.8053420  48.9937362  71.7720384
  58.8831179  48.5948311  70.6396705  51.2404317  40.1871412  62.7290053
  50.3101905  40.1255868  62.9460015  51.3361789  39.6647365  61.9326694
  51.1589866  36.7126225  65.3168295  51.4196683  37.6271558  65.2077455
  51.9807038  36.2450668  65.4664907  52.6314791  38.1263982  72.4867119
  53.3037845  37.9181345  71.8379768  51.8044578  37.9286068  72.0472352
  66.8804053  44.8668033  72.0042453  67.0739943  45.7713843  72.2501728
  66.7804671  44.4075452  72.8381038  58.5340363  34.7525923  74.5032780
  57.8868279  35.4515873  74.4097256  59.3041379  35.1862067  74.8709028
  61.9419161  45.0174775  77.5783333  61.7904668  44.7885327  76.6613417
  61.9323841  45.9745377  77.5914678  58.7104498  42.5906688  72.5629600
  59.6396558  42.7417848  72.3898567  58.2895528  42.6790709  71.7078246
  57.5092830  46.6157353  70.3328137  57.3703915  46.2476137  71.2054076
  56.7207426  47.1304992  70.1612095  58.1040982  51.7166449  61.6753674
  58.2792737  51.2454492  62.4899297  57.4173770  52.3432215  61.9034935
  59.0598045  45.9938955  67.7216975  58.7247877  45.9539725  68.6174625
  58.5601990  45.3283671  67.2487385  53.0342289  41.4006585  73.2469556
  52.8962087  40.6686824  73.8481095  53.9447212  41.3115485  72.9653744
  61.9957236  43.3394990  57.9954035  61.3786407  42.6141818  57.8987088
  61.5273725  44.1004350  57.6521109  55.6624589  41.1126545  72.7353236
  56.3724208  40.4719737  72.6939854  55.6193898  41.3639440  73.6579417
  63.6511368  48.0493898  75.6559815  63.5923914  47.3653118  74.9890398
  64.0530886  48.7912888  75.2040441  54.3753523  38.0991763  74.5548875
  53.8390880  37.6482501  75.2070472  53.7870232  38.2337671  73.8119340
  52.6702067  54.8655812  68.4493534  52.9098665  55.4974336  69.1272553
  51.8271263  54.5143852  68.7358893  63.6528775  46.0133482  73.8873795
  62.7655554  45.6759404  74.0100194  64.2227326  45.2816513  74.1242560
  45.3057922  42.3457574  67.2116846  45.9928962  42.0319304  66.6237862
  45.1506051  43.2498938  66.9384098  50.1092645  37.2347770  71.6401870
  50.0250833  36.6273440  70.9052280  49.2875351  37.7256789  71.6411366
  57.1829929  50.6734934  70.8535038  57.1100100  51.4789906  71.3654343
  56.7407322  50.8726900  70.0283060  56.9719708  49.9106704  64.3637860
  56.1887230  50.4528385  64.4576084  57.6712454  50.4280684  64.7632101
  60.2816358  35.7201334  67.0072065  60.7785058  34.9671296  66.6873135
  59.5103340  35.7565650  66.4415274  68.1346116  41.4241699  68.6490357
  68.1235992  42.3066415  68.2784290  67.2663495  41.0713250  68.4544894
  59.6428612  50.5721768  73.0093197  60.3556584  51.2069233  72.9369098
  59.1518641  50.6685634  72.1933199  61.3646139  44.4773021  64.5810488
  60.4302418  44.5974483  64.4115193  61.5422808  43.5745488  64.3170498
  56.8651327  37.8618717  66.7343750  56.4949115  37.3089757  67.4224655
  57.3610420  37.2576850  66.1818750  64.7518691  40.3190340  65.1160523
  65.2179143  41.1518332  65.0420825  65.2026191  39.8535322  65.8205781
  54.6940526  48.3216212  73.8298768  55.3949985  48.9552695  73.9828162
  54.2235641  48.6630943  73.0694407  62.8194922  46.6634162  62.1146675
  63.0954766  46.5490756  63.0240549  61.9499420  46.2651646  62.0758848
  62.7235353  32.6870927  69.1551424  61.8098433  32.9175154  69.3233631
  63.1528455  32.7709371  70.0065456  62.4941812  40.8760819  71.6551318
  61.8413262  41.1236727  71.0003771  62.8722192  40.0624957  71.3213795
  59.4548986  50.9120512  65.7579488  59.6371380  50.0942168  66.2207241
  60.2781972  51.1288205  65.3204378  59.7891151  49.8388698  63.0194537
  60.3178918  49.3281152  62.4064699  60.0519371  49.5231228  63.8840070
  58.5429385  41.6180630  78.1417355  57.8670022  41.5174760  78.8119730
  59.3657019  41.4619844  78.6053352  50.2908244  47.8552567  70.7629870
  50.8761681  47.1096255  70.8957774  50.0933082  48.1656524  71.6466534
  53.1446899  50.8903814  65.7792313  52.4757274  51.3749942  65.2956353
  53.0059769  51.1373035  66.6935691  44.8825899  40.4258167  69.4834313
  44.9209998  39.8921758  70.2771432  44.3766191  39.8993373  68.8645291
  57.2852168  52.9247558  72.3774971  57.8370476  53.0879179  73.1424056
  57.6258361  53.5151996  71.7054996  52.2616661  35.2722708  72.9796856
  52.3257987  36.1337538  72.5674253  52.1983781  34.6596709  72.2469214
  51.7368933  37.3445840  76.6269890  52.3640972  36.9622917  77.2407414
  50.8796852  37.1260042  76.9925582  62.1363042  47.7508815  78.2323625
  62.6802946  48.3638774  77.7378580  61.5549887  48.3088394  78.7490638
  48.5134476  39.1522269  62.5588245  48.8087917  38.2432948  62.5055299
  47.6122512  39.1310009  62.2369247  60.4220555  50.8729533  69.3638653
  60.2971694  50.0719273  68.8549599  61.0799646  51.3675727  68.8752623
  52.0428723  37.2278266  68.5415793  51.3215309  37.8414234  68.4023267
  52.8321979  37.7636031  68.4632439  62.4855463  48.6738553  70.9918203
  61.5385799  48.5543905  70.9196530  62.8338236  47.7861051  71.0744465
  54.8455037  34.5632692  74.8156445  55.3689439  34.8094989  75.5782754
  54.6267370  35.3952727  74.3959583  50.2422318  36.8336367  62.6827570
  49.9135024  35.9533746  62.5002676  50.5961688  36.7784036  63.5703959
  59.4901897  48.4691270  67.1922555  59.3426859  47.5407977  67.3730126
  60.3155390  48.4911360  66.7079631  53.3564141  37.1209337  63.0503048
  53.6960213  37.6495258  62.3281656  53.8036261  37.4589743  63.8261614
  63.0936018  49.2919828  68.2787428  64.0182566  49.0862690  68.1411879
  62.9251322  49.0436229  69.1876770  56.0507582  35.5046387  72.5006116
  55.7104402  34.7054200  72.9026796  55.3446588  35.8048098  71.9282949
  56.7024054  32.5895700  70.9533439  57.5250123  32.1156178  70.8312329
  56.9462117  33.3686184  71.4532125  55.3432288  35.6183958  61.2496340
  56.0640651  35.9965211  60.7460057  54.7197592  36.3372835  61.3531318
  59.4863411  36.3229107  62.1854673  59.7027025  37.2053745  61.8843501
  59.0057478  35.9315321  61.4560315  54.2262632  39.2814820  68.7625417
  54.0807213  39.5955124  69.6549699  53.7487836  39.8999721  68.2096316
  56.0859015  36.2717368  68.8106307  56.0720584  35.3758462  68.4738605
  56.8031443  36.2788032  69.4444593  57.9385146  36.7054709  70.8559434
  57.6802924  37.6271779  70.8543765  57.4070186  36.3085143  71.5459898
  62.8831335  49.8105496  63.6349520  63.0568212  49.2451918  62.8823372
  63.3760226  50.6106391  63.4529010  48.7008294  41.8220165  71.7013079
  48.1561763  42.5979973  71.8333353  49.5787644  42.1690969  71.5432200
  55.4895911  35.1531749  64.0793877  55.6111822  34.2248395  64.2784765
  55.1997954  35.1670435  63.1672192  58.3587102  32.8386659  67.2160597
  58.3808798  32.9025992  66.2612576  58.7755161  31.9991168  67.4101103
  68.7370726  42.5741919  65.2539819  69.1801872  41.8249244  64.8558943
  67.8597236  42.5652055  64.8713551  63.8706507  49.1272260  60.7346418
  64.5657412  49.7478953  60.9533733  64.2129657  48.2767611  61.0098796
  49.4874316  40.9490061  74.5943235  48.7456052  41.0972696  75.1807866
  49.1667061  41.2098327  73.7309985  65.7697930  46.5771966  62.2633749
  66.2949254  46.9159238  61.5383069  65.6820283  45.6418981  62.0796883
  57.4317979  50.4906039  74.3923625  57.7405105  50.2455186  75.2646325
  58.2293461  50.6952678  73.9042496  57.4538591  52.6443949  66.6229002
  57.0143581  52.1520328  67.3161859  58.2046708  52.1016917  66.3821077
  49.9330930  48.8355490  66.6253630  50.7588950  48.5359262  66.2452274
  49.5824982  48.0663112  67.0743419  54.9012463  48.1881958  68.6951304
  54.2792472  47.5252663  68.3953531  55.5717330  48.2143090  68.0124951
  48.1339535  46.7541816  67.5842564  47.2971443  46.3263991  67.4026565
  48.1063180  46.9474260  68.5213355  54.9736991  36.6663746  78.2883810
  55.0225146  37.5425869  77.9061579  55.5159505  36.1241139  77.7155453
  65.4591836  47.2104869  77.5684947  64.6687380  47.1929008  77.0289446
  65.2225191  47.7493163  78.3233983  65.5789711  44.0597336  74.8817675
  65.6287716  43.8947343  75.8233198  65.4703635  43.1924595  74.4915556
  62.8693474  40.0428264  76.1976982  63.7703337  39.9034729  75.9060980
  62.9441448  40.2082719  77.1375159  57.2036279  37.4195119  75.0430168
  56.3339589  37.7128685  74.7712757  57.4395759  38.0035564  75.7637432
  67.0807908  46.4794277  75.1259697  66.7892717  46.8424258  75.9623158
  66.4680040  45.7661286  74.9473029  68.2803591  44.0447157  67.6462267
  69.1150482  44.4836961  67.8099827  68.4162719  43.5685810  66.8270513
  65.3295096  41.6026892  73.5939755  65.8049218  41.7954538  72.7858606
  64.4060662  41.6586078  73.3483138  52.2178603  42.7651059  63.1770833
  51.9724645  41.8613389  63.3751043  52.3874518  42.7668209  62.2350311
  59.9075313  33.6374735  72.5595589  60.4257257  34.3735762  72.2342077
  59.5530446  33.9438729  73.3942348  60.1587907  30.0575018  68.0796485
  60.4389661  29.3898207  68.7056912  60.9438514  30.2504114  67.5671149
  64.0296765  38.4792652  71.8268060  64.9814188  38.5790750  71.8480284
  63.8600216  37.6870921  72.3366145  62.0511145  35.5648235  72.0127461
  61.4561077  35.8453248  71.3173950  61.7660842  36.0542136  72.7844202
  61.1818635  49.5171162  60.7730094  62.1149309  49.4516724  60.9762969
  61.0941848  50.3527429  60.3144627  63.8106652  48.8337032  57.7334041
  63.7320284  48.4996896  58.6269799  64.6316319  49.3258800  57.7325514
  66.5084843  41.6998772  70.9410360  66.4761163  40.7614772  71.1270044
  67.1185467  41.7782808  70.2076185  58.3468174  40.5694825  56.9837564
  59.2927279  40.4401033  57.0525982  57.9682419  39.8309487  57.4606992
  66.6579332  38.4909815  70.9868643  66.1418380  37.7068272  70.7998572
  67.5419280  38.1628532  71.1515163  64.3190059  32.2350831  66.9464456
  64.1214880  31.9265919  67.8307788  64.9289764  32.9612470  67.0762386
  72.3261393  42.7614778  70.0816397  73.0564782  42.5000067  70.6424100
  71.7168339  42.0243500  70.1218465  70.4076690  40.9022641  70.6790848
  69.6809854  40.7678606  70.0707340  69.9923977  41.2099470  71.4847566
  58.2306867  44.6212571  78.4438221  59.1509876  44.7991170  78.6378268
  58.1956450  43.6768616  78.2917920  56.5311091  38.4944801  56.9192449
  55.6242547  38.1977914  56.9955163  56.8087072  38.1974619  56.0526736
  47.4489032  39.8151164  67.3691496  47.1291816  38.9616473  67.0765870
  46.9022460  40.0299743  68.1249463  51.2268939  42.5313605  71.0861002
  51.4454949  43.4630713  71.1049036  51.6394713  42.1721580  71.8715806
  58.1473157  33.0381691  63.0736691  57.3373885  32.6928776  63.4491937
  58.8357574  32.7289234  63.6624302  60.0763705  32.1159738  64.6960987
  60.6294744  32.5355191  65.3551010  60.3133792  31.1895486  64.7383943
  56.0996805  38.1046811  80.4763751  55.9993531  39.0541168  80.4075842
  55.8818347  37.7765050  79.6039821  55.3009876  35.3531736  57.0604428
  56.1629040  35.6786635  57.3200246  55.4860220  34.5663232  56.5477494
  47.3177292  43.4354076  69.3384617  46.6240763  43.0208029  68.8254572
  48.0650283  43.4774612  68.7418036  63.4542512  34.2260263  64.2039651
  62.8741181  34.8845067  63.8217704  63.1878445  33.4037607  63.7927069
  61.9046079  33.6265320  66.4060972  62.4045857  33.7381855  65.5975291
  62.5481687  33.3226373  67.0461780  55.9628075  41.5343950  79.2928813
  55.4795156  42.3344310  79.4992702  56.0489014  41.5451895  78.3396257
  49.2314034  43.3672330  67.2150632  49.2084722  43.4660017  66.2632515
  49.5414671  44.2137480  67.5367798  51.8901412  45.4248485  71.3297247
  52.8444666  45.3932427  71.2627178  51.6913936  44.9639108  72.1447472
  52.4800794  43.9949601  73.8968044  53.2993683  44.4893679  73.9202882
  52.7537602  43.0781569  73.8685612  62.2367390  36.3860353  63.2596000
  61.3493245  36.6710004  63.0416195  62.6521379  36.2254116  62.4123277
  65.5881927  36.4106874  66.9750339  66.3642317  36.9003326  67.2474956
  64.8630061  36.8364928  67.4322208  68.0254485  37.1234493  68.0324280
  68.6198976  36.8830229  67.3217588  68.0981069  36.4041624  68.6597816
  50.2451641  50.9668104  68.3467444  50.1106109  50.2068505  67.7805442
  49.8283703  51.6909004  67.8796233  61.3810604  46.1505028  57.3544020
  62.0846454  46.3555030  57.9701675  60.6573253  46.7181790  57.6193103
  62.2108414  41.9014889  63.4746290  62.1543616  42.3583440  62.6353922
  62.7636757  41.1405574  63.2969133  66.0213220  37.6904621  64.2996409
  65.7650154  37.2901257  65.1304617  65.3966088  38.4048415  64.1746549
  70.3325558  40.4300694  66.8067701  69.7725116  40.4993883  67.5799263
  69.7269061  40.2541679  66.0867197  53.4020767  51.8637421  68.5585887
  53.2853151  52.8082854  68.4564577  52.5813213  51.5610983  68.9471686
  63.2897301  46.5887557  59.4042480  64.1242905  46.1568755  59.2219955
  63.1281644  46.4169571  60.3319374  62.9443193  43.0919670  60.7698819
  62.8891997  42.9263942  59.8287263  62.3189249  43.7995703  60.9261009
  47.7335708  38.3287735  74.5960241  48.3794572  37.8186689  75.0847466
  47.5252860  39.0656416  75.1703667  60.2589101  45.3968582  80.0952382
  61.1280260  45.5709234  79.7339017  59.7795852  46.2162999  79.9728111
  56.2539319  32.5927779  60.3484137  56.2417989  33.5369619  60.5052408
  57.1462741  32.4097925  60.0543599  54.4275281  52.5165683  71.7741816
  55.3302528  52.5489293  72.0908310  54.2012651  51.5866134  71.7888151
  56.1828883  51.2696670  68.4351894  55.2324514  51.2698531  68.3216266
  56.4861369  50.5229404  67.9187929  60.0691438  29.1870556  64.6030074
  59.3023834  28.6329043  64.7486757  60.4802143  29.2592425  65.4644226
  52.0733199  35.4755352  78.6935256  52.9364661  35.1192157  78.9038580
  51.4998610  35.1369247  79.3810660  71.9181576  57.1057208  69.4997657
  72.5559986  56.9863955  68.7960997  71.8002419  58.0538052  69.5585609
  68.7271283  57.0584636  69.4359181  68.3889794  56.9425701  68.5479716
  69.5961051  56.6575801  69.4160187  64.5858098  58.9120113  65.4256072
  64.0222963  58.8210050  64.6572360  64.4710493  58.0920017  65.9058565
  62.1322530  60.4071304  68.2640293  62.9243822  60.0662129  67.8486592
  62.3719180  60.5166279  69.1842446  70.1657657  62.5791080  60.7370537
  69.5145637  63.1645161  60.3504551  70.9602020  63.1097275  60.7965575
  64.0913284  59.6680217  61.1357671  64.8644160  59.1209205  60.9970547
  64.4438683  60.5324467  61.3472133  66.8554534  58.3733448  70.9325930
  67.4518106  58.1489471  70.2182893  66.9129505  57.6318194  71.5351378
  66.4279562  55.8272884  58.7676121  66.6805083  55.3054405  58.0059584
  65.4904121  55.6639029  58.8702805  71.4722845  54.8308662  66.5750865
  72.2585934  54.4128085  66.2241282  71.7361549  55.7354754  66.7432513
  71.6432922  60.2681512  61.2739521  71.0078755  60.3416139  61.9860426
  71.3130329  60.8575111  60.5958601  76.8731272  54.7683895  67.4783843
  77.6056444  54.1983112  67.7121673  76.1170628  54.3805496  67.9190349
  66.1475851  57.7300989  60.9700496  66.0312109  57.0545893  61.6381581
  66.2578111  57.2433363  60.1532649  68.4907392  57.1911137  64.6747186
  68.1265599  56.6641758  65.3860107  69.3474508  56.8009606  64.5013671
  74.3956692  48.4805469  71.9378452  74.0640017  49.3500880  71.7139667
  73.8002306  48.1641753  72.6172482  68.1312879  52.2201036  59.6708534
  68.2987281  53.0881273  60.0379005  67.9410048  52.3828318  58.7469823
  64.3400693  57.1331812  67.3711069  63.4151190  57.0008026  67.5788761
  64.5885107  57.9126031  67.8681011  74.2885356  53.2000555  69.0171802
  73.3802233  53.1315964  68.7230563  74.2372951  53.6772500  69.8453627
  68.1102100  54.6758694  60.6555201  67.9901725  55.1215745  61.4940681
  67.4154688  55.0244011  60.0968739  61.7009504  56.7765086  68.2054858
  61.8301886  57.0299565  69.1194270  61.0206956  57.3692794  67.8859513
  65.8708992  67.4462336  64.3045332  65.7933021  68.3970161  64.3833813
  65.2670635  67.1008208  64.9620258  76.1547002  51.4016994  70.7949676
  75.5121382  51.6949527  70.1489470  75.6501931  51.2869914  71.6002872
  73.8087166  55.1480167  61.4835535  74.7205022  55.3807554  61.3083232
  73.2996813  55.7317211  60.9210614  68.4459003  54.5077402  72.4930384
  69.2920199  54.9316815  72.6365033  68.3857641  53.8511026  73.1868948
  71.1523140  51.3238203  69.7325396  70.2907620  51.6219457  70.0242133
  71.1785575  51.5408602  68.8006428  67.9684710  59.8680394  66.1399201
  68.4323055  60.1468097  65.3503824  67.7041508  58.9663838  65.9572292
  64.8608791  59.4151875  69.0778965  65.4310148  59.8439143  68.4396449
  65.4516903  59.1334460  69.7763150  66.9053596  55.9903546  62.9488767
  67.6077639  56.4424590  63.4162693  66.5734224  55.3487365  63.5768660
  60.6478930  54.2487099  68.2505900  59.8577984  54.5044627  67.7746011
  61.1390177  55.0635436  68.3557941  62.5993675  54.6131678  65.2089377
  61.8024839  54.7250372  65.7272873  62.3719267  54.9518330  64.3430267
  58.9316633  54.5017589  70.6820891  59.1824671  55.3864599  70.9478467
  59.4676181  54.3222191  69.9095983  68.1447361  62.8044489  63.0250872
  68.0093035  63.6496024  63.4535720  68.6857173  63.0063766  62.2616806
  61.5976758  60.3219927  63.5978797  62.1101279  61.1163177  63.7484362
  62.2499471  59.6246217  63.5312398  63.4071643  63.4385683  65.6801550
  63.5838271  64.3603648  65.4922534  64.2028476  63.1244102  66.1095930
  62.6923999  55.4850315  75.5563713  62.5777514  54.5835572  75.8570812
  61.8368517  55.7314011  75.2048530  71.4939824  46.3275050  71.5549765
  71.1504094  47.2176692  71.4788876  71.8618787  46.1376708  70.6919350
  59.5625675  58.6508581  64.3738367  60.4000897  59.0605589  64.1572075
  59.7403942  57.7108023  64.3438561  71.4590107  56.3183661  60.0622200
  70.9436730  57.0888266  60.3010588  71.1867415  55.6448798  60.6855262
  69.0437218  51.1633362  65.1207439  68.1878814  50.7740213  64.9413078
  69.4564170  51.2425323  64.2607224  70.5736365  48.6979706  69.5198999
  70.0701160  48.6609841  68.7066804  70.8666971  49.6072448  69.5795655
  66.8179250  48.7818435  68.5265180  67.6832247  48.5861244  68.1671070
  66.8856759  48.5528787  69.4534537  76.4324381  59.0716016  61.9975374
  75.6553824  58.7327176  61.5530536  77.1115862  59.0768639  61.3230339
  71.2476410  54.1910754  61.8881982  70.9426546  54.5056903  62.7392125
  72.2006852  54.2692173  61.9309315  69.6922842  60.3500977  63.5374936
  69.1644203  59.6153736  63.2248173  69.1910345  61.1275653  63.2914904
  64.4241569  51.0120643  65.8981547  64.9985321  50.7895825  65.1654740
  65.0112552  51.0809338  66.6510148  73.4821147  56.8994370  66.7045924
  73.9953028  57.5324362  67.2067633  74.1322371  56.2995566  66.3389284
  64.7511157  53.0425104  59.9177432  63.9148469  53.3799791  60.2386707
  64.6115926  52.9074084  58.9804569  66.7264237  47.8861892  64.6256617
  66.0728650  47.5710909  64.0013231  66.6844711  47.2637633  65.3516439
  67.8375442  58.1681187  56.5409909  66.9302504  57.9370441  56.7401058
  68.3346474  57.3718806  56.7283890  70.7443521  66.8778694  59.4606595
  70.0705220  67.1810391  60.0691553  71.1309343  67.6807775  59.1112052
  69.9601978  54.3743826  68.9504264  69.0424539  54.5958773  68.7925952
  70.3762121  54.4490136  68.0915972  70.7437025  55.7735241  64.0806944
  71.4908844  56.2856639  63.7714066  71.0128615  55.4519294  64.9411338
  69.0163675  58.2693782  61.0633899  68.1074895  57.9852815  61.1606368
  69.0458759  58.6892861  60.2037206  74.2482943  61.8800372  64.8325066
  73.7945270  61.0391281  64.8890257  73.6176910  62.5161770  65.1699846
  73.1915862  52.8092358  66.0625734  72.4538619  52.2969744  66.3935976
  73.4442636  52.3692739  65.2509011  72.6915882  63.7176868  65.7674884
  72.9838857  64.2781925  65.0487250  73.2014503  64.0105429  66.5228044
  73.2927490  45.5868610  66.6567503  73.5986367  44.7265973  66.3693418
  74.0180095  46.1786230  66.4566497  59.5851846  55.9899296  65.0449101
  59.3876246  55.3968657  64.3200167  59.0298510  55.6851506  65.7625040
  67.5648570  55.8822403  67.1643694  67.6197179  54.9296239  67.0886171
  66.7539772  56.0381842  67.6484992  68.7139763  59.8102526  58.4021977
  68.2759193  59.0938385  57.9427615  69.4550204  60.0378641  57.8407069
  65.5040929  54.4999462  64.9234073  64.6908795  54.7993633  65.3299265
  65.9999924  54.1055151  65.6408555  67.6549507  64.4957219  66.8568338
  67.6125686  64.7218066  65.9276870  68.5712206  64.2620594  67.0054139
  76.8312878  58.0859723  64.4598296  76.6930777  58.2761319  63.5319485
  76.4749097  58.8479106  64.9166347  64.9955004  52.0717818  70.5395308
  65.6354384  51.9306577  69.8418271  64.1632535  51.7852331  70.1633910
  65.7715308  61.3720248  66.6530300  66.5655907  60.8770568  66.4512875
  65.0607001  60.8438111  66.2898006  62.0798072  55.5163330  62.7290053
  61.1495660  55.4547786  62.9460015  62.1755544  54.9939283  61.9326694
  61.9983621  52.0418143  65.3168295  62.2590438  52.9563476  65.2077455
  62.8200793  51.5742585  65.4664907  63.4708546  53.4555900  72.4867119
  64.1431599  53.2473262  71.8379768  62.6438332  53.2577986  72.0472352
  69.3734118  50.0817841  74.5032780  68.7262033  50.7807791  74.4097256
  70.1435133  50.5153985  74.8709028  68.9434736  67.0458367  61.6753674
  69.1186492  66.5746410  62.4899297  68.2567524  67.6724133  61.9034935
  69.8991799  61.3230873  67.7216975  69.5641632  61.2831643  68.6174625
  69.3995745  60.6575589  67.2487385  63.8736043  56.7298503  73.2469556
  63.7355841  55.9978742  73.8481095  64.7840967  56.6407403  72.9653744
  72.8350991  58.6686907  57.9954035  72.2180162  57.9433736  57.8987088
  72.3667479  59.4296268  57.6521109  66.5018344  56.4418462  72.7353236
  67.2117962  55.8011655  72.6939854  66.4587652  56.6931357  73.6579417
  65.2147278  53.4283680  74.5548875  64.6784635  52.9774419  75.2070472
  64.6263986  53.5629589  73.8119340  64.6249537  52.8872332  57.1175339
  63.7479003  52.7661132  56.7537586  65.1007290  52.0958410  56.8654228
  56.1451677  57.6749491  67.2116846  56.8322717  57.3611221  66.6237862
  55.9899806  58.5790856  66.9384098  60.9486399  52.5639688  71.6401870
  60.8644588  51.9565358  70.9052280  60.1269106  53.0548706  71.6411366
  67.8113463  65.2398622  64.3637860  67.0280985  65.7820302  64.4576084
  68.5106208  65.7572602  64.7632101  71.1210113  51.0493251  67.0072065
  71.6178813  50.2963214  66.6873135  70.3497094  51.0857568  66.4415274
  72.2039894  59.8064939  64.5810488  71.2696172  59.9266401  64.4115193
  72.3816562  58.9037405  64.3170498  67.7045082  53.1910634  66.7343750
  67.3342869  52.6381675  67.4224655  68.2004174  52.5868768  66.1818750
  75.5912445  55.6482258  65.1160523  76.0572897  56.4810250  65.0420825
  76.0419946  55.1827240  65.8205781  73.6588676  61.9926079  62.1146675
  73.9348520  61.8782674  63.0240549  72.7893175  61.5943564  62.0758848
  73.5629108  48.0162845  69.1551424  72.6492188  48.2467072  69.3233631
  73.9922209  48.1001289  70.0065456  70.2942740  66.2412430  65.7579488
  70.4765135  65.4234086  66.2207241  71.1175726  66.4580122  65.3204378
  70.6284906  65.1680615  63.0194537  71.1572672  64.6573070  62.4064699
  70.8913125  64.8523145  63.8840070  61.1301998  63.1844485  70.7629870
  61.7155435  62.4388172  70.8957774  60.9326837  63.4948441  71.6466534
  63.9840654  66.2195732  65.7792313  63.3151029  66.7041860  65.2956353
  63.8453523  66.4664952  66.6935691  55.7219653  55.7550085  69.4834313
  55.7603753  55.2213675  70.2771432  55.2159946  55.2285290  68.8645291
  63.1010415  50.6014625  72.9796856  63.1651742  51.4629456  72.5674253
  63.0377536  49.9888627  72.2469214  62.5762688  52.6737758  76.6269890
  63.2034727  52.2914835  77.2407414  61.7190607  52.4551960  76.9925582
  62.8822478  52.5570183  68.5415793  62.1609063  53.1706151  68.4023267
  63.6715733  53.0927948  68.4632439  65.6848791  49.8924610  74.8156445
  66.2083193  50.1386907  75.5782754  65.4661124  50.7244645  74.3959583
  61.0816072  52.1628285  62.6827570  60.7528778  51.2825663  62.5002676
  61.4355443  52.1075953  63.5703959  70.3295651  63.7983187  67.1922555
  70.1820614  62.8699895  67.3730126  71.1549145  63.8203278  66.7079631
  64.1957895  52.4501254  63.0503048  64.5353968  52.9787176  62.3281656
  64.6430016  52.7881660  63.8261614  66.8901336  50.8338305  72.5006116
  66.5498157  50.0346118  72.9026796  66.1840343  51.1340016  71.9282949
  67.5417808  47.9187617  70.9533439  68.3643877  47.4448096  70.8312329
  67.7855872  48.6978101  71.4532125  66.1826043  50.9475876  61.2496340
  66.9034405  51.3257129  60.7460057  65.5591347  51.6664753  61.3531318
  70.3257165  51.6521025  62.1854673  70.5420780  52.5345663  61.8843501
  69.8451233  51.2607238  61.4560315  65.0656387  54.6106738  68.7625417
  64.9200968  54.9247041  69.6549699  64.5881590  55.2291638  68.2096316
  66.9252770  51.6009286  68.8106307  66.9114338  50.7050379  68.4738605
  67.6425198  51.6079950  69.4444593  68.7778900  52.0346626  70.8559434
  68.5196678  52.9563697  70.8543765  68.2463941  51.6377061  71.5459898
  73.7225089  65.1397413  63.6349520  73.8961967  64.5743836  62.8823372
  74.2153980  65.9398308  63.4529010  59.5402049  57.1512083  71.7013079
  58.9955517  57.9271890  71.8333353  60.4181399  57.4982887  71.5432200
  66.3289666  50.4823666  64.0793877  66.4505577  49.5540313  64.2784765
  66.0391708  50.4962352  63.1672192  69.1980856  48.1678577  67.2160597
  69.2202553  48.2317910  66.2612576  69.6148915  47.3283085  67.4101103
  79.5764480  57.9033836  65.2539819  80.0195626  57.1541162  64.8558943
  78.6990991  57.8943973  64.8713551  74.7100262  64.4564178  60.7346418
  75.4051166  65.0770871  60.9533733  75.0523412  63.6059529  61.0098796
  60.3268071  56.2781979  74.5943235  59.5849807  56.4264614  75.1807866
  60.0060815  56.5390244  73.7309985  76.6091685  61.9063883  62.2633749
  77.1343009  62.2451156  61.5383069  76.5214037  60.9710899  62.0796883
  60.7724685  64.1647408  66.6253630  61.5982704  63.8651179  66.2452274
  60.4218737  63.3955030  67.0743419  65.7406218  63.5173876  68.6951304
  65.1186227  62.8544581  68.3953531  66.4111085  63.5435008  68.0124951
  58.9733290  62.0833734  67.5842564  58.1365198  61.6555908  67.4026565
  58.9456935  62.2766177  68.5213355  65.3019725  62.0677799  62.1709764
  65.4507845  62.7513263  61.5176437  66.1086168  62.0482889  62.6859220
  63.0572358  58.0942977  63.1770833  62.8118400  57.1905307  63.3751043
  63.2268272  58.0960127  62.2350311  70.7469067  48.9666653  72.5595589
  71.2651011  49.7027680  72.2342077  70.3924200  49.2730646  73.3942348
  62.3268005  53.8271334  60.6756995  61.6337250  53.9015689  60.0197030
  62.0819757  53.0631678  61.1978511  70.9981662  45.3866936  68.0796485
  71.2783415  44.7190125  68.7056912  71.7832269  45.5796031  67.5671149
  68.8015130  64.5625930  59.6421512  68.2289097  65.1816117  59.1891983
  69.3747924  65.1125291  60.1761434  72.8904899  50.8940153  72.0127461
  72.2954832  51.1745166  71.3173950  72.6054596  51.3834054  72.7844202
  72.0212390  64.8463080  60.7730094  72.9543063  64.7808641  60.9762969
  71.9335603  65.6819347  60.3144627  74.6500407  64.1628950  57.7334041
  74.5714038  63.8288814  58.6269799  75.4710073  64.6550718  57.7325514
  69.1861929  55.8986742  56.9837564  70.1321033  55.7692950  57.0525982
  68.8076174  55.1601404  57.4606992  75.1583813  47.5642748  66.9464456
  74.9608634  47.2557837  67.8307788  75.7683519  48.2904387  67.0762386
  67.3704846  53.8236719  56.9192449  66.4636301  53.5269831  56.9955163
  67.6480827  53.5266537  56.0526736  58.2882786  55.1443082  67.3691496
  57.9685570  54.2908390  67.0765870  57.7416214  55.3591660  68.1249463
  62.0662694  57.8605523  71.0861002  62.2848703  58.7922631  71.1049036
  62.4788468  57.5013497  71.8715806  68.9866911  48.3673608  63.0736691
  68.1767640  48.0220693  63.4491937  69.6751328  48.0581152  63.6624302
  70.9157460  47.4451655  64.6960987  71.4688498  47.8647109  65.3551010
  71.1527546  46.5187403  64.7383943  66.1403630  50.6823654  57.0604428
  67.0022794  51.0078552  57.3200246  66.3253975  49.8955150  56.5477494
  58.1571046  58.7645994  69.3384617  57.4634518  58.3499946  68.8254572
  58.9044037  58.8066530  68.7418036  74.2936267  49.5552180  64.2039651
  73.7134936  50.2136984  63.8217704  74.0272200  48.7329525  63.7927069
  72.7439833  48.9557238  66.4060972  73.2439612  49.0673773  65.5975291
  73.3875441  48.6518291  67.0461780  60.0707789  58.6964247  67.2150632
  60.0478477  58.7951935  66.2632515  60.3808425  59.5429398  67.5367798
  62.7295167  60.7540402  71.3297247  63.6838420  60.7224345  71.2627178
  62.5307690  60.2931026  72.1447472  73.0761145  51.7152271  63.2596000
  72.1887000  52.0001921  63.0416195  73.4915134  51.5546034  62.4123277
  76.4275681  51.7398792  66.9750339  77.2036071  52.2295244  67.2474956
  75.7023815  52.1656846  67.4322208  78.8648240  52.4526411  68.0324280
  79.4592730  52.2122147  67.3217588  78.9374823  51.7333542  68.6597816
  61.0845395  66.2960022  68.3467444  60.9499863  65.5360423  67.7805442
  60.6677458  67.0200922  67.8796233  72.2204358  61.4796945  57.3544020
  72.9240208  61.6846948  57.9701675  71.4967007  62.0473707  57.6193103
  73.0502169  57.2306807  63.4746290  72.9937370  57.6875358  62.6353922
  73.6030511  56.4697491  63.2969133  76.8606975  53.0196539  64.2996409
  76.6043909  52.6193174  65.1304617  76.2359843  53.7340332  64.1746549
  81.1719312  55.7592612  66.8067701  80.6118870  55.8285801  67.5799263
  80.5662816  55.5833596  66.0867197  74.1291056  61.9179475  59.4042480
  74.9636660  61.4860673  59.2219955  73.9675399  61.7461488  60.3319374
  73.7836948  58.4211588  60.7698819  73.7285752  58.2555859  59.8287263
  73.1583003  59.1287621  60.9261009  58.5729463  53.6579652  74.5960241
  59.2188327  53.1478606  75.0847466  58.3646614  54.3948334  75.1703667
  67.0933073  47.9219697  60.3484137  67.0811743  48.8661537  60.5052408
  67.9856495  47.7389842  60.0543599  70.9085193  44.5162474  64.6030074
  70.1417589  43.9620960  64.7486757  71.3195898  44.5884342  65.4644226
  77.2673317  71.1564801  58.7676121  77.5198837  70.6346322  58.0059584
  76.3297876  70.9930947  58.8702805  78.9706633  67.5492954  59.6708534
  79.1381036  68.4173190  60.0379005  78.7803802  67.7120236  58.7469823
  75.5904911  68.3717022  59.9177432  74.7542223  68.7091708  60.2386707
  75.4509681  68.2366002  58.9804569  77.5657992  63.2153810  64.6256617
  76.9122404  62.9002827  64.0013231  77.5238466  62.5929550  65.3516439
  78.6769197  73.4973105  56.5409909  77.7696258  73.2662358  56.7401058
  79.1740229  72.7010724  56.7283890  72.9191826  70.8455248  62.7290053
  71.9889414  70.7839703  62.9460015  73.0149298  70.3231201  61.9326694
  75.4643291  68.2164249  57.1175339  74.5872758  68.0953050  56.7537586
  75.9401044  67.4250328  56.8654228  70.1921985  69.8106105  62.5588245
  70.4875426  68.9016783  62.5055299  69.2910021  69.7893844  62.2369247
  71.9209827  67.4920202  62.6827570  71.5922533  66.6117581  62.5002676
  72.2749197  67.4367871  63.5703959  77.0219797  66.2767794  61.2496340
  77.7428160  66.6549046  60.7460057  76.3985101  66.9956670  61.3531318
  77.1683420  65.8115584  64.0793877  77.2899331  64.8832230  64.2784765
  76.8785462  65.8254270  63.1672192  73.1661760  69.1563252  60.6756995
  72.4731005  69.2307607  60.0197030  72.9213511  68.3923596  61.1978511
  80.0255683  71.2278660  56.9837564  80.9714788  71.0984868  57.0525982
  79.6469928  70.4893322  57.4606992  78.2098600  69.1528636  56.9192449
  77.3030056  68.8561749  56.9955163  78.4874581  68.8558454  56.0526736
  79.8260666  63.6965526  63.0736691  79.0161394  63.3512611  63.4491937
  80.5145083  63.3873070  63.6624302  76.9797385  66.0115572  57.0604428
  77.8416549  66.3370470  57.3200246  77.1647729  65.2247067  56.5477494
  77.9326828  63.2511615  60.3484137  77.9205498  64.1953455  60.5052408
  78.8250250  63.0681760  60.0543599  81.7478947  59.8454391  64.6030074
  80.9811343  59.2912878  64.7486757  82.1589652  59.9176260  65.4644226
  33.3527729  -1.5351295  51.0290639  33.2751759  -0.5843470  51.1079119
  32.7489373  -1.8805422  51.6865565  32.0121696  -4.0249774  58.4057199
  32.5629121  -4.1532710  57.6334193  31.1733172  -3.7254885  58.0552092
  38.2262259  -2.1034936  46.1851901  37.5523957  -1.8003239  46.7936859
  38.6128081  -1.3005856  45.8357358  36.4253474  -1.9355264  48.3998981
  36.6005230  -2.4067220  49.2144603  35.7386262  -1.3089497  48.6280241
  30.9914559   1.2134099  55.1738841  31.2311157   1.8452623  55.8517859
  30.1483756   0.8622139  55.4604200  35.5042421  -2.9786778  57.5780345
  35.4312593  -2.1731807  58.0899649  35.0619814  -2.7794813  56.7528366
  35.2932201  -3.7415008  51.0883166  34.5099723  -3.1993328  51.1821391
  35.9924946  -3.2241029  51.4877407  37.9641105  -3.0799944  59.7338503
  38.6769077  -2.4452480  59.6614405  37.4731133  -2.9836078  58.9178505
  28.6120736  -5.7969146  57.4875177  29.1974173  -6.5425458  57.6203081
  28.4145575  -5.4865189  58.3711841  31.4659391  -2.7617899  52.5037619
  30.7969767  -2.2771771  52.0201659  31.3272261  -2.5148678  53.4180998
  35.6064660  -0.7274155  59.1020278  36.1582968  -0.5642533  59.8669363
  35.9470853  -0.1369717  58.4300302  35.7530471  -3.1615673  61.1168932
  36.0617598  -3.4066527  61.9891632  36.5505953  -2.9569035  60.6287802
  35.7751083  -1.0077764  53.3474309  35.3356074  -1.5001385  54.0407165
  36.5259200  -1.5504796  53.1066384  28.2543422  -4.8166223  53.3498937
  29.0801442  -5.1162451  52.9697580  27.9037474  -5.5858600  53.7988725
  28.5664133  -2.6853609  55.0712751  28.4318601  -3.4453208  54.5050749
  28.1496195  -1.9612709  54.6041540  31.7233259  -1.7884292  55.2831194
  31.6065643  -0.8438859  55.1809884  30.9025705  -2.0910730  55.6716993
  32.7487773  -1.1356030  58.4987122  33.6515020  -1.1032419  58.8153617
  32.5225143  -2.0655579  58.5133458  34.5041375  -2.3825043  55.1597201
  33.5537006  -2.3823181  55.0461573  34.8073861  -3.1292309  54.6433235
  50.2394069   3.4535495  56.2242963  50.8772479   3.3342243  55.5206303
  50.1214912   4.4016339  56.2830915  47.0483775   3.4062923  56.1604488
  46.7102286   3.2903988  55.2725023  47.9173543   3.0054088  56.1405494
  42.9070591   5.2598400  52.1501379  42.3435456   5.1688337  51.3817667
  42.7922986   4.4398304  52.6303871  47.5303558   4.5597775  62.1190693
  47.5192199   4.1650573  61.2471197  47.6924197   3.8263848  62.7124465
  40.4535023   6.7549591  54.9885599  41.2456314   6.4140416  54.5731899
  40.6931673   6.8644566  55.9087753  48.4870149   8.9269368  47.4615844
  47.8358129   9.5123448  47.0749858  49.2814512   9.4575562  47.5210881
  42.4125776   6.0158505  47.8602978  43.1856652   5.4687492  47.7215854
  42.7651175   6.8802754  48.0717439  44.2510819   7.3434887  61.0669877
  43.9600685   8.2480518  60.9516544  44.8867803   7.3851415  61.7813947
  45.1767026   4.7211735  57.6571237  45.7730598   4.4967758  56.9428200
  45.2341997   3.9796481  58.2596685  44.7492054   2.1751171  45.4921428
  45.0017575   1.6532692  44.7304891  43.8116613   2.0117316  45.5948112
  49.9645414   6.6159799  47.9984828  49.3291247   6.6894426  48.7105733
  49.6342821   7.2053398  47.3203907  44.4688343   4.0779277  47.6945803
  44.3524601   3.4024180  48.3626887  44.5790603   3.5911651  46.8777956
  46.8119884   3.5389424  51.3992492  46.4478091   3.0120045  52.1105414
  47.6687000   3.1487893  51.2258978  49.2100704   7.0296302  58.0619671
  48.9101427   7.9321341  57.9535478  48.8651764   6.7628486  58.9140824
  42.6613186   3.4810099  54.0956375  41.7363682   3.3486313  54.3034067
  42.9097599   4.2604319  54.5926318  46.4314592   1.0236981  47.3800508
  46.3114217   1.4694032  48.2185988  45.7367180   1.3722299  46.8214046
  40.0221997   3.1243373  54.9300165  40.1514378   3.3777852  55.8439576
  39.3419448   3.7171081  54.6104820  44.1921484  13.7940623  51.0290639
  44.1145514  14.7448448  51.1079119  43.5883128  13.4486495  51.6865565
  46.6838714   0.9668488  63.6852006  45.9072048   1.5262408  63.6754870
  47.3229277   1.4525271  64.2066876  44.9385086   3.7753942  63.2469973
  45.6799770   4.3138986  62.9704796  44.2322071   4.4020230  63.4041524
  50.4140426   5.9183082  61.8442134  50.8223782   5.4765493  61.0996767
  49.6917687   5.3435710  62.0976327  46.7671496   0.8555689  59.2175691
  47.6132691   1.2795102  59.3610340  46.7070133   0.1989313  59.9114254
  50.7369240   6.4784273  55.5994423  50.1078103   6.6429987  54.8970491
  50.3494902   6.8925882  56.3705387  54.6158472   7.4138711  52.9538787
  53.9309510   7.7937612  52.4035820  54.7002322   8.0234037  53.6870735
  51.8709404   5.0598670  59.5534130  52.0826299   5.7030429  58.8768511
  51.8239152   4.2260986  59.0856060  46.2897202   6.2158681  52.8644508
  46.7535548   6.4946384  52.0749131  46.0254000   5.3142125  52.6817599
  43.1821283   5.7630162  55.8024271  43.7522640   6.1917431  55.1641756
  43.7729395   5.4812747  56.5008457  45.2266088   2.3381833  49.6734073
  45.9290132   2.7902877  50.1408000  44.8946717   1.6965652  50.3013966
  43.6746450   0.9293590  64.0485283  43.0445110   1.6109871  64.2820679
  43.5682538   0.8176671  63.1038421  38.9691422   0.5965386  54.9751207
  38.1790476   0.8522914  54.4991317  39.4602670   1.4113724  55.0803247
  52.9855232   7.9370625  57.7256488  53.8072675   7.5350812  57.4439169
  52.9817635   7.8338859  58.6772603  40.9206168   0.9609965  51.9334684
  40.1237331   1.0728659  52.4518179  40.6931760   1.2996617  51.0675574
  46.7511835   7.4854668  59.8817198  46.8156268   7.9475075  60.7175370
  46.0422759   6.8552033  60.0099508  37.2529125   0.8495876  57.4066198
  37.5037164   1.7342886  57.6723774  37.7888674   0.6700478  56.6341289
  46.4659853   9.1522776  49.7496178  46.3305528   9.9974311  50.1781026
  47.0069665   9.3542053  48.9862112  39.9189250   6.6698214  50.3224104
  40.4313771   7.4641464  50.4729668  40.5711963   5.9724504  50.2557705
  41.7284135   9.7863970  52.4046857  41.9050763  10.7081935  52.2167841
  42.5240968   9.4722389  52.8341237  41.0136491   1.8328602  62.2809020
  40.8990007   0.9313859  62.5816119  40.1581009   2.0792299  61.9293836
  48.0928329   9.7746342  63.8796521  47.6492183   8.9882721  63.5617425
  48.7545543   9.9625493  63.2140411  42.8515450  11.3042144  58.4057199
  43.4022876  11.1759207  57.6334193  42.0126926  11.6037033  58.0552092
  50.1909567  10.0549142  61.9077922  50.1728043  10.8758023  61.4158191
  51.1129487   9.9303217  62.1328063  46.6482621   7.5693272  62.7501430
  47.1810958   6.8081560  62.5200738  46.1196703   7.2766923  63.4925585
  37.8838167   4.9986868  51.0983674  38.7213389   5.4083876  50.8817382
  38.0616435   4.0586310  51.0683868  49.7802599   2.6661949  46.7867507
  49.2649223   3.4366553  47.0255894  49.5079908   1.9927085  47.4100569
  54.7536873   5.4194303  48.7220681  53.9766316   5.0805463  48.2775843
  55.4328354   5.4246927  48.0475646  48.0135334   6.6979264  50.2620242
  47.4856696   5.9632024  49.9493480  47.5122837   7.4753940  50.0160211
  52.9928180   4.8928285  55.3787289  52.3351855   5.5827546  55.4667417
  53.7968579   5.2824717  55.7221275  51.8033639   3.2472657  53.4291230
  52.3165521   3.8802649  53.9312940  52.4534863   2.6473853  53.0634590
  43.0723649  -0.6096609  46.6422739  42.2360961  -0.2721922  46.9632014
  42.9328419  -0.7447629  45.7049876  46.1587934   4.5159474  43.2655215
  45.2514996   4.2848728  43.4646364  46.6558966   3.7197094  43.4529197
  49.0656013  13.2256982  46.1851901  48.3917712  13.5288678  46.7936859
  49.4521835  14.0286062  45.8357358  48.2814470   0.7222113  55.6749571
  47.3637031   0.9437060  55.5171259  48.6974613   0.7968423  54.8161278
  49.0649518   2.1213529  50.8052251  49.8121337   2.6334926  50.4959373
  49.3341107   1.7997581  51.6656645  47.3376168   4.6172069  47.7879205
  46.4287387   4.3331102  47.8851675  47.3671252   5.0371148  46.9282512
  52.5695435   8.2278659  51.5570373  52.1157762   7.3869569  51.6135563
  51.9389402   8.8640057  51.8945153  51.0128374  10.0655155  52.4920191
  51.3051349  10.6260213  51.7732557  51.5226995  10.3583716  53.2473350
  37.9064338   2.3377583  51.7694408  37.7088738   1.7446944  51.0445474
  37.3511002   2.0329794  52.4870346  45.8861062   2.2300690  53.8889001
  45.9409672   1.2774526  53.8131477  45.0752264   2.3860129  54.3730299
  47.0352256   6.1580813  45.1267284  46.5971686   5.4416672  44.6672921
  47.7762696   6.3856928  44.5652375  43.8253422   0.8477750  51.6479380
  43.0121287   1.1471920  52.0544572  44.3212416   0.4533438  52.3653862
  45.9762000  10.8435507  53.5813644  45.9338178  11.0696353  52.6522176
  46.8924698  10.6098881  53.7299445  49.4227633   1.3119574  60.4794273
  49.7777021   1.5391047  61.3388739  50.0699765   1.6437951  59.8571529
  55.1525370   4.4338010  51.1843602  55.0143269   4.6239606  50.2564792
  54.7961589   5.1957393  51.6411654  55.1794750   6.5014537  56.1954874
  55.6131257   6.4089826  57.0437928  55.8926331   6.4772037  55.5574890
  44.0927800   7.7198536  53.3775607  44.8868399   7.2248856  53.1758182
  43.3819493   7.1916399  53.0143313  48.9122645  10.1016631  57.7287975
  48.9659667  10.6707567  58.4965690  48.0437426  10.2718516  57.3642012
  40.4010564   1.8641617  49.4535360  39.4708152   1.8026073  49.6705322
  40.4968036   1.3417570  48.6572001  40.3196113  -1.6103570  52.0413601
  40.5802930  -0.6958237  51.9322762  41.1413285  -2.0779127  52.1910214
  41.7921038  -0.1965813  59.2112426  42.4644092  -0.4048451  58.5625075
  40.9650825  -0.3943727  58.7717658  56.0410300   6.5438238  58.7287759
  56.2346190   7.4484048  58.9747034  55.9410918   6.0845657  59.5626344
  51.1025408   6.6944980  64.3028640  50.9510915   6.4655532  63.3858724
  51.0930088   7.6515582  64.3159985  47.8710745   4.2676893  59.2874906
  48.8002805   4.4188053  59.1143874  47.4501775   4.3560914  58.4323553
  46.6699076   8.2927558  57.0573444  46.5310162   7.9246342  57.9299382
  45.8813673   8.8075197  56.8857402  47.2647228  13.3936654  48.3998981
  47.4398984  12.9224697  49.2144603  46.5780016  14.0202420  48.6280241
  48.2204292   7.6709160  54.4462282  47.8854124   7.6309930  55.3419932
  47.7208237   7.0053876  53.9732692  42.1948536   3.0776790  59.9714863
  42.0568333   2.3457029  60.5726402  43.1053459   2.9885690  59.6899051
  51.1563483   5.0165195  44.7199342  50.5392654   4.2912023  44.6232394
  50.6879972   5.7774555  44.3766416  44.8230836   2.7896750  59.4598543
  45.5330455   2.1489942  59.4185161  44.7800144   3.0409644  60.3824723
  52.8117615   9.7264103  62.3805122  52.7530161   9.0423323  61.7135705
  53.2137133  10.4683093  61.9285748  43.5359770  -0.2238033  61.2794182
  42.9997127  -0.6747294  61.9315778  42.9476479  -0.0892124  60.5364646
  52.8135022   7.6903687  60.6119102  51.9261801   7.3529609  60.7345500
  53.3833573   6.9586718  60.8487867  34.4664169   4.0227779  53.9362153
  35.1535209   3.7089509  53.3483168  34.3112298   4.9269143  53.6629404
  39.2698891  -1.0882025  58.3647177  39.1857080  -1.6956355  57.6297587
  38.4481598  -0.5973006  58.3656673  46.3436176  12.3505139  57.5780345
  46.2706347  13.1560111  58.0899649  45.9013569  12.5497105  56.7528366
  46.1325955  11.5876909  51.0883166  45.3493477  12.1298589  51.1821391
  46.8318700  12.1050889  51.4877407  48.8034859  12.2491973  59.7338503
  49.5162831  12.8839438  59.6614405  48.3124888  12.3455839  58.9178505
  50.5252386   6.1543226  51.3055795  49.5908665   6.2744688  51.1360499
  50.7029054   5.2515693  51.0415805  43.8546773   9.9986417  60.5544074
  44.5556232  10.6322900  60.7073468  43.3841888  10.3401148  59.7939713
  51.9801168   8.3404367  48.8391981  52.2561012   8.2260961  49.7485855
  51.1105667   7.9421851  48.8004154  51.6548059   2.5531024  58.3796625
  51.0019509   2.8006932  57.7249077  52.0328438   1.7395162  58.0459102
  48.6155232  12.5890717  52.4824795  48.7977627  11.7712373  52.9452547
  49.4388218  12.8058410  52.0449685  48.9497398  11.5158902  49.7439843
  49.4785164  11.0051357  49.1310005  49.2125617  11.2001433  50.6085376
  47.7035632   3.2950835  64.8662662  47.0276269   3.1944965  65.5365037
  48.5263265   3.1390049  65.3298659  39.4514491   9.5322772  57.4875177
  40.0367927   8.7866460  57.6203081  39.2539329   9.8426728  58.3711841
  42.3053146  12.5674019  52.5037619  41.6363521  13.0520147  52.0201659
  42.1666016  12.8143240  53.4180998  34.0432145   2.1028372  56.2079620
  34.0816245   1.5691963  57.0016738  33.5372438   1.5763577  55.5890597
  46.4458414  14.6017763  59.1020278  46.9976722  14.7649384  59.8669363
  46.7864608  15.1922201  58.4300302  40.8975180  -0.9783955  63.3515197
  41.5247219  -1.3606878  63.9652721  40.0403099  -1.1969753  63.7170889
  51.2969289   9.4279020  64.9568932  51.8409193  10.0408978  64.4623887
  50.7156134   9.9858599  65.4735945  37.6740723   0.8292474  49.2833551
  37.9694164  -0.0796847  49.2300605  36.7728759   0.8080214  48.9614554
  49.5826802  12.5499738  56.0883960  49.4577941  11.7489478  55.5794905
  50.2405893  13.0445932  55.5997930  41.2034970  -1.0951529  55.2661100
  40.4821556  -0.4815562  55.1268573  41.9928226  -0.5593764  55.1877746
  51.6461710  10.3508758  57.7163510  50.6992046  10.2314109  57.6441837
  51.9944483   9.4631256  57.7989771  39.4028565  -1.4893428  49.4072877
  39.0741271  -2.3696049  49.2247983  39.7567935  -1.5445760  50.2949266
  48.6508143  10.1461475  53.9167862  48.5033106   9.2178182  54.0975432
  49.4761637  10.1681565  53.4324937  42.5170388  -1.2020458  49.7748354
  42.8566460  -0.6734537  49.0526963  42.9642508  -0.8640052  50.5506921
  52.2542265  10.9690033  55.0032735  53.1788813  10.7632895  54.8657186
  52.0857569  10.7206434  55.9122076  43.3868879   0.9585025  55.4870724
  43.2413460   1.2725328  56.3795005  42.9094083   1.5769926  54.9341623
  52.0437581  11.4875701  50.3594826  52.2174459  10.9222123  49.6068679
  52.5366473  12.2876596  50.1774316  37.8614541   3.4990370  58.4258385
  37.3168009   4.2750178  58.5578659  38.7393891   3.8461174  58.2677507
  53.0312754  10.8042465  47.4591725  53.7263659  11.4249158  47.6779039
  53.3735904   9.9537816  47.7344102  38.6480563   2.6260266  61.3188542
  37.9062299   2.7742901  61.9053172  38.3273307   2.8868532  60.4555291
  54.9304177   8.2542171  48.9879055  55.4555501   8.5929443  48.2628375
  54.8426530   7.3189186  48.8042190  46.5924226  12.1676244  61.1168932
  46.9011352  11.9225391  61.9891632  47.3899708  12.3722883  60.6287802
  46.6144838  14.3214154  53.3474309  46.1749828  13.8290533  54.0407165
  47.3652955  13.7787122  53.1066384  39.0937177  10.5125695  53.3498937
  39.9195197  10.2129467  52.9697580  38.7431229   9.7433317  53.7988725
  44.0618710   9.8652163  55.4196610  43.4398719   9.2022868  55.1198838
  44.7323577   9.8913295  54.7370258  37.2945782   8.4312021  54.3087870
  36.4577690   8.0034196  54.1271871  37.2669427   8.6244465  55.2458661
  54.6198083   8.8875074  64.2930253  53.8293627   8.8699213  63.7534753
  54.3831438   9.4263368  65.0479290  54.7395958   5.7367541  61.6062982
  54.7893963   5.5717548  62.5478505  54.6309882   4.8694800  61.2160863
  43.6232217   8.4156086  48.8955071  43.7720337   9.0991551  48.2421744
  44.4298660   8.3961176  49.4104527  56.2414155   8.1564482  61.8505003
  55.9498963   8.5194463  62.6868464  55.6286286   7.4431490  61.6718335
  57.4409837   5.7217362  54.3707574  58.2756729   6.1607166  54.5345134
  57.5768966   5.2456015  53.5515819  54.4901343   3.2797097  60.3185061
  54.9655465   3.4724743  59.5103913  53.5666909   3.3356283  60.0728445
  41.3784850   4.4421264  49.9016140  41.1330892   3.5383594  50.0996350
  41.5480764   4.4438414  48.9595618  40.6480497   0.1749622  47.4002301
  39.9549742   0.2493977  46.7442337  40.4032249  -0.5890035  47.9223818
  47.1227622  10.9104217  46.3666818  46.5501589  11.5294404  45.9137290
  47.6960416  11.4603578  46.9006740  50.3424882  11.1941367  47.4975400
  51.2755555  11.1286929  47.7008276  50.2548095  12.0297634  47.0389933
  52.9712899  10.5107237  44.4579348  52.8926530  10.1767101  45.3515106
  53.7922566  11.0029005  44.4570820  47.5074421   2.2465030  43.7082871
  48.4533526   2.1171238  43.7771289  47.1288666   1.5079691  44.1852299
  47.3913113   6.2982776  65.1683528  48.3116123   6.4761375  65.3623574
  47.3562696   5.3538821  65.0163227  45.6917338   0.1715006  43.6437756
  44.7848793  -0.1251881  43.7200470  45.9693319  -0.1255176  42.7772042
  36.6095278   1.4921369  54.0936802  36.2898063   0.6386678  53.8011176
  36.0628707   1.7069947  54.8494770  40.3875186   4.2083810  57.8106309
  40.6061196   5.1400918  57.8294343  40.8000960   3.8491785  58.5961113
  45.2603051  -0.2182984  67.2009058  45.1599778   0.7311373  67.1321149
  45.0424593  -0.5464745  66.3285128  36.4783538   5.1124281  56.0629924
  35.7847010   4.6978234  55.5499878  37.2256529   5.1544817  55.4663343
  45.1234321   3.2114155  66.0174119  44.6401403   4.0114515  66.2238008
  45.2095260   3.2222100  65.0641563  38.3920281   5.0442535  53.9395939
  38.3690969   5.1430222  52.9877822  38.7020917   5.8907685  54.2613105
  41.0507659   7.1018690  58.0542553  42.0050912   7.0702632  57.9872485
  40.8520182   6.6409313  58.8692779  41.6407041   5.6719806  60.6213351
  42.4599930   6.1663884  60.6448188  41.9143849   4.7551774  60.5930918
  39.4057888  12.6438309  55.0712751  39.2712356  11.8838710  54.5050749
  38.9889950  13.3679209  54.6041540  50.5416851   7.8275233  44.0789326
  51.2452701   8.0325235  44.6946982  49.8179499   8.3951995  44.3438410
  51.3714661   3.5785094  50.1991597  51.3149862   4.0353645  49.3599229
  51.9243003   2.8175779  50.0214439  42.5627013  13.5407626  55.2831194
  42.4459398  14.4853059  55.1809884  41.7419460  13.2381188  55.6716993
  52.4503548   8.2657762  46.1287786  53.2849152   7.8338960  45.9465261
  52.2887891   8.0939776  47.0564681  52.1049440   4.7689875  47.4944126
  52.0498244   4.6034147  46.5532570  51.4795495   5.4765908  47.6506315
  36.8941955   0.0057940  61.3205548  37.5400819  -0.5043106  61.8092773
  36.6859106   0.7426621  61.8948973  49.4195347   7.0738787  66.8197688
  50.2886507   7.2479439  66.4584323  48.9402099   7.8933204  66.6973418
  43.5881528  14.1935888  58.4987122  44.4908774  14.2259498  58.8153617
  43.3618898  13.2636339  58.5133458  45.3435130  12.9466875  55.1597201
  44.3930761  12.9468736  55.0461573  45.6467616  12.1999609  54.6433235
  61.0787823  18.7827413  56.2242963  61.7166233  18.6634160  55.5206303
  60.9608666  19.7308257  56.2830915  57.8877529  18.7354841  56.1604488
  57.5496041  18.6195906  55.2725023  58.7567298  18.3346006  56.1405494
  58.3697312  19.8889693  62.1190693  58.3585953  19.4942491  61.2471197
  58.5317952  19.1555765  62.7124465  55.0904574  22.6726805  61.0669877
  54.7994440  23.5772435  60.9516544  55.7261558  22.7143332  61.7813947
  56.0160780  20.0503653  57.6571237  56.6124353  19.8259676  56.9428200
  56.0735752  19.3088399  58.2596685  55.5885809  17.5043088  45.4921428
  55.8411329  16.9824610  44.7304891  54.6510368  17.3409234  45.5948112
  60.6329092  16.5078867  53.2996171  61.4192181  16.0898290  52.9486588
  60.8967796  17.4124959  53.4677820  66.0337519  16.4454100  54.2029150
  66.7662691  15.8753317  54.4366979  65.2776874  16.0575700  54.6435655
  63.5562939  10.1575674  58.6623758  63.2246264  11.0271085  58.4384973
  62.9608552   9.8411958  59.3417789  57.2919125  13.8971241  46.3953841
  57.4593528  14.7651478  46.7624312  57.1016295  14.0598523  45.4715130
  60.0494459  22.3588220  58.0619671  59.7495182  23.2613259  57.9535478
  59.7045518  22.0920403  58.9140824  63.4491602  14.8770760  55.7417108
  62.5408480  14.8086169  55.4475869  63.3979198  15.3542705  56.5698934
  57.2708346  16.3528899  47.3800508  57.1507972  16.7985949  48.2185988
  56.5760935  16.7014216  46.8214046  57.5232468  16.2960406  63.6852006
  56.7465802  16.8554326  63.6754870  58.1623031  16.7817189  64.2066876
  65.3153249  13.0787199  57.5194982  64.6727629  13.3719732  56.8734777
  64.8108177  12.9640119  58.3248179  62.9693412  16.8250372  48.2080842
  63.8811269  17.0577759  48.0328539  62.4603060  17.4087416  47.6455920
  55.7778841  19.1045859  63.2469973  56.5193525  19.6430903  62.9704796
  55.0715826  19.7312148  63.4041524  61.2534180  21.2475000  61.8442134
  61.6617536  20.8057410  61.0996767  60.5311442  20.6727627  62.0976327
  57.6065250  16.1847606  59.2175691  58.4526445  16.6087020  59.3610340
  57.5463888  15.5281231  59.9114254  61.5762995  21.8076190  55.5994423
  60.9471857  21.9721904  54.8970491  61.1888657  22.2217800  56.3705387
  65.4552227  22.7430628  52.9538787  64.7703265  23.1229530  52.4035820
  65.5396076  23.3525955  53.6870735  60.7564696  13.8451975  60.8756865
  60.5125627  14.5994035  60.3391140  61.0324626  14.2237322  61.7104112
  62.7103158  20.3890587  59.5534130  62.9220054  21.0322347  58.8768511
  62.6632907  19.5552904  59.0856060  60.3129387  13.0008408  56.4570702
  59.4513866  13.2989661  56.7487440  60.3391822  13.2178807  55.5251735
  56.0659843  17.6673751  49.6734073  56.7683886  18.1194794  50.1408000
  55.7340471  17.0257570  50.3013966  54.5140204  16.2585507  64.0485283
  53.8838865  16.9401788  64.2820679  54.4076292  16.1468589  63.1038421
  49.8085177  15.9257303  54.9751207  49.0184231  16.1814832  54.4991317
  50.2996424  16.7405641  55.0803247  63.8248986  23.2662543  57.7256488
  64.6466430  22.8642730  57.4439169  63.8211389  23.1630777  58.6772603
  57.5905590  22.8146586  59.8817198  57.6550022  23.2766993  60.7175370
  56.8816514  22.1843951  60.0099508  48.0922880  16.1787794  57.4066198
  48.3430918  17.0634804  57.6723774  48.6282428  15.9992395  56.6341289
  71.9154979  19.6101291  54.0741459  71.1618688  19.0408689  53.9185464
  72.0502520  19.5763956  55.0212094  53.7920947  10.5606273  66.4110534
  53.3987893  10.0072472  67.0858178  54.6087087  10.8716852  66.8017051
  56.7088908  11.9764152  64.0030790  57.4498621  12.5771306  63.9235253
  56.9406831  11.2341790  63.4448833  58.9322084  25.1038260  63.8796521
  58.4885938  24.3174638  63.5617425  59.5939297  25.2917410  63.2140411
  61.0303322  25.3841060  61.9077922  61.0121797  26.2049941  61.4158191
  61.9523242  25.2595135  62.1328063  57.4876376  22.8985189  62.7501430
  58.0204713  22.1373478  62.5200738  56.9590457  22.6058841  63.4925585
  60.6546071   8.0045255  58.2795072  60.3110340   8.8946897  58.2034183
  61.0225034   7.8146913  57.4164657  60.6196354  17.9953866  46.7867507
  60.1042977  18.7658471  47.0255894  60.3473662  17.3219003  47.4100569
  58.2043465  12.8403567  51.8452745  57.3485061  12.4510418  51.6658384
  58.6170416  12.9195528  50.9852531  59.7342611  10.3749910  56.2444305
  59.2307407  10.3380046  55.4312110  60.0273218  11.2842653  56.3040962
  55.9785497  10.4588640  55.2510487  56.8438494  10.2631449  54.8916376
  56.0463006  10.2298992  56.1779844  65.5930628  20.7486221  48.7220681
  64.8160071  20.4097381  48.2775843  66.2722109  20.7538844  48.0475646
  60.4082657  15.8680959  48.6127288  60.1032792  16.1827108  49.4637431
  61.3613099  15.9462378  48.6554621  63.8321935  20.2220202  55.3787289
  63.1745609  20.9119464  55.4667417  64.6362334  20.6116634  55.7221275
  53.5847816  12.6890848  52.6226854  54.1591568  12.4666030  51.8900047
  54.1718799  12.7579543  53.3755455  62.6427393  18.5764575  53.4291230
  63.1559275  19.2094567  53.9312940  63.2928617  17.9765771  53.0634590
  53.9117403  14.7195309  46.6422739  53.0754716  15.0569996  46.9632014
  53.7722173  14.5844289  45.7049876  55.8870484   9.5632097  51.3501923
  55.2334896   9.2481114  50.7258538  55.8450958   8.9407837  52.0761746
  59.1208224  16.0514031  55.6749571  58.2030786  16.2728978  55.5171259
  59.5368368  16.1260341  54.8161278  59.9043272  17.4505446  50.8052251
  60.6515091  17.9626843  50.4959373  60.1734862  17.1289499  51.6656645
  63.4089190  23.5570576  51.5570373  62.9551517  22.7161486  51.6135563
  62.7783156  24.1931975  51.8945153  62.3522109  14.4862562  52.7871040
  61.6144866  13.9739949  53.1181283  62.6048883  14.0462944  51.9754317
  61.8522129  25.3947073  52.4920191  62.1445103  25.9552130  51.7732557
  62.3620749  25.6875634  53.2473350  62.4533737   7.2638814  53.3812810
  62.7592613   6.4036178  53.0938725  63.1786341   7.8556435  53.1811804
  48.7458093  17.6669501  51.7694408  48.5482492  17.0738862  51.0445474
  48.1904757  17.3621711  52.4870346  56.7254816  17.5592608  53.8889001
  56.7803426  16.6066444  53.8131477  55.9146018  17.7152047  54.3730299
  54.6647176  16.1769667  51.6479380  53.8515042  16.4763838  52.0544572
  55.1606170  15.7825356  52.3653862  60.2621388  16.6411492  60.4794273
  60.6170776  16.8682965  61.3388739  60.9093519  16.9729869  59.8571529
  65.9919125  19.7629928  51.1843602  65.8537023  19.9531524  50.2564792
  65.6355344  20.5249310  51.6411654  54.1561251  13.7488023  57.2640615
  54.7960630  13.6076782  56.5663578  53.3238782  13.4622536  56.8879217
  66.0188504  21.8306455  56.1954874  66.4525011  21.7381744  57.0437928
  66.7320085  21.8063955  55.5574890  59.7516399  25.4308549  57.7287975
  59.8053422  25.9999485  58.4965690  58.8831181  25.6010434  57.3642012
  51.1589867  13.7188348  52.0413601  51.4196685  14.6333681  51.9322762
  51.9807040  13.2512790  52.1910214  52.6314793  15.1326105  59.2112426
  53.3037846  14.9243467  58.5625075  51.8044579  14.9348191  58.7717658
  66.8804054  21.8730155  58.7287759  67.0739944  22.7775966  58.9747034
  66.7804672  21.4137574  59.5626344  58.5340365  11.7588046  61.2278087
  57.8868280  12.4577996  61.1342563  59.3041380  12.1924190  61.5954335
  61.9419163  22.0236898  64.3028640  61.7904669  21.7947450  63.3858724
  61.9323842  22.9807499  64.3159985  58.7104499  19.5968811  59.2874906
  59.6396559  19.7479970  59.1143874  58.2895529  19.6852832  58.4323553
  57.5092831  23.6219475  57.0573444  57.3703917  23.2538260  57.9299382
  56.7207427  24.1367115  56.8857402  59.0598046  23.0001078  54.4462282
  58.7247879  22.9601848  55.3419932  58.5601992  22.3345794  53.9732692
  55.6624591  18.1188667  59.4598543  56.3724209  17.4781859  59.4185161
  55.6193899  18.3701562  60.3824723  63.6511369  25.0556021  62.3805122
  63.5923915  24.3715241  61.7135705  64.0530888  25.7975011  61.9285748
  54.3753525  15.1053885  61.2794182  53.8390882  14.6544624  61.9315778
  53.7870233  15.2399794  60.5364646  53.7855784  14.5642537  43.8420646
  52.9085250  14.4431337  43.4782892  54.2613537  13.7728615  43.5899534
  63.6528777  23.0195605  60.6119102  62.7655555  22.6821526  60.7345500
  64.2227328  22.2878636  60.8487867  50.1092646  14.2409893  58.3647177
  50.0250835  13.6335562  57.6297587  49.2875352  14.7318911  58.3656673
  57.1829930  27.6797057  57.5780345  57.1100101  28.4852028  58.0899649
  56.7407323  27.8789023  56.7528366  60.2816360  12.7263456  53.7317372
  60.7785059  11.9733419  53.4118442  59.5103341  12.7627773  53.1660581
  68.1346117  18.4303822  55.3735663  68.1235993  19.3128537  55.0029596
  67.2663497  18.0775373  55.1790200  59.6428614  27.5783891  59.7338503
  60.3556586  28.2131356  59.6614405  59.1518642  27.6747757  58.9178505
  56.8651328  14.8680839  53.4589056  56.4949116  14.3151880  54.1469962
  57.3610421  14.2638973  52.9064056  64.7518692  17.3252463  51.8405829
  65.2179144  18.1580454  51.7666132  65.2026192  16.8597444  52.5451088
  54.6940527  25.3278334  60.5544074  55.3949987  25.9614817  60.7073468
  54.2235642  25.6693066  59.7939713  62.8194923  23.6696284  48.8391981
  63.0954767  23.5552879  49.7485855  61.9499422  23.2713769  48.8004154
  62.7235355   9.6933050  55.8796731  61.8098434   9.9237277  56.0478937
  63.1528456   9.7771494  56.7310763  62.4941813  17.8822942  58.3796625
  61.8413263  18.1298849  57.7249077  62.8722193  17.0687080  58.0459102
  58.5429386  18.6242753  64.8662662  57.8670023  18.5236882  65.5365037
  59.3657020  18.4681967  65.3298659  44.8825900  17.4320290  56.2079620
  44.9209999  16.8983880  57.0016738  44.3766193  16.9055495  55.5890597
  57.2852169  29.9309680  59.1020278  57.8370477  30.0941302  59.8669363
  57.6258362  30.5214118  58.4300302  52.2616662  12.2784830  59.7042162
  52.3257989  13.1399661  59.2919560  52.1983782  11.6658832  58.9714521
  51.7368935  14.3507963  63.3515197  52.3640973  13.9685040  63.9652721
  50.8796854  14.1322165  63.7170889  62.1363043  24.7570938  64.9568932
  62.6802947  25.3700896  64.4623887  61.5549888  25.3150516  65.4735945
  60.4220556  27.8791656  56.0883960  60.2971696  27.0781396  55.5794905
  61.0799647  28.3737849  55.5997930  52.0428724  14.2340388  55.2661100
  51.3215310  14.8476356  55.1268573  52.8321980  14.7698153  55.1877746
  62.4855465  25.6800676  57.7163510  61.5385800  25.5606027  57.6441837
  62.8338238  24.7923174  57.7989771  54.8455038  11.5694815  61.5401752
  55.3689440  11.8157111  62.3028061  54.6267371  12.4014850  61.1204889
  50.2422319  13.8398489  49.4072877  49.9135025  12.9595868  49.2247983
  50.5961690  13.7846158  50.2949266  59.4901898  25.4753392  53.9167862
  59.3426860  24.5470100  54.0975432  60.3155391  25.4973483  53.4324937
  53.3564142  14.1271459  49.7748354  53.6960215  14.6557381  49.0526963
  53.8036263  14.4651865  50.5506921  63.0936020  26.2981951  55.0032735
  64.0182567  26.0924812  54.8657186  62.9251323  26.0498352  55.9122076
  56.0507583  12.5108510  59.2251422  55.7104403  11.7116323  59.6272102
  55.3446589  12.8110221  58.6528256  56.7024055   9.5957822  57.6778745
  57.5250124   9.1218301  57.5557636  56.9462118  10.3748306  58.1777432
  55.3432289  12.6246081  47.9741647  56.0640652  13.0027334  47.4705364
  54.7197593  13.3434958  48.0776625  59.4863412  13.3291230  48.9099979
  59.7027027  14.2115868  48.6088808  59.0057479  12.9377443  48.1805621
  54.2262634  16.2876943  55.4870724  54.0807214  16.6017246  56.3795005
  53.7487837  16.9061843  54.9341623  56.0859016  13.2779491  55.5351614
  56.0720585  12.3820584  55.1983911  56.8031445  13.2850155  56.1689900
  57.9385147  13.7116831  57.5804741  57.6802925  14.6333902  57.5789071
  57.4070188  13.3147266  58.2705205  62.8831336  26.8167618  50.3594826
  63.0568213  26.2514041  49.6068679  63.3760227  27.6168513  50.1774316
  55.4895912  12.1593871  50.8039184  55.6111824  11.2310518  51.0030071
  55.1997955  12.1732557  49.8917499  58.3587103   9.8448782  53.9405903
  58.3808800   9.9088115  52.9857883  58.7755162   9.0053290  54.1346410
  68.7370727  19.5804041  51.9785126  69.1801873  18.8311367  51.5804249
  67.8597237  19.5714178  51.5958858  63.8706508  26.1334383  47.4591725
  64.5657413  26.7541075  47.6779039  64.2129659  25.2829734  47.7344102
  65.7697932  23.5834088  48.9879055  66.2949256  23.9221361  48.2628375
  65.6820284  22.6481104  48.8042190  57.4317980  27.4968162  61.1168932
  57.7405107  27.2517309  61.9891632  58.2293462  27.7014800  60.6287802
  54.9736992  13.6725869  65.0129116  55.0225147  14.5487992  64.6306886
  55.5159506  13.1303262  64.4400759  65.4591838  24.2166992  64.2930253
  64.6687381  24.1991131  63.7534753  65.2225192  24.7555286  65.0479290
  65.5789713  21.0659458  61.6062982  65.6287718  20.9009466  62.5478505
  65.4703636  20.1986717  61.2160863  62.8693475  17.0490386  62.9222289
  63.7703338  16.9096851  62.6306286  62.9441450  17.2144841  63.8620466
  57.2036280  14.4257241  61.7675475  56.3339590  14.7190807  61.4958063
  57.4395761  15.0097686  62.4882739  67.0807909  23.4856400  61.8505003
  66.7892718  23.8486380  62.6868464  66.4680041  22.7723408  61.6718335
  68.2803592  21.0509280  54.3707574  69.1150483  21.4899084  54.5345134
  68.4162721  20.5747933  53.5515819  65.3295098  18.6089014  60.3185061
  65.8049219  18.8016661  59.5103913  64.4060663  18.6648200  60.0728445
  59.9075314  10.6436858  59.2840895  60.4257258  11.3797885  58.9587384
  59.5530447  10.9500851  60.1187654  60.1587908   7.0637141  54.8041792
  60.4389662   6.3960330  55.4302218  60.9438515   7.2566236  54.2916456
  64.0296767  15.4854775  58.5513367  64.9814190  15.5852872  58.5725591
  63.8600217  14.6933043  59.0611451  62.0511146  12.5710358  58.7372768
  61.4561078  12.8515370  58.0419257  61.7660843  13.0604259  59.5089509
  66.5084845  18.7060894  57.6655667  66.4761165  17.7676895  57.8515350
  67.1185468  18.7844931  56.9321492  58.3468175  17.5756947  43.7082871
  59.2927280  17.4463155  43.7771289  57.9682420  16.8371609  44.1852299
  66.6579333  15.4971938  57.7113950  66.1418382  14.7130394  57.5243879
  67.5419282  15.1690654  57.8760469  64.3190060   9.2412953  53.6709763
  64.1214881   8.9328041  54.5553094  64.9289766   9.9674592  53.8007692
  72.3261394  19.7676901  56.8061703  73.0564783  19.5062189  57.3669407
  71.7168340  19.0305623  56.8463771  70.4076691  17.9084764  57.4036155
  69.6809855  17.7740729  56.7952646  69.9923978  18.2161592  58.2092873
  58.2306868  21.6274693  65.1683528  59.1509877  21.8053292  65.3623574
  58.1956451  20.6830739  65.0163227  56.5311093  15.5006924  43.6437756
  55.6242548  15.2040036  43.7200470  56.8087074  15.2036742  42.7772042
  47.4489033  16.8213287  54.0936802  47.1291817  15.9678595  53.8011176
  46.9022461  17.0361865  54.8494770  58.1473158  10.0443813  49.7981997
  57.3373887   9.6990898  50.1737243  58.8357575   9.7351357  50.3869609
  60.0763707   9.1221860  51.4206294  60.6294745   9.5417314  52.0796317
  60.3133793   8.1957608  51.4629250  56.0996806  15.1108934  67.2009058
  55.9993533  16.0603291  67.1321149  55.8818348  14.7827173  66.3285128
  55.3009877  12.3593859  43.7849735  56.1629041  12.6848757  44.0445552
  55.4860221  11.5725355  43.2722801  63.4542514  11.2322385  50.9284958
  62.8741183  11.8907189  50.5463011  63.1878446  10.4099730  50.5172376
  61.9046080  10.6327443  53.1306278  62.4045858  10.7443978  52.3220597
  62.5481688  10.3288496  53.7707087  55.9628076  18.5406073  66.0174119
  55.4795158  19.3406433  66.2238008  56.0489015  18.5514017  65.0641563
  62.2367392  13.3922476  49.9841306  61.3493247  13.6772126  49.7661501
  62.6521381  13.2316239  49.1368583  65.5881928  13.4168997  53.6995646
  66.3642318  13.9065449  53.9720262  64.8630062  13.8427051  54.1567515
  68.0254486  14.1296616  54.7569586  68.6198977  13.8892352  54.0462894
  68.0981070  13.4103746  55.3843123  62.2108415  18.9077012  50.1991597
  62.1543617  19.3645563  49.3599229  62.7636758  18.1467696  50.0214439
  66.0213221  14.6966743  51.0241716  65.7650156  14.2963379  51.8549924
  65.3966089  15.4110537  50.8991855  70.3325559  17.4362817  53.5313007
  69.7725117  17.5056006  54.3044569  69.7269063  17.2603801  52.8112504
  62.9443195  20.0981793  47.4944126  62.8891999  19.9326064  46.5532570
  62.3189250  20.8057826  47.6506315  47.7335710  15.3349857  61.3205548
  48.3794573  14.8248811  61.8092773  47.5252861  16.0718539  61.8948973
  60.2589102  22.4030705  66.8197688  61.1280262  22.5771357  66.4584323
  59.7795853  23.2225122  66.6973418  56.2539320   9.5989902  47.0729444
  56.2417990  10.5431742  47.2297715  57.1462742   9.4160047  46.7788905
  54.4275282  29.5227806  58.4987122  55.3302529  29.5551416  58.8153617
  54.2012652  28.5928257  58.5133458  60.0691440   6.1932678  51.3275381
  59.3023835   5.6391165  51.4732063  60.4802145   6.2654547  52.1889533
  52.0733201  12.4817474  65.4180562  52.9364662  12.1254279  65.6283887
  51.4998611  12.1431369  66.1055966  71.9181578  34.1119331  56.2242963
  72.5559988  33.9926078  55.5206303  71.8002421  35.0600175  56.2830915
  68.7271284  34.0646759  56.1604488  68.3889795  33.9487823  55.2725023
  69.5961052  33.6637924  56.1405494  64.5858100  35.9182235  52.1501379
  64.0222965  35.8272172  51.3817667  64.4710495  35.0982140  52.6303871
  69.2091067  35.2181610  62.1190693  69.1979708  34.8234409  61.2471197
  69.3711706  34.4847683  62.7124465  62.1322532  37.4133427  54.9885599
  62.9243823  37.0724251  54.5731899  62.3719182  37.5228402  55.9087753
  70.1657658  39.5853203  47.4615844  69.5145638  40.1707283  47.0749858
  70.9602021  40.1159398  47.5210881  64.0913285  36.6742340  47.8602978
  64.8644161  36.1271327  47.7215854  64.4438684  37.5386589  48.0717439
  65.9298328  38.0018722  61.0669877  65.6388194  38.9064353  60.9516544
  66.5655312  38.0435250  61.7813947  66.8554535  35.3795571  57.6571237
  67.4518107  35.1551593  56.9428200  66.9129506  34.6380316  58.2596685
  66.4279563  32.8335006  45.4921428  66.6805084  32.3116527  44.7304891
  65.4904122  32.6701152  45.5948112  71.4722846  31.8370784  53.2996171
  72.2585935  31.4190208  52.9486588  71.7361550  32.7416877  53.4677820
  71.6432923  37.2743635  47.9984828  71.0078756  37.3478261  48.7105733
  71.3130330  37.8637234  47.3203907  76.8731273  31.7746018  54.2029150
  77.6056445  31.2045235  54.4366979  76.1170629  31.3867618  54.6435655
  66.1475852  34.7363112  47.6945803  66.0312110  34.0608015  48.3626887
  66.2578112  34.2495486  46.8777956  68.4907393  34.1973259  51.3992492
  68.1265600  33.6703880  52.1105414  69.3474509  33.8071728  51.2258978
  74.3956694  25.4867592  58.6623758  74.0640018  26.3563003  58.4384973
  73.8002307  25.1703876  59.3417789  68.1312880  29.2263159  46.3953841
  68.2987282  30.0943395  46.7624312  67.9410049  29.3890441  45.4715130
  70.8888213  37.6880138  58.0619671  70.5888936  38.5905177  57.9535478
  70.5439273  37.4212321  58.9140824  64.3400695  34.1393935  54.0956375
  63.4151191  34.0070149  54.3034067  64.5885108  34.9188154  54.5926318
  74.2885357  30.2062678  55.7417108  73.3802234  30.1378086  55.4475869
  74.2372953  30.6834623  56.5698934  68.1102101  31.6820816  47.3800508
  67.9901726  32.1277867  48.2185988  67.4154689  32.0306134  46.8214046
  61.7009506  33.7827208  54.9300165  61.8301887  34.0361687  55.8439576
  61.0206957  34.3754916  54.6104820  65.8708993  44.4524458  51.0290639
  65.7933023  45.4032283  51.1079119  65.2670637  44.1070331  51.6865565
  68.3626223  31.6252324  63.6852006  67.5859557  32.1846244  63.6754870
  69.0016786  32.1109107  64.2066876  76.1547003  28.4079116  57.5194982
  75.5121384  28.7011650  56.8734777  75.6501932  28.2932037  58.3248179
  73.8087167  32.1542290  48.2080842  74.7205023  32.3869676  48.0328539
  73.2996814  32.7379334  47.6455920  66.6172595  34.4337777  63.2469973
  67.3587279  34.9722821  62.9704796  65.9109580  35.0604066  63.4041524
  72.0927935  36.5766917  61.8442134  72.5011291  36.1349328  61.0996767
  71.3705196  36.0019545  62.0976327  68.4459005  31.5139524  59.2175691
  69.2920200  31.9378938  59.3610340  68.3857642  30.8573148  59.9114254
  72.4156749  37.1368108  55.5994423  71.7865612  37.3013822  54.8970491
  72.0282411  37.5509718  56.3705387  76.2945981  38.0722546  52.9538787
  75.6097019  38.4521447  52.4035820  76.3789830  38.6817873  53.6870735
  71.5958450  29.1743893  60.8756865  71.3519382  29.9285953  60.3391140
  71.8718381  29.5529240  61.7104112  73.5496913  35.7182505  59.5534130
  73.7613808  36.3614265  58.8768511  73.5026661  34.8844821  59.0856060
  71.1523142  28.3300326  56.4570702  70.2907621  28.6281579  56.7487440
  71.1785576  28.5470724  55.5251735  67.9684711  36.8742516  52.8644508
  68.4323057  37.1530219  52.0749131  67.7041509  35.9725961  52.6817599
  64.8608792  36.4213998  55.8024271  65.4310149  36.8501266  55.1641756
  65.4516904  36.1396582  56.5008457  66.9053597  32.9965668  49.6734073
  67.6077641  33.4486712  50.1408000  66.5734226  32.3549487  50.3013966
  65.3533959  31.5877425  64.0485283  64.7232619  32.2693706  64.2820679
  65.2470047  31.4760507  63.1038421  60.6478931  31.2549221  54.9751207
  59.8577985  31.5106750  54.4991317  61.1390179  32.0697559  55.0803247
  74.6642741  38.5954460  57.7256488  75.4860184  38.1934648  57.4439169
  74.6605144  38.4922694  58.6772603  62.5993677  31.6193800  51.9334684
  61.8024840  31.7312495  52.4518179  62.3719269  31.9580453  51.0675574
  68.4299344  38.1438504  59.8817198  68.4943777  38.6058911  60.7175370
  67.7210268  37.5135869  60.0099508  58.9316634  31.5079712  57.4066198
  59.1824673  32.3926722  57.6723774  59.4676183  31.3284313  56.6341289
  82.7548734  34.9393209  54.0741459  82.0012442  34.3700607  53.9185464
  82.8896275  34.9055873  55.0212094  68.1447362  39.8106611  49.7496178
  68.0093037  40.6558147  50.1781026  68.6857174  40.0125889  48.9862112
  64.6314701  25.8898191  66.4110534  64.2381647  25.3364390  67.0858178
  65.4480842  26.2008769  66.8017051  61.5976759  37.3282049  50.3224104
  62.1101280  38.1225299  50.4729668  62.2499472  36.6308340  50.2557705
  63.4071644  40.4447805  52.4046857  63.5838272  41.3665770  52.2167841
  64.2028477  40.1306225  52.8341237  67.5482662  27.3056070  64.0030790
  68.2892376  27.9063223  63.9235253  67.7800585  26.5633708  63.4448833
  62.6924000  32.4912437  62.2809020  62.5777516  31.5897695  62.5816119
  61.8368518  32.7376134  61.9293836  69.7715838  40.4330178  63.8796521
  69.3279692  39.6466556  63.5617425  70.4333052  40.6209328  63.2140411
  64.5302959  41.9625979  58.4057199  65.0810385  41.8343043  57.6334193
  63.6914435  42.2620868  58.0552092  71.8697076  40.7132978  61.9077922
  71.8515552  41.5341859  61.4158191  72.7916996  40.5887053  62.1328063
  68.3270130  38.2277107  62.7501430  68.8598467  37.4665395  62.5200738
  67.7984212  37.9350759  63.4925585  71.4939825  23.3337173  58.2795072
  71.1504095  24.2238815  58.2034183  71.8618788  23.1438831  57.4164657
  59.5625676  35.6570703  51.0983674  60.4000898  36.0667712  50.8817382
  59.7403944  34.7170146  51.0683868  71.4590108  33.3245784  46.7867507
  70.9436732  34.0950389  47.0255894  71.1867417  32.6510920  47.4100569
  69.0437219  28.1695485  51.8452745  68.1878815  27.7802335  51.6658384
  69.4564171  28.2487446  50.9852531  70.5736366  25.7041828  56.2444305
  70.0701161  25.6671963  55.4312110  70.8666973  26.6134571  56.3040962
  66.8179252  25.7880558  55.2510487  67.6832248  25.5923367  54.8916376
  66.8856761  25.5590910  56.1779844  76.4324382  36.0778139  48.7220681
  75.6553825  35.7389298  48.2775843  77.1115863  36.0830762  48.0475646
  71.2476411  31.1972876  48.6127288  70.9426547  31.5119025  49.4637431
  72.2006853  31.2754296  48.6554621  69.6922843  37.3563100  50.2620242
  69.1644205  36.6215859  49.9493480  69.1910346  38.1337776  50.0160211
  74.6715689  35.5512120  55.3787289  74.0139364  36.2411381  55.4667417
  75.4756088  35.9408552  55.7221275  64.4241571  28.0182766  52.6226854
  64.9985323  27.7957947  51.8900047  65.0112553  28.0871460  53.3755455
  73.4821148  33.9056493  53.4291230  73.9953030  34.5386485  53.9312940
  74.1322372  33.3057688  53.0634590  64.7511158  30.0487227  46.6422739
  63.9148470  30.3861913  46.9632014  64.6115928  29.9136207  45.7049876
  66.7264238  24.8924015  51.3501923  66.0728651  24.5773032  50.7258538
  66.6844713  24.2699755  52.0761746  67.8375443  35.1743310  43.2655215
  66.9302505  34.9432563  43.4646364  68.3346475  34.3780929  43.4529197
  70.7443522  43.8840817  46.1851901  70.0705221  44.1872514  46.7936859
  71.1309344  44.6869897  45.8357358  69.9601979  31.3805948  55.6749571
  69.0424540  31.6020895  55.5171259  70.3762122  31.4552259  54.8161278
  70.7437027  32.7797364  50.8052251  71.4908846  33.2918761  50.4959373
  71.0128616  32.4581417  51.6656645  69.0163677  35.2755905  47.7879205
  68.1074896  34.9914937  47.8851675  69.0458761  35.6954983  46.9282512
  74.2482944  38.8862494  51.5570373  73.7945271  38.0453404  51.6135563
  73.6176911  39.5223893  51.8945153  73.1915864  29.8154480  52.7871040
  72.4538621  29.3031866  53.1181283  73.4442637  29.3754862  51.9754317
  72.6915883  40.7238991  52.4920191  72.9838858  41.2844048  51.7732557
  73.2014504  41.0167552  53.2473350  73.2927491  22.5930732  53.3812810
  73.5986368  21.7328096  53.0938725  74.0180096  23.1848352  53.1811804
  59.5851847  32.9961419  51.7694408  59.3876247  32.4030779  51.0445474
  59.0298511  32.6913629  52.4870346  67.5648571  32.8884525  53.8889001
  67.6197181  31.9358362  53.8131477  66.7539773  33.0443964  54.3730299
  68.7139765  36.8164648  45.1267284  68.2759194  36.1000507  44.6672921
  69.4550205  37.0440763  44.5652375  65.5040931  31.5061585  51.6479380
  64.6908796  31.8055756  52.0544572  65.9999925  31.1117274  52.3653862
  67.6549509  41.5019342  53.5813644  67.6125687  41.7280188  52.6522176
  68.5712207  41.2682716  53.7299445  71.1015142  31.9703409  60.4794273
  71.4564530  32.1974883  61.3388739  71.7487274  32.3021786  59.8571529
  76.8312879  35.0921845  51.1843602  76.6930778  35.2823441  50.2564792
  76.4749098  35.8541228  51.6411654  64.9955005  29.0779941  57.2640615
  65.6354385  28.9368700  56.5663578  64.1632536  28.7914454  56.8879217
  76.8582259  37.1598372  56.1954874  77.2918766  37.0673661  57.0437928
  77.5713840  37.1355873  55.5574890  65.7715309  38.3782371  53.3775607
  66.5655908  37.8832691  53.1758182  65.0607002  37.8500234  53.0143313
  70.5910154  40.7600466  57.7287975  70.6447176  41.3291403  58.4965690
  69.7224935  40.9302351  57.3642012  62.0798073  32.5225453  49.4535360
  61.1495661  32.4609908  49.6705322  62.1755545  32.0001405  48.6572001
  61.9983622  29.0480265  52.0413601  62.2590439  29.9625599  51.9322762
  62.8200794  28.5804708  52.1910214  63.4708547  30.4618023  59.2112426
  64.1431601  30.2535385  58.5625075  62.6438334  30.2640109  58.7717658
  77.7197809  37.2022073  58.7287759  77.9133699  38.1067884  58.9747034
  77.6198427  36.7429492  59.5626344  69.3734119  27.0879964  61.2278087
  68.7262034  27.7869913  61.1342563  70.1435135  27.5216108  61.5954335
  72.7812917  37.3528816  64.3028640  72.6298424  37.1239367  63.3858724
  72.7717597  38.3099417  64.3159985  69.5498254  34.9260728  59.2874906
  70.4790314  35.0771888  59.1143874  69.1289284  35.0144749  58.4323553
  68.3486585  38.9511393  57.0573444  68.2097671  38.5830177  57.9299382
  67.5601182  39.4659032  56.8857402  68.9434737  44.0520489  48.3998981
  69.1186493  43.5808533  49.2144603  68.2567525  44.6786256  48.6280241
  69.8991801  38.3292996  54.4462282  69.5641633  38.2893766  55.3419932
  69.3995746  37.6637712  53.9732692  63.8736044  33.7360626  59.9714863
  63.7355842  33.0040864  60.5726402  64.7840968  33.6469526  59.6899051
  72.8350992  35.6749030  44.7199342  72.2180163  34.9495858  44.6232394
  72.3667481  36.4358390  44.3766416  66.5018345  33.4480585  59.4598543
  67.2117964  32.8073777  59.4185161  66.4587653  33.6993480  60.3824723
  74.4905124  40.3847938  62.3805122  74.4317670  39.7007158  61.7135705
  74.8924642  41.1266928  61.9285748  65.2147279  30.4345803  61.2794182
  64.6784636  29.9836541  61.9315778  64.6263988  30.5691712  60.5364646
  63.5095823  47.2009852  55.1738841  63.7492421  47.8328376  55.8517859
  62.6665019  46.8497892  55.4604200  74.4922531  38.3487522  60.6119102
  73.6049310  38.0113444  60.7345500  75.0621082  37.6170553  60.8487867
  56.1451678  34.6811614  53.9362153  56.8322718  34.3673344  53.3483168
  55.9899807  35.5852979  53.6629404  60.9486400  29.5701811  58.3647177
  60.8644589  28.9627480  57.6297587  60.1269107  30.0610829  58.3656673
  68.0223685  43.0088975  57.5780345  67.9493856  43.8143946  58.0899649
  67.5801078  43.2080940  56.7528366  67.8113464  42.2460745  51.0883166
  67.0280986  42.7882425  51.1821391  68.5106209  42.7634724  51.4877407
  71.1210114  28.0555374  53.7317372  71.6178814  27.3025336  53.4118442
  70.3497096  28.0919691  53.1660581  78.9739872  33.7595740  55.3735663
  78.9629748  34.6420455  55.0029596  78.1057251  33.4067290  55.1790200
  70.4822368  42.9075809  59.7338503  71.1950340  43.5423273  59.6614405
  69.9912397  43.0039675  58.9178505  72.2039895  36.8127061  51.3055795
  71.2696174  36.9328524  51.1360499  72.3816563  35.9099528  51.0415805
  67.7045083  30.1972757  53.4589056  67.3342871  29.6443797  54.1469962
  68.2004175  29.5930891  52.9064056  75.5912446  32.6544381  51.8405829
  76.0572898  33.4872372  51.7666132  76.0419947  32.1889362  52.5451088
  65.5334282  40.6570252  60.5544074  66.2343741  41.2906735  60.7073468
  65.0629397  40.9984984  59.7939713  73.6588677  38.9988202  48.8391981
  73.9348521  38.8844796  49.7485855  72.7893176  38.6005687  48.8004154
  73.5629109  25.0224968  55.8796731  72.6492189  25.2529194  56.0478937
  73.9922210  25.1063412  56.7310763  73.3335568  33.2114860  58.3796625
  72.6807018  33.4590767  57.7249077  73.7115947  32.3978998  58.0459102
  70.2942741  43.2474553  52.4824795  70.4765136  42.4296209  52.9452547
  71.1175727  43.4642245  52.0449685  70.6284907  42.1742738  49.7439843
  71.1572673  41.6635192  49.1310005  70.8913126  41.8585268  50.6085376
  69.3823141  33.9534671  64.8662662  68.7063778  33.8528800  65.5365037
  70.2050774  33.7973884  65.3298659  61.1302000  40.1906607  57.4875177
  61.7155436  39.4450295  57.6203081  60.9326838  40.5010564  58.3711841
  63.9840655  43.2257855  52.5037619  63.3151030  43.7103982  52.0201659
  63.8453525  43.4727075  53.4180998  55.7219654  32.7612207  56.2079620
  55.7603754  32.2275798  57.0016738  55.2159947  32.2347413  55.5890597
  68.1245923  45.2601598  59.1020278  68.6764231  45.4233220  59.8669363
  68.4652117  45.8506036  58.4300302  63.1010417  27.6076748  59.7042162
  63.1651743  28.4691579  59.2919560  63.0377537  26.9950749  58.9714521
  62.5762689  29.6799880  63.3515197  63.2034728  29.2976958  63.9652721
  61.7190608  29.4614082  63.7170889  72.9756798  40.0862856  64.9568932
  73.5196702  40.6992814  64.4623887  72.3943643  40.6442434  65.4735945
  71.2614311  43.2083574  56.0883960  71.1365450  42.4073313  55.5794905
  71.9193402  43.7029767  55.5997930  62.8822479  29.5632306  55.2661100
  62.1609065  30.1768274  55.1268573  63.6715735  30.0990071  55.1877746
  73.3249219  41.0092594  57.7163510  72.3779555  40.8897945  57.6441837
  73.6731992  40.1215092  57.7989771  65.6848792  26.8986733  61.5401752
  66.2083194  27.1449029  62.3028061  65.4661126  27.7306767  61.1204889
  61.0816074  29.1690407  49.4072877  60.7528780  28.2887786  49.2247983
  61.4355444  29.1138076  50.2949266  70.3295652  40.8045310  53.9167862
  70.1820615  39.8762017  54.0975432  71.1549146  40.8265401  53.4324937
  64.1957897  29.4563377  49.7748354  64.5353969  29.9849298  49.0526963
  64.6430017  29.7943783  50.5506921  73.9329774  41.6273869  55.0032735
  74.8576322  41.4216730  54.8657186  73.7645078  41.3790270  55.9122076
  66.8901337  27.8400428  59.2251422  66.5498158  27.0408241  59.6272102
  66.1840344  28.1402139  58.6528256  67.5417809  24.9249740  57.6778745
  68.3643879  24.4510218  57.5557636  67.7855873  25.7040224  58.1777432
  66.1826044  27.9537999  47.9741647  66.9034406  28.3319251  47.4705364
  65.5591348  28.6726875  48.0776625  70.3257167  28.6583148  48.9099979
  70.5420781  29.5407785  48.6088808  69.8451234  28.2669361  48.1805621
  65.0656388  31.6168861  55.4870724  64.9200969  31.9309164  56.3795005
  64.5881592  32.2353761  54.9341623  66.9252771  28.6071409  55.5351614
  66.9114340  27.7112502  55.1983911  67.6425199  28.6142072  56.1689900
  68.7778902  29.0408749  57.5804741  68.5196679  29.9625820  57.5789071
  68.2463942  28.6439183  58.2705205  73.7225090  42.1459536  50.3594826
  73.8961968  41.5805959  49.6068679  74.2153982  42.9460431  50.1774316
  59.5402050  34.1574205  58.4258385  58.9955518  34.9334013  58.5578659
  60.4181400  34.5045010  58.2677507  66.3289667  27.4885789  50.8039184
  66.4505578  26.5602435  51.0030071  66.0391709  27.5024475  49.8917499
  69.1980857  25.1740699  53.9405903  69.2202554  25.2380033  52.9857883
  69.6148916  24.3345208  54.1346410  79.5764482  34.9095959  51.9785126
  80.0195628  34.1603284  51.5804249  78.6990992  34.9006095  51.5958858
  74.7100263  41.4626300  47.4591725  75.4051168  42.0832993  47.6779039
  75.0523413  40.6121652  47.7344102  60.3268072  33.2844101  61.3188542
  59.5849808  33.4326737  61.9053172  60.0060816  33.5452367  60.4555291
  68.2711735  42.8260080  61.1168932  68.5798861  42.5809226  61.9891632
  69.0687217  43.0306718  60.6287802  68.2932347  44.9797989  53.3474309
  67.8537337  44.4874368  54.0407165  69.0440464  44.4370957  53.1066384
  60.7724686  41.1709530  53.3498937  61.5982706  40.8713302  52.9697580
  60.4218738  40.4017153  53.7988725  65.7406219  40.5235998  55.4196610
  65.1186228  39.8606703  55.1198838  66.4111086  40.5497130  54.7370258
  58.9733291  39.0895857  54.3087870  58.1365199  38.6618031  54.1271871
  58.9456936  39.2828300  55.2458661  65.8130746  29.0017786  65.0129116
  65.8618902  29.8779909  64.6306886  66.3553261  28.4595179  64.4400759
  76.2985592  39.5458910  64.2930253  75.5081136  39.5283048  63.7534753
  76.0618947  40.0847203  65.0479290  76.4183467  36.3951376  61.6062982
  76.4681472  36.2301383  62.5478505  76.3097391  35.5278635  61.2160863
  65.3019726  39.0739922  48.8955071  65.4507846  39.7575386  48.2421744
  66.1086169  39.0545012  49.4104527  73.7087230  32.3782304  62.9222289
  74.6097092  32.2388769  62.6306286  73.7835204  32.5436759  63.8620466
  68.0430035  29.7549159  61.7675475  67.1733344  30.0482725  61.4958063
  68.2789515  30.3389604  62.4882739  77.9201664  38.8148318  61.8505003
  77.6286472  39.1778298  62.6868464  77.3073795  38.1015326  61.6718335
  79.1197346  36.3801197  54.3707574  79.9544238  36.8191001  54.5345134
  79.2556475  35.9039851  53.5515819  76.1688852  33.9380932  60.3185061
  76.6442974  34.1308578  59.5103913  75.2454418  33.9940118  60.0728445
  63.0572359  35.1005099  49.9016140  62.8118401  34.1967429  50.0996350
  63.2268273  35.1022250  48.9595618  70.7469069  25.9728776  59.2840895
  71.2651013  26.7089803  58.9587384  70.3924201  26.2792769  60.1187654
  62.3268006  30.8333457  47.4002301  61.6337251  30.9077812  46.7442337
  62.0819758  30.0693801  47.9223818  70.9981663  22.3929058  54.8041792
  71.2783417  21.7252247  55.4302218  71.7832270  22.5858154  54.2916456
  68.8015131  41.5688052  46.3666818  68.2289098  42.1878239  45.9137290
  69.3747925  42.1187414  46.9006740  74.8690521  30.8146692  58.5513367
  75.8207944  30.9144790  58.5725591  74.6993972  30.0224961  59.0611451
  72.8904901  27.9002275  58.7372768  72.2954833  28.1807288  58.0419257
  72.6054597  28.3896176  59.5089509  72.0212391  41.8525202  47.4975400
  72.9543064  41.7870764  47.7008276  71.9335604  42.6881469  47.0389933
  74.6500408  41.1691073  44.4579348  74.5714039  40.8350936  45.3515106
  75.4710075  41.6612841  44.4570820  77.3478599  34.0352812  57.6655667
  77.3154919  33.0968813  57.8515350  77.9579223  34.1136849  56.9321492
  69.1861930  32.9048865  43.7082871  70.1321035  32.7755073  43.7771289
  68.8076175  32.1663527  44.1852299  77.4973087  30.8263855  57.7113950
  76.9812136  30.0422312  57.5243879  78.3813036  30.4982572  57.8760469
  75.1583814  24.5704871  53.6709763  74.9608636  24.2619959  54.5553094
  75.7683520  25.2966510  53.8007692  81.2470446  33.2376681  57.4036155
  80.5203610  33.1032646  56.7952646  80.8317733  33.5453510  58.2092873
  69.0700622  36.9566611  65.1683528  69.9903632  37.1345210  65.3623574
  69.0350205  36.0122656  65.0163227  67.3704847  30.8298841  43.6437756
  66.4636302  30.5331954  43.7200470  67.6480828  30.5328659  42.7772042
  58.2882787  32.1505205  54.0936802  57.9685572  31.2970513  53.8011176
  57.7416216  32.3653783  54.8494770  62.0662695  34.8667646  57.8106309
  62.2848705  35.7984753  57.8294343  62.4788469  34.5075620  58.5961113
  68.9866913  25.3735731  49.7981997  68.1767641  25.0282816  50.1737243
  69.6751330  25.0643275  50.3869609  70.9157461  24.4513778  51.4206294
  71.4688500  24.8709231  52.0796317  71.1527547  23.5249526  51.4629250
  66.9390560  30.4400851  67.2009058  66.8387287  31.3895208  67.1321149
  66.7212102  30.1119090  66.3285128  58.1571047  35.7708116  56.0629924
  57.4634519  35.3562069  55.5499878  58.9044038  35.8128653  55.4663343
  74.2936268  26.5614303  50.9284958  73.7134937  27.2199107  50.5463011
  74.0272201  25.7391648  50.5172376  72.7439834  25.9619361  53.1306278
  73.2439613  26.0735895  52.3220597  73.3875442  25.6580414  53.7707087
  66.8021830  33.8697990  66.0174119  66.3188912  34.6698350  66.2238008
  66.8882769  33.8805935  65.0641563  60.0707790  35.7026370  53.9395939
  60.0478478  35.8014057  52.9877822  60.3808426  36.5491521  54.2613105
  62.7295168  37.7602525  58.0542553  63.6838421  37.7286467  57.9872485
  62.5307691  37.2993149  58.8692779  63.3194550  36.3303641  60.6213351
  64.1387439  36.8247720  60.6448188  63.5931358  35.4135609  60.5930918
  73.0761146  28.7214393  49.9841306  72.1887001  29.0064044  49.7661501
  73.4915135  28.5608157  49.1368583  76.4275682  28.7460914  53.6995646
  77.2036072  29.2357367  53.9720262  75.7023816  29.1718969  54.1567515
  78.8648241  29.4588534  54.7569586  79.4592732  29.2184269  54.0462894
  78.9374825  28.7395664  55.3843123  61.0845397  43.3022144  55.0712751
  60.9499865  42.5422545  54.5050749  60.6677459  44.0263044  54.6041540
  72.2204360  38.4859068  44.0789326  72.9240210  38.6909071  44.6946982
  71.4967008  39.0535830  44.3438410  73.0502170  34.2368929  50.1991597
  72.9937371  34.6937481  49.3599229  73.6030512  33.4759614  50.0214439
  76.8606976  30.0258661  51.0241716  76.6043910  29.6255297  51.8549924
  76.2359844  30.7402455  50.8991855  81.1719314  32.7654734  53.5313007
  80.6118872  32.8347924  54.3044569  80.5662817  32.5895719  52.8112504
  64.2414522  44.1991462  55.2831194  64.1246907  45.1436894  55.1809884
  63.4206969  43.8965023  55.6716993  74.1291057  38.9241597  46.1287786
  74.9636661  38.4922796  45.9465261  73.9675400  38.7523611  47.0564681
  73.7836949  35.4273711  47.4944126  73.7285753  35.2617982  46.5532570
  73.1583004  36.1349743  47.6506315  58.5729464  30.6641775  61.3205548
  59.2188328  30.1540729  61.8092773  58.3646615  31.4010457  61.8948973
  71.0982856  37.7322622  66.8197688  71.9674016  37.9063275  66.4584323
  70.6189608  38.5517039  66.6973418  67.0933075  24.9281820  47.0729444
  67.0811744  25.8723659  47.2297715  67.9856497  24.7451965  46.7788905
  65.2669037  44.8519723  58.4987122  66.1696283  44.8843334  58.8153617
  65.0406407  43.9220174  58.5133458  67.0222639  43.6050710  55.1597201
  66.0718270  43.6052572  55.0461573  67.3255125  42.8583445  54.6433235
  70.9085194  21.5224596  51.3275381  70.1417590  20.9683083  51.4732063
  71.3195899  21.5946465  52.1889533  62.9126955  27.8109392  65.4180562
  63.7758417  27.4546197  65.6283887  62.3392366  27.4723287  66.1055966
  79.5665038  49.3938676  56.1604488  79.2283550  49.2779741  55.2725023
  80.4354807  48.9929842  56.1405494  75.4251854  51.2474153  52.1501379
  74.8616719  51.1564090  51.3817667  75.3104249  50.4274057  52.6303871
  80.0484821  50.5473528  62.1190693  80.0373462  50.1526326  61.2471197
  80.2105461  49.8139601  62.7124465  72.9716286  52.7425344  54.9885599
  73.7637578  52.4016169  54.5731899  73.2112936  52.8520319  55.9087753
  81.0051413  54.9145121  47.4615844  80.3539393  55.4999201  47.0749858
  81.7995776  55.4451315  47.5210881  74.9307040  52.0034258  47.8602978
  75.7037916  51.4563245  47.7215854  75.2832439  52.8678507  48.0717439
  76.7692083  53.3310640  61.0669877  76.4781948  54.2356271  60.9516544
  77.4049067  53.3727168  61.7813947  77.6948289  50.7087488  57.6571237
  78.2911862  50.4843511  56.9428200  77.7523261  49.9672234  58.2596685
  77.2673318  48.1626924  45.4921428  77.5198838  47.6408445  44.7304891
  76.3297877  47.9993069  45.5948112  82.3116601  47.1662702  53.2996171
  83.0979690  46.7482125  52.9486588  82.5755305  48.0708794  53.4677820
  82.4826678  52.6035552  47.9984828  81.8472511  52.6770179  48.7105733
  82.1524084  53.1929151  47.3203907  76.9869607  50.0655030  47.6945803
  76.8705865  49.3899933  48.3626887  77.0971866  49.5787404  46.8777956
  79.3301147  49.5265177  51.3992492  78.9659355  48.9995798  52.1105414
  80.1868263  49.1363646  51.2258978  78.9706634  44.5555077  46.3953841
  79.1381037  45.4235313  46.7624312  78.7803803  44.7182358  45.4715130
  81.7281968  53.0172055  58.0619671  81.4282691  53.9197094  57.9535478
  81.3833027  52.7504239  58.9140824  75.1794449  49.4685852  54.0956375
  74.2544946  49.3362066  54.3034067  75.4278862  50.2480072  54.5926318
  78.9495855  47.0112734  47.3800508  78.8295480  47.4569785  48.2185988
  78.2548444  47.3598052  46.8214046  72.5403260  49.1119126  54.9300165
  72.6695641  49.3653605  55.8439576  71.8600711  49.7046834  54.6104820
  76.7102747  59.7816376  51.0290639  76.6326777  60.7324201  51.1079119
  76.1064391  59.4362248  51.6865565  79.2019977  46.9544241  63.6852006
  78.4253311  47.5138161  63.6754870  79.8410540  47.4401024  64.2066876
  77.4566349  49.7629695  63.2469973  78.1981034  50.3014739  62.9704796
  76.7503335  50.3895983  63.4041524  82.9321689  51.9058835  61.8442134
  83.3405045  51.4641246  61.0996767  82.2098951  51.3311463  62.0976327
  79.2852759  46.8431442  59.2175691  80.1313954  47.2670855  59.3610340
  79.2251397  46.1865066  59.9114254  83.2550504  52.4660026  55.5994423
  82.6259366  52.6305740  54.8970491  82.8676166  52.8801635  56.3705387
  82.4352205  44.5035810  60.8756865  82.1913136  45.2577871  60.3391140
  82.7112135  44.8821158  61.7104112  81.9916896  43.6592243  56.4570702
  81.1301375  43.9573497  56.7487440  82.0179331  43.8762642  55.5251735
  78.8078466  52.2034434  52.8644508  79.2716811  52.4822137  52.0749131
  78.5435264  51.3017878  52.6817599  75.7002547  51.7505915  55.8024271
  76.2703904  52.1793184  55.1641756  76.2910659  51.4688500  56.5008457
  77.7447352  48.3257586  49.6734073  78.4471395  48.7778630  50.1408000
  77.4127980  47.6841405  50.3013966  76.1927713  46.9169343  64.0485283
  75.5626374  47.5985624  64.2820679  76.0863801  46.8052424  63.1038421
  71.4872686  46.5841139  54.9751207  70.6971740  46.8398667  54.4991317
  71.9783933  47.3989477  55.0803247  73.4387431  46.9485718  51.9334684
  72.6418594  47.0604412  52.4518179  73.2113023  47.2872370  51.0675574
  79.2693099  53.4730421  59.8817198  79.3337531  53.9350829  60.7175370
  78.5604023  52.8427786  60.0099508  69.7710389  46.8371629  57.4066198
  70.0218427  47.7218639  57.6723774  70.3069937  46.6576231  56.6341289
  78.9841116  55.1398529  49.7496178  78.8486791  55.9850065  50.1781026
  79.5250929  55.3417806  48.9862112  75.4708456  41.2190109  66.4110534
  75.0775402  40.6656307  67.0858178  76.2874596  41.5300687  66.8017051
  72.4370514  52.6573967  50.3224104  72.9495034  53.4517217  50.4729668
  73.0893227  51.9600257  50.2557705  74.2465398  55.7739723  52.4046857
  74.4232027  56.6957688  52.2167841  75.0422232  55.4598142  52.8341237
  78.3876417  42.6347988  64.0030790  79.1286130  43.2355141  63.9235253
  78.6194340  41.8925626  63.4448833  73.5317755  47.8204355  62.2809020
  73.4171270  46.9189612  62.5816119  72.6762273  48.0668052  61.9293836
  80.6109593  55.7622095  63.8796521  80.1673447  54.9758474  63.5617425
  81.2726806  55.9501246  63.2140411  75.3696714  57.2917897  58.4057199
  75.9204139  57.1634960  57.6334193  74.5308190  57.5912786  58.0552092
  79.1663885  53.5569025  62.7501430  79.6992222  52.7957313  62.5200738
  78.6377966  53.2642677  63.4925585  82.3333580  38.6629091  58.2795072
  81.9897849  39.5530732  58.2034183  82.7012542  38.4730748  57.4164657
  70.4019430  50.9862621  51.0983674  71.2394652  51.3959629  50.8817382
  70.5797698  50.0462063  51.0683868  82.2983863  48.6537702  46.7867507
  81.7830486  49.4242306  47.0255894  82.0261171  47.9802838  47.4100569
  79.8830974  43.4987403  51.8452745  79.0272570  43.1094253  51.6658384
  80.2957925  43.5779363  50.9852531  81.4130120  41.0333746  56.2444305
  80.9094916  40.9963881  55.4312110  81.7060727  41.9426489  56.3040962
  77.6573006  41.1172476  55.2510487  78.5226003  40.9215284  54.8916376
  77.7250515  40.8882827  56.1779844  82.0870166  46.5264794  48.6127288
  81.7820301  46.8410943  49.4637431  83.0400608  46.6046214  48.6554621
  80.5316598  52.6855017  50.2620242  80.0037959  51.9507777  49.9493480
  80.0304100  53.4629694  50.0160211  75.2635325  43.3474683  52.6226854
  75.8379077  43.1249865  51.8900047  75.8506308  43.4163378  53.3755455
  75.5904912  45.3779144  46.6422739  74.7542225  45.7153831  46.9632014
  75.4509682  45.2428124  45.7049876  77.5657993  40.2215932  51.3501923
  76.9122405  39.9064950  50.7258538  77.5238467  39.5991673  52.0761746
  78.6769198  50.5035227  43.2655215  77.7696260  50.2724481  43.4646364
  79.1740230  49.7072847  43.4529197  81.5837277  59.2132735  46.1851901
  80.9098975  59.5164431  46.7936859  81.9703099  60.0161815  45.8357358
  80.7995733  46.7097866  55.6749571  79.8818295  46.9312813  55.5171259
  81.2155877  46.7844176  54.8161278  81.5830781  48.1089282  50.8052251
  82.3302600  48.6210679  50.4959373  81.8522371  47.7873334  51.6656645
  79.8557431  50.6047822  47.7879205  78.9468651  50.3206855  47.8851675
  79.8852515  51.0246901  46.9282512  70.4245602  48.3253336  51.7694408
  70.2270001  47.7322697  51.0445474  69.8692266  48.0205547  52.4870346
  78.4042325  48.2176443  53.8889001  78.4590935  47.2650279  53.8131477
  77.5933527  48.3735882  54.3730299  79.5533519  52.1456566  45.1267284
  79.1152949  51.4292425  44.6672921  80.2943960  52.3732681  44.5652375
  76.3434685  46.8353503  51.6479380  75.5302551  47.1347673  52.0544572
  76.8393679  46.4409191  52.3653862  78.4943263  56.8311260  53.5813644
  78.4519442  57.0572106  52.6522176  79.4105962  56.5974634  53.7299445
  81.9408897  47.2995327  60.4794273  82.2958285  47.5266800  61.3388739
  82.5881028  47.6313704  59.8571529  75.8348760  44.4071858  57.2640615
  76.4748139  44.2660617  56.5663578  75.0026291  44.1206372  56.8879217
  76.6109064  53.7074289  53.3775607  77.4049662  53.2124609  53.1758182
  75.9000756  53.1792152  53.0143313  81.4303908  56.0892384  57.7287975
  81.4840931  56.6583320  58.4965690  80.5618690  56.2594269  57.3642012
  72.9191827  47.8517370  49.4535360  71.9889415  47.7901826  49.6705322
  73.0149299  47.3293323  48.6572001  72.8377376  44.3772183  52.0413601
  73.0984194  45.2917516  51.9322762  73.6594549  43.9096626  52.1910214
  74.3102302  45.7909940  59.2112426  74.9825355  45.5827302  58.5625075
  73.4832088  45.5932026  58.7717658  80.2127874  42.4171881  61.2278087
  79.5655789  43.1161831  61.1342563  80.9828889  42.8508025  61.5954335
  80.3892008  50.2552646  59.2874906  81.3184068  50.4063806  59.1143874
  79.9683038  50.3436667  58.4323553  79.1880340  54.2803311  57.0573444
  79.0491426  53.9122095  57.9299382  78.3994936  54.7950950  56.8857402
  79.7828492  59.3812407  48.3998981  79.9580248  58.9100450  49.2144603
  79.0961280  60.0078173  48.6280241  80.7385555  53.6584913  54.4462282
  80.4035388  53.6185683  55.3419932  80.2389501  52.9929629  53.9732692
  74.7129799  49.0652543  59.9714863  74.5749597  48.3332782  60.5726402
  75.6234722  48.9761443  59.6899051  77.3412100  48.7772503  59.4598543
  78.0511718  48.1365695  59.4185161  77.2981408  49.0285397  60.3824723
  76.0541034  45.7637721  61.2794182  75.5178391  45.3128459  61.9315778
  75.4657742  45.8983629  60.5364646  74.3489577  62.5301770  55.1738841
  74.5886175  63.1620294  55.8517859  73.5058774  62.1789810  55.4604200
  75.4643293  45.2226372  43.8420646  74.5872759  45.1015173  43.4782892
  75.9401046  44.4312450  43.5899534  66.9845433  50.0103532  53.9362153
  67.6716473  49.6965262  53.3483168  66.8293561  50.9144896  53.6629404
  71.7880155  44.8993728  58.3647177  71.7038344  44.2919398  57.6297587
  70.9662861  45.3902747  58.3656673  78.8617439  58.3380892  57.5780345
  78.7887610  59.1435864  58.0899649  78.4194832  58.5372858  56.7528366
  78.6507219  57.5752662  51.0883166  77.8674740  58.1174342  51.1821391
  79.3499964  58.0926642  51.4877407  81.9603869  43.3847292  53.7317372
  82.4572568  42.6317254  53.4118442  81.1890850  43.4211608  53.1660581
  81.3216123  58.2367726  59.7338503  82.0344095  58.8715191  59.6614405
  80.8306151  58.3331592  58.9178505  83.0433649  52.1418979  51.3055795
  82.1089928  52.2620441  51.1360499  83.2210318  51.2391446  51.0415805
  78.5438837  45.5264675  53.4589056  78.1736625  44.9735715  54.1469962
  79.0397930  44.9222808  52.9064056  76.3728036  55.9862170  60.5544074
  77.0737496  56.6198653  60.7073468  75.9023151  56.3276901  59.7939713
  81.1336496  58.5766470  52.4824795  81.3158890  57.7588126  52.9452547
  81.9569482  58.7934163  52.0449685  81.4678661  57.5034656  49.7439843
  81.9966428  56.9927110  49.1310005  81.7306881  57.1877186  50.6085376
  80.2216895  49.2826588  64.8662662  79.5457532  49.1820718  65.5365037
  81.0444529  49.1265802  65.3298659  71.9695754  55.5198525  57.4875177
  72.5549191  54.7742213  57.6203081  71.7720593  55.8302482  58.3711841
  74.8234409  58.5549772  52.5037619  74.1544785  59.0395900  52.0201659
  74.6847279  58.8018993  53.4180998  66.5613409  48.0904125  56.2079620
  66.5997508  47.5567716  57.0016738  66.0553702  47.5639331  55.5890597
  78.9639678  60.5893516  59.1020278  79.5157986  60.7525137  59.8669363
  79.3045871  61.1797954  58.4300302  73.9404171  42.9368666  59.7042162
  74.0045498  43.7983496  59.2919560  73.8771291  42.3242667  58.9714521
  73.4156444  45.0091798  63.3515197  74.0428482  44.6268875  63.9652721
  72.5584363  44.7906000  63.7170889  70.1921986  46.8168227  49.2833551
  70.4875427  45.9078906  49.2300605  69.2910022  46.7955967  48.9614554
  82.1008065  58.5375491  56.0883960  81.9759205  57.7365231  55.5794905
  82.7587156  59.0321685  55.5997930  73.7216233  44.8924224  55.2661100
  73.0002819  45.5060191  55.1268573  74.5109489  45.4281989  55.1877746
  76.5242547  42.2278650  61.5401752  77.0476949  42.4740947  62.3028061
  76.3054880  43.0598685  61.1204889  71.9209828  44.4982325  49.4072877
  71.5922534  43.6179704  49.2247983  72.2749199  44.4429994  50.2949266
  81.1689407  56.1337228  53.9167862  81.0214369  55.2053935  54.0975432
  81.9942900  56.1557318  53.4324937  75.0351651  44.7855295  49.7748354
  75.3747724  45.3141216  49.0526963  75.4823772  45.1235701  50.5506921
  77.7295092  43.1692345  59.2251422  77.3891912  42.3700158  59.6272102
  77.0234098  43.4694056  58.6528256  78.3811564  40.2541658  57.6778745
  79.2037633  39.7802136  57.5557636  78.6249627  41.0332142  58.1777432
  77.0219798  43.2829916  47.9741647  77.7428161  43.6611169  47.4705364
  76.3985102  44.0018793  48.0776625  81.1650921  43.9875065  48.9099979
  81.3814536  44.8699703  48.6088808  80.6844988  43.5961279  48.1805621
  75.9050143  46.9460778  55.4870724  75.7594723  47.2601081  56.3795005
  75.4275346  47.5645679  54.9341623  77.7646525  43.9363326  55.5351614
  77.7508094  43.0404420  55.1983911  78.4818954  43.9433990  56.1689900
  79.6172656  44.3700667  57.5804741  79.3590434  45.2917737  57.5789071
  79.0857697  43.9731101  58.2705205  70.3795805  49.4866123  58.4258385
  69.8349273  50.2625931  58.5578659  71.2575155  49.8336927  58.2677507
  77.1683421  42.8177707  50.8039184  77.2899333  41.8894353  51.0030071
  76.8785464  42.8316393  49.8917499  80.0374612  40.5032617  53.9405903
  80.0596309  40.5671950  52.9857883  80.4542671  39.6637126  54.1346410
  71.1661827  48.6136019  61.3188542  70.4243563  48.7618654  61.9053172
  70.8454571  48.8744285  60.4555291  79.1105489  58.1551997  61.1168932
  79.4192616  57.9101144  61.9891632  79.9080971  58.3598636  60.6287802
  79.1326101  60.3089907  53.3474309  78.6931092  59.8166286  54.0407165
  79.8834218  59.7662875  53.1066384  71.6118440  56.5001448  53.3498937
  72.4376460  56.2005220  52.9697580  71.2612492  55.7309070  53.7988725
  76.5799973  55.8527916  55.4196610  75.9579983  55.1898621  55.1198838
  77.2504840  55.8789048  54.7370258  69.8127045  54.4187774  54.3087870
  68.9758954  53.9909949  54.1271871  69.7850691  54.6120218  55.2458661
  76.6524501  44.3309704  65.0129116  76.7012656  45.2071827  64.6306886
  77.1947015  43.7887097  64.4400759  76.1413480  54.4031839  48.8955071
  76.2901601  55.0867304  48.2421744  76.9479924  54.3836929  49.4104527
  78.8823789  45.0841076  61.7675475  78.0127099  45.3774643  61.4958063
  79.1183270  45.6681521  62.4882739  73.8966113  50.4297017  49.9016140
  73.6512155  49.5259347  50.0996350  74.0662028  50.4314167  48.9595618
  81.5862823  41.3020693  59.2840895  82.1044767  42.0381720  58.9587384
  81.2317956  41.6084687  60.1187654  73.1661761  46.1625375  47.4002301
  72.4731006  46.2369730  46.7442337  72.9213513  45.3985718  47.9223818
  81.8375417  37.7220976  54.8041792  82.1177171  37.0544165  55.4302218
  82.6226024  37.9150072  54.2916456  79.6408886  56.8979970  46.3666818
  79.0682853  57.5170157  45.9137290  80.2141680  57.4479332  46.9006740
  80.0255684  48.2340783  43.7082871  80.9714789  48.1046991  43.7771289
  79.6469929  47.4955444  44.1852299  79.9094377  52.2858529  65.1683528
  80.8297386  52.4637128  65.3623574  79.8743960  51.3414574  65.0163227
  78.2098602  46.1590759  43.6437756  77.3030057  45.8623872  43.7200470
  78.4874583  45.8620577  42.7772042  69.1276542  47.4797122  54.0936802
  68.8079326  46.6262431  53.8011176  68.5809970  47.6945701  54.8494770
  72.9056449  50.1959563  57.8106309  73.1242459  51.1276671  57.8294343
  73.3182223  49.8367538  58.5961113  79.8260667  40.7027649  49.7981997
  79.0161396  40.3574734  50.1737243  80.5145084  40.3935192  50.3869609
  81.7551216  39.7805695  51.4206294  82.3082254  40.2001149  52.0796317
  81.9921302  38.8541444  51.4629250  77.7784315  45.7692769  67.2009058
  77.6781042  46.7187126  67.1321149  77.5605857  45.4411008  66.3285128
  76.9797386  43.0177694  43.7849735  77.8416550  43.3432592  44.0445552
  77.1647730  42.2309190  43.2722801  68.9964802  51.1000034  56.0629924
  68.3028273  50.6853987  55.5499878  69.7437793  51.1420570  55.4663343
  77.6415585  49.1989908  66.0174119  77.1582667  49.9990268  66.2238008
  77.7276524  49.2097853  65.0641563  70.9101544  51.0318288  53.9395939
  70.8872233  51.1305975  52.9877822  71.2202181  51.8783438  54.2613105
  73.5688922  53.0894443  58.0542553  74.5232176  53.0578385  57.9872485
  73.3701446  52.6285066  58.8692779  74.1588304  51.6595559  60.6213351
  74.9781193  52.1539637  60.6448188  74.4325112  50.7427527  60.5930918
  71.9239151  58.6314062  55.0712751  71.7893619  57.8714463  54.5050749
  71.5071213  59.3554962  54.6041540  75.0808277  59.5283379  55.2831194
  74.9640661  60.4728812  55.1809884  74.2600723  59.2256941  55.6716993
  69.4123219  45.9933693  61.3205548  70.0582082  45.4832647  61.8092773
  69.2040370  46.7302374  61.8948973  81.9376611  53.0614540  66.8197688
  82.8067770  53.2355192  66.4584323  81.4583362  53.8808957  66.6973418
  77.9326829  40.2573737  47.0729444  77.9205499  41.2015577  47.2297715
  78.8250251  40.0743883  46.7788905  76.1062791  60.1811641  58.4987122
  77.0090038  60.2135251  58.8153617  75.8800161  59.2512092  58.5133458
  77.8616393  58.9342628  55.1597201  76.9112024  58.9344489  55.0461573
  78.1648879  58.1875362  54.6433235  81.7478949  36.8516514  51.3275381
  80.9811344  36.2975001  51.4732063  82.1589654  36.9238383  52.1889533
  73.7520710  43.1401310  65.4180562  74.6152171  42.7838115  65.6283887
  73.1786120  42.8015204  66.1055966  82.3266440  61.9133056  54.9751207
  81.5365494  62.1690585  54.4991317  82.8177688  62.7281394  55.0803247
  80.6104143  62.1663547  57.4066198  80.8612182  63.0510557  57.6723774
  81.1463692  61.9868148  56.6341289  81.2413185  66.3154539  51.0983674
  82.0788407  66.7251547  50.8817382  81.4191453  65.3753981  51.0683868
  81.2639356  63.6545254  51.7694408  81.0663756  63.0614615  51.0445474
  80.7086020  63.3497464  52.4870346  77.8239187  65.3395449  53.9362153
  78.5110227  65.0257179  53.3483168  77.6687316  66.2436814  53.6629404
  82.6273909  60.2285646  58.3647177  82.5432098  59.6211315  57.6297587
  81.8056616  60.7194664  58.3656673  77.4007163  63.4196043  56.2079620
  77.4391263  62.8859633  57.0016738  76.8947456  62.8931248  55.5890597
  81.0315741  62.1460145  49.2833551  81.3269182  61.2370823  49.2300605
  80.1303777  62.1247884  48.9614554  82.7603582  59.8274243  49.4072877
  82.4316289  58.9471621  49.2247983  83.1142953  59.7721911  50.2949266
  81.2189559  64.8158040  58.4258385  80.6743027  65.5917848  58.5578659
  82.0968909  65.1628845  58.2677507  82.0055581  63.9427937  61.3188542
  81.2637317  64.0910572  61.9053172  81.6848325  64.2036202  60.4555291
  80.6520800  69.7479692  54.3087870  79.8152708  69.3201866  54.1271871
  80.6244445  69.9412135  55.2458661  79.9670296  62.8089040  54.0936802
  79.6473081  61.9554348  53.8011176  79.4203725  63.0237618  54.8494770
  79.8358556  66.4291952  56.0629924  79.1422028  66.0145904  55.5499878
  80.5831547  66.4712488  55.4663343  81.7495299  66.3610205  53.9395939
  81.7265987  66.4597893  52.9877822  82.0595935  67.2075356  54.2613105
  80.2516973  61.3225610  61.3205548  80.8975837  60.8124564  61.8092773
  80.0434124  62.0594292  61.8948973  55.0315240   6.1294663  37.7535945
  54.9539269   7.0802488  37.8324426  54.4276883   5.7840536  38.4110872
  53.6909206   3.6396184  45.1302506  54.2416631   3.5113247  44.3579500
  52.8520682   3.9391073  44.7797399  59.9049769   5.5611022  32.9097208
  59.2311468   5.8642719  33.5182166  60.2915591   6.3640102  32.5602665
  58.1040984   5.7290694  35.1244287  58.2792740   5.2578737  35.9389910
  57.4173772   6.3556460  35.3525548  52.6702069   8.8780057  41.8984147
  52.9098668   9.5098581  42.5763166  51.8271266   8.5268097  42.1849507
  57.1829931   4.6859180  44.3025651  57.1100103   5.4914151  44.8144956
  56.7407324   4.8851145  43.4773673  56.9719711   3.9230950  37.8128473
  56.1887233   4.4652630  37.9066697  57.6712456   4.4404929  38.2122714
  59.6428615   4.5846014  46.4583810  60.3556587   5.2193478  46.3859712
  59.1518643   4.6809880  45.6423812  50.2908246   1.8676812  44.2120484
  50.8761683   1.1220500  44.3448388  50.0933085   2.1780769  45.0957147
  53.1446902   4.9028059  39.2282926  52.4757277   5.3874187  38.7446966
  53.0059771   5.1497280  40.1426304  57.2852170   6.9371803  45.8265584
  57.8370478   7.1003424  46.5914670  57.6258364   7.5276241  45.1545609
  57.4317982   4.5030285  47.8414239  57.7405108   4.2579431  48.7136938
  58.2293464   4.7076923  47.3533109  57.4538594   6.6568194  40.0719615
  57.0143584   6.1644573  40.7652472  58.2046711   6.1141162  39.8311690
  49.9330933   2.8479735  40.0744243  50.7588952   2.5483507  39.6942887
  49.5824985   2.0787357  40.5234032  48.1339538   0.7666061  41.0333177
  47.2971446   0.3388236  40.8517178  48.1063183   0.9598505  41.9703968
  50.2451643   4.9792349  41.7958058  50.1106111   4.2192750  41.2296056
  49.8283706   5.7033249  41.3286847  53.4020769   5.8761666  42.0076500
  53.2853153   6.8207099  41.9055191  52.5813216   5.5735228  42.3962300
  54.4275283   6.5289928  45.2232429  55.3302530   6.5613539  45.5398924
  54.2012653   5.5990379  45.2378765  56.1828885   5.2820915  41.8842507
  55.2324516   5.2822776  41.7706880  56.4861372   4.5353649  41.3678542
  71.9181579  11.1181453  42.9488270  72.5559989  10.9988201  42.2451610
  71.8002422  12.0662297  43.0076222  68.7271285  11.0708881  42.8849795
  68.3889797  10.9549946  41.9970329  69.5961053  10.6700046  42.8650801
  64.5858101  12.9244358  38.8746685  64.0222966  12.8334295  38.1062973
  64.4710496  12.1044262  39.3549178  69.2091068  12.2243733  48.8436000
  69.1979709  11.8296531  47.9716504  69.3711708  11.4909806  49.4369771
  62.1322533  14.4195549  41.7130906  62.9243825  14.0786374  41.2977205
  62.3719183  14.5290524  42.6333059  70.1657660  16.5915325  34.1861150
  69.5145639  17.1769406  33.7995164  70.9602022  17.1221520  34.2456188
  64.0913287  13.6804463  34.5848285  64.8644163  13.1333450  34.4461161
  64.4438686  14.5448712  34.7962746  65.9298329  15.0080845  47.7915184
  65.6388195  15.9126476  47.6761850  66.5655314  15.0497372  48.5059254
  66.8554536  12.3857693  44.3816544  67.4518108  12.1613716  43.6673507
  66.9129508  11.6442439  44.9841992  66.4279565   9.8397129  32.2166735
  66.6805085   9.3178650  31.4550198  65.4904124   9.6763274  32.3193418
  71.6432925  14.2805757  34.7230135  71.0078758  14.3540384  35.4351039
  71.3130331  14.8699356  34.0449214  66.1475853  11.7425235  34.4191110
  66.0312111  11.0670138  35.0872194  66.2578113  11.2557609  33.6023263
  68.4907394  11.2035382  38.1237799  68.1265601  10.6766003  38.8350720
  69.3474510  10.8133851  37.9504284  70.8888214  14.6942260  44.7864978
  70.5888937  15.5967299  44.6780785  70.5439274  14.4274444  45.6386131
  64.3400696  11.1456057  40.8201682  63.4151192  11.0132271  41.0279374
  64.5885109  11.9250276  41.3171625  68.1102102   8.6882939  34.1045814
  67.9901727   9.1339990  34.9431294  67.4154690   9.0368257  33.5459352
  61.7009507  10.7889331  41.6545471  61.8301888  11.0423810  42.5684883
  61.0206958  11.3817039  41.3350126  65.8708994  21.4586581  37.7535945
  65.7933024  22.4094406  37.8324426  65.2670638  21.1132453  38.4110872
  68.3626224   8.6314446  50.4097312  67.5859558   9.1908366  50.4000177
  69.0016787   9.1171229  50.9312182  66.6172596  11.4399900  49.9715279
  67.3587281  11.9784943  49.6950103  65.9109582  12.0666188  50.1286831
  72.0927936  13.5829040  48.5687441  72.5011292  13.1411451  47.8242073
  71.3705197  13.0081668  48.8221634  68.4459006   8.5201647  45.9420998
  69.2920201   8.9441060  46.0855647  68.3857644   7.8635271  46.6359561
  72.4156751  14.1430231  42.3239730  71.7865613  14.3075945  41.6215798
  72.0282413  14.5571840  43.0950694  76.2945982  15.0784668  39.6784093
  75.6097021  15.4583570  39.1281127  76.3789832  15.6879995  40.4116041
  73.5496914  12.7244627  46.2779437  73.7613809  13.3676387  45.6013818
  73.5026662  11.8906944  45.8101367  67.9684712  13.8804639  39.5889815
  68.4323058  14.1592342  38.7994437  67.7041511  12.9788083  39.4062905
  64.8608793  13.4276120  42.5269578  65.4310151  13.8563389  41.8887063
  65.4516905  13.1458705  43.2253764  66.9053598  10.0027791  36.3979380
  67.6077642  10.4548835  36.8653306  66.5734227   9.3611610  37.0259273
  65.3533960   8.5939548  50.7730589  64.7232621   9.2755829  51.0065986
  65.2470048   8.4822629  49.8283728  60.6478932   8.2611344  41.6996513
  59.8577986   8.5168872  41.2236624  61.1390180   9.0759682  41.8048554
  74.6642742  15.6016583  44.4501794  75.4860186  15.1996770  44.1684476
  74.6605145  15.4984817  45.4017910  62.5993678   8.6255923  38.6579990
  61.8024841   8.7374617  39.1763486  62.3719270   8.9642575  37.7920881
  68.4299345  15.1500626  46.6062505  68.4943778  15.6121033  47.4420677
  67.7210269  14.5197991  46.7344815  58.9316635   8.5141834  44.1311504
  59.1824674   9.3988844  44.3969080  59.4676184   8.3346436  43.3586596
  68.1447363  16.8168734  36.4741485  68.0093038  17.6620269  36.9026333
  68.6857176  17.0188011  35.7107419  61.5976760  14.3344172  37.0469410
  62.1101281  15.1287422  37.1974975  62.2499473  13.6370462  36.9803012
  63.4071645  17.4509928  39.1292163  63.5838274  18.3727893  38.9413147
  64.2028479  17.1368347  39.5586543  62.6924002   9.4974560  49.0054327
  62.5777517   8.5959817  49.3061426  61.8368519   9.7438257  48.6539143
  69.7715839  17.4392300  50.6041827  69.3279694  16.6528679  50.2862732
  70.4333053  17.6271451  49.9385718  64.5302961  18.9688102  45.1302506
  65.0810386  18.8405165  44.3579500  63.6914437  19.2682991  44.7797399
  71.8697078  17.7195100  48.6323228  71.8515553  18.5403981  48.1403498
  72.7916998  17.5949175  48.8573370  68.3270132  15.2339230  49.4746737
  68.8598468  14.4727518  49.2446045  67.7984213  14.9412881  50.2170891
  59.5625677  12.6632826  37.8228981  60.4000899  13.0729834  37.6062688
  59.7403945  11.7232268  37.7929175  71.4590109  10.3307907  33.5112814
  70.9436733  11.1012511  33.7501201  71.1867418   9.6573043  34.1345875
  76.4324384  13.0840261  35.4465987  75.6553826  12.7451421  35.0021149
  77.1115864  13.0892884  34.7720952  69.6922844  14.3625222  36.9865549
  69.1644206  13.6277982  36.6738786  69.1910347  15.1399898  36.7405517
  74.6715690  12.5574243  42.1032595  74.0139365  13.2473504  42.1912724
  75.4756090  12.9470675  42.4466582  73.4821149  10.9118615  40.1536537
  73.9953031  11.5448607  40.6558247  74.1322373  10.3119811  39.7879897
  64.7511159   7.0549349  33.3668046  63.9148471   7.3924036  33.6877320
  64.6115929   6.9198329  32.4295183  67.8375445  12.1805432  29.9900522
  66.9302506  11.9494686  30.1891671  68.3346477  11.3843052  30.1774503
  70.7443523  20.8902940  32.9097208  70.0705222  21.1934636  33.5182166
  71.1309345  21.6932020  32.5602665  69.9601980   8.3868071  42.3994877
  69.0424541   8.6083018  42.2416565  70.3762124   8.4614381  41.5406585
  70.7437028   9.7859487  37.5297558  71.4908847  10.2980884  37.2204680
  71.0128617   9.4643539  38.3901951  69.0163678  12.2818027  34.5124512
  68.1074897  11.9977060  34.6096982  69.0458762  12.7017106  33.6527819
  74.2482945  15.8924617  38.2815680  73.7945273  15.0515527  38.3380870
  73.6176912  16.5286015  38.6190460  72.6915885  17.7301113  39.2165498
  72.9838859  18.2906171  38.4977863  73.2014505  18.0229674  39.9718657
  59.5851848  10.0023541  38.4939714  59.3876248   9.4092902  37.7690781
  59.0298512   9.6975752  39.2115653  67.5648572   9.8946648  40.6134307
  67.6197182   8.9420484  40.5376784  66.7539774  10.0506087  41.0975606
  68.7139766  13.8226771  31.8512591  68.2759196  13.1062630  31.3918228
  69.4550207  14.0502886  31.2897682  65.5040932   8.5123708  38.3724686
  64.6908798   8.8117878  38.7789878  65.9999926   8.1179396  39.0899168
  67.6549510  18.5081465  40.3058951  67.6125689  18.7342311  39.3767483
  68.5712209  18.2744839  40.4544752  71.1015144   8.9765532  47.2039580
  71.4564531   9.2037005  48.0634046  71.7487275   9.3083909  46.5816835
  76.8312881  12.0983968  37.9088909  76.6930779  12.2885564  36.9810098
  76.4749099  12.8603351  38.3656960  76.8582260  14.1660495  42.9200181
  77.2918767  14.0735784  43.7683235  77.5713841  14.1417995  42.2820197
  65.7715311  15.3844494  40.1020914  66.5655909  14.8894814  39.9003489
  65.0607003  14.8562357  39.7388619  70.5910155  17.7662589  44.4533281
  70.6447177  18.3353525  45.2210997  69.7224936  17.9364474  44.0887318
  62.0798074   9.5287575  36.1780666  61.1495662   9.4672031  36.3950628
  62.1755546   9.0063528  35.3817308  61.9983623   6.0542388  38.7658908
  62.2590440   6.9687721  38.6568068  62.8200795   5.5866831  38.9155521
  63.4708548   7.4680145  45.9357732  64.1431602   7.2597507  45.2870381
  62.6438335   7.2702231  45.4962965  77.7197810  14.2084196  45.4533066
  77.9133700  15.1130006  45.6992341  77.6198428  13.7491615  46.2871651
  72.7812918  14.3590938  51.0273947  72.6298425  14.1301490  50.1104030
  72.7717598  15.3161540  51.0405292  69.5498255  11.9322851  46.0120213
  70.4790315  12.0834011  45.8389180  69.1289285  12.0206872  45.1568860
  68.3486587  15.9573516  43.7818751  68.2097672  15.5892300  44.6544689
  67.5601183  16.4721155  43.6102709  68.9434739  21.0582612  35.1244287
  69.1186494  20.5870655  35.9389910  68.2567527  21.6848378  35.3525548
  69.8991802  15.3355118  41.1707588  69.5641634  15.2955888  42.0665238
  69.3995747  14.6699834  40.6977999  63.8736046  10.7422748  46.6960170
  63.7355844  10.0102987  47.2971709  64.7840969  10.6531648  46.4144357
  72.8350993  12.6811153  31.4444648  72.2180164  11.9557981  31.3477701
  72.3667482  13.4420513  31.1011722  66.5018346  10.4542708  46.1843849
  67.2117965   9.8135900  46.1430468  66.4587655  10.7055602  47.1070030
  74.4905125  17.3910061  49.1050429  74.4317671  16.7069281  48.4381012
  74.8924643  18.1329051  48.6531054  65.2147280   7.4407925  48.0039489
  64.6784637   6.9898664  48.6561085  64.6263989   7.5753834  47.2609953
  74.4922532  15.3549645  47.3364408  73.6049311  15.0175567  47.4590807
  75.0621083  14.6232676  47.5733174  56.1451679  11.6873737  40.6607460
  56.8322719  11.3735467  40.0728475  55.9899808  12.5915101  40.3874711
  60.9486402   6.5763933  45.0892483  60.8644590   5.9689603  44.3542893
  60.1269108   7.0672951  45.0901980  68.0223686  20.0151097  44.3025651
  67.9493857  20.8206069  44.8144956  67.5801079  20.2143063  43.4773673
  67.8113465  19.2522867  37.8128473  67.0280987  19.7944547  37.9066697
  68.5106211  19.7696847  38.2122714  70.4822369  19.9137931  46.4583810
  71.1950341  20.5485396  46.3859712  69.9912398  20.0101797  45.6423812
  72.2039896  13.8189184  38.0301102  71.2696175  13.9390646  37.8605806
  72.3816565  12.9161651  37.7661112  65.5334283  17.6632375  47.2789381
  66.2343742  18.2968858  47.4318775  65.0629398  18.0047106  46.5185020
  73.6588679  16.0050324  35.5637288  73.9348523  15.8906919  36.4731162
  72.7893177  15.6067809  35.5249461  73.3335569  10.2176982  45.1041931
  72.6807019  10.4652890  44.4494384  73.7115949   9.4041120  44.7704409
  70.2942743  20.2536675  39.2070102  70.4765137  19.4358331  39.6697854
  71.1175729  20.4704368  38.7694992  70.6284908  19.1804860  36.4685150
  71.1572675  18.6697315  35.8555312  70.8913128  18.8647391  37.3330683
  69.3823142  10.9596793  51.5907968  68.7063779  10.8590923  52.2610344
  70.2050776  10.8036007  52.0543966  61.1302001  17.1968730  44.2120484
  61.7155438  16.4512418  44.3448388  60.9326839  17.5072686  45.0957147
  63.9840656  20.2319977  39.2282926  63.3151031  20.7166105  38.7446966
  63.8453526  20.4789198  40.1426304  55.7219656   9.7674330  42.9324927
  55.7603755   9.2337921  43.7262045  55.2159948   9.2409535  42.3135904
  68.1245925  22.2663721  45.8265584  68.6764233  22.4295342  46.5914670
  68.4652118  22.8568158  45.1545609  62.5762690   6.6862003  50.0760503
  63.2034729   6.3039080  50.6898028  61.7190609   6.4676205  50.4416196
  72.9756799  17.0924978  51.6814239  73.5196703  17.7054936  51.1869194
  72.3943644  17.6504557  52.1981252  59.3528233   8.4938432  36.0078858
  59.6481674   7.5849111  35.9545912  58.4516269   8.4726172  35.6859860
  71.2614312  20.2145696  42.8129266  71.1365451  19.4135436  42.3040212
  71.9193403  20.7091890  42.3243236  62.8822480   6.5694429  41.9906407
  62.1609066   7.1830396  41.8513880  63.6715736   7.1052193  41.9123053
  73.3249220  18.0154716  44.4408817  72.3779556  17.8960067  44.3687143
  73.6731993  17.1277214  44.5235078  61.0816075   6.1752530  36.1318183
  60.7528781   5.2949909  35.9493289  61.4355445   6.1200198  37.0194572
  70.3295654  17.8107432  40.6413169  70.1820616  16.8824140  40.8220739
  71.1549147  17.8327523  40.1570244  64.1957898   6.4625500  36.4993661
  64.5353970   6.9911421  35.7772269  64.6430018   6.8005906  37.2752227
  73.9329775  18.6335991  41.7278042  74.8576323  18.4278853  41.5902493
  73.7645079  18.3852392  42.6367383  65.0656389   8.6230983  42.2116031
  64.9200970   8.9371286  43.1040312  64.5881593   9.2415884  41.6586929
  73.7225092  19.1521659  37.0840133  73.8961969  18.5868081  36.3313985
  74.2153983  19.9522554  36.9019623  59.5402051  11.1636328  45.1503692
  58.9955520  11.9396136  45.2823966  60.4181401  11.5107132  44.9922813
  74.7100264  18.4688423  34.1837031  75.4051169  19.0895116  34.4024346
  75.0523414  17.6183774  34.4589409  60.3268073  10.2906224  48.0433849
  59.5849809  10.4388859  48.6298479  60.0060818  10.5514490  47.1800598
  76.6091687  15.9188129  35.7124362  77.1343011  16.2575401  34.9873682
  76.5214040  14.9835144  35.5287497  68.2711736  19.8322202  47.8414239
  68.5798862  19.5871349  48.7136938  69.0687218  20.0368841  47.3533109
  68.2932348  21.9860112  40.0719615  67.8537338  21.4936491  40.7652472
  69.0440465  21.4433080  39.8311690  60.7724687  18.1771653  40.0744243
  61.5982707  17.8775425  39.6942887  60.4218739  17.4079275  40.5234032
  65.7406220  17.5298121  42.1441917  65.1186229  16.8668826  41.8444145
  66.4111087  17.5559253  41.4615565  58.9733292  16.0957979  41.0333177
  58.1365200  15.6680154  40.8517178  58.9456938  16.2890423  41.9703968
  76.2985593  16.5521032  51.0175560  75.5081137  16.5345171  50.4780059
  76.0618948  17.0909326  51.7724597  76.4183468  13.4013499  48.3308289
  76.4681473  13.2363506  49.2723811  76.3097392  12.5340758  47.9406169
  65.3019727  16.0802044  35.6200377  65.4507847  16.7637509  34.9667050
  66.1086171  16.0607134  36.1349833  77.9201665  15.8210440  48.5750310
  77.6286474  16.1840421  49.4113771  77.3073797  15.1077448  48.3963642
  79.1197348  13.3863320  41.0952880  79.9544239  13.8253124  41.2590441
  79.2556476  12.9101973  40.2761126  76.1688853  10.9443055  47.0430368
  76.6442975  11.1370701  46.2349219  75.2454419  11.0002241  46.7973752
  63.0572360  12.1067222  36.6261446  62.8118402  11.2029552  36.8241656
  63.2268275  12.1084372  35.6840924  62.3268008   7.8395580  34.1247608
  61.6337253   7.9139934  33.4687644  62.0819760   7.0755923  34.6469125
  68.8015133  18.5750175  33.0912125  68.2289100  19.1940362  32.6382597
  69.3747926  19.1249536  33.6252047  72.0212392  18.8587325  34.2220707
  72.9543066  18.7932887  34.4253583  71.9335605  19.6943592  33.7635240
  74.6500409  18.1753195  31.1824655  74.5714041  17.8413059  32.0760413
  75.4710076  18.6674963  31.1816127  69.1861931   9.9110987  30.4328177
  70.1321036   9.7817196  30.5016595  68.8076176   9.1725649  30.9097606
  69.0700624  13.9628734  51.8928834  69.9903633  14.1407333  52.0868881
  69.0350207  13.0184779  51.7408534  67.3704848   7.8360964  30.3683063
  66.4636304   7.5394077  30.4445776  67.6480829   7.5390782  29.5017349
  58.2882789   9.1567327  40.8182109  57.9685573   8.3032635  40.5256483
  57.7416217   9.3715905  41.5740076  62.0662696  11.8729768  44.5351615
  62.2848706  12.8046876  44.5539649  62.4788470  11.5137743  45.3206419
  66.9390562   7.4462974  53.9254364  66.8387288   8.3957331  53.8566456
  66.7212104   7.1181213  53.0530435  58.1571049  12.7770239  42.7875231
  57.4634520  12.3624192  42.2745185  58.9044040  12.8190775  42.1908649
  66.8021832  10.8760113  52.7419426  66.3188913  11.6760473  52.9483315
  66.8882771  10.8868058  51.7886870  60.0707791  12.7088493  40.6641245
  60.0478479  12.8076180  39.7123129  60.3808428  13.5553643  40.9858412
  62.7295169  14.7664648  44.7787860  63.6838423  14.7348590  44.7117791
  62.5307693  14.3055271  45.5938086  63.3194551  13.3365764  47.3458658
  64.1387440  13.8309842  47.3693495  63.5931359  12.4197732  47.3176225
  72.2204361  15.4921191  30.8034633  72.9240211  15.6971193  31.4192289
  71.4967010  16.0597953  31.0683717  73.0502171  11.2431052  36.9236903
  72.9937373  11.6999603  36.0844536  73.6030514  10.4821736  36.7459746
  64.2414524  21.2053584  42.0076500  64.1246908  22.1499017  41.9055191
  63.4206970  20.9027146  42.3962300  74.1291058  15.9303720  32.8533093
  74.9636662  15.4984918  32.6710568  73.9675401  15.7585733  33.7809988
  73.7836950  12.4335833  34.2189432  73.7285754  12.2680105  33.2777876
  73.1583006  13.1411866  34.3751622  58.5729465   7.6703897  48.0450855
  59.2188329   7.1602851  48.5338080  58.3646617   8.4072579  48.6194280
  71.0982858  14.7384745  53.5442995  71.9674017  14.9125397  53.1829630
  70.6189609  15.5579162  53.4218724  65.2669038  21.8581846  45.2232429
  66.1696285  21.8905456  45.5398924  65.0406408  20.9282297  45.2378765
  67.0222640  20.6112833  41.8842507  66.0718271  20.6114694  41.7706880
  67.3255126  19.8645567  41.3678542  79.5665040  26.4000799  42.8849795
  79.2283551  26.2841864  41.9970329  80.4354808  25.9991964  42.8650801
  75.4251855  28.2536275  38.8746685  74.8616720  28.1626212  38.1062973
  75.3104250  27.4336180  39.3549178  80.0484823  27.5535651  48.8436000
  80.0373463  27.1588449  47.9716504  80.2105462  26.8201723  49.4369771
  72.9716287  29.7487467  41.7130906  73.7637579  29.4078292  41.2977205
  73.2112937  29.8582442  42.6333059  81.0051414  31.9207243  34.1861150
  80.3539394  32.5061324  33.7995164  81.7995777  32.4513438  34.2456188
  74.9307041  29.0096380  34.5848285  75.7037917  28.4625367  34.4461161
  75.2832440  29.8740630  34.7962746  76.7692084  30.3372763  47.7915184
  76.4781950  31.2418393  47.6761850  77.4049068  30.3789290  48.5059254
  77.6948291  27.7149611  44.3816544  78.2911863  27.4905633  43.6673507
  77.7523262  26.9734357  44.9841992  77.2673319  25.1689046  32.2166735
  77.5198840  24.6470568  31.4550198  76.3297878  25.0055192  32.3193418
  82.3116602  24.1724825  40.0241478  83.0979691  23.7544248  39.6731895
  82.5755306  25.0770917  40.1923126  82.4826679  29.6097675  34.7230135
  81.8472512  29.6832302  35.4351039  82.1524086  30.1991274  34.0449214
  76.9869608  27.0717152  34.4191110  76.8705866  26.3962056  35.0872194
  77.0971868  26.5849526  33.6023263  79.3301149  26.5327299  38.1237799
  78.9659356  26.0057920  38.8350720  80.1868265  26.1425769  37.9504284
  78.9706636  21.5617199  33.1199147  79.1381038  22.4297436  33.4869618
  78.7803805  21.7244481  32.1960437  81.7281969  30.0234178  44.7864978
  81.4282692  30.9259217  44.6780785  81.3833028  29.7566361  45.6386131
  75.1794450  26.4747975  40.8201682  74.2544947  26.3424189  41.0279374
  75.4278864  27.2542194  41.3171625  78.9495857  24.0174857  34.1045814
  78.8295482  24.4631907  34.9431294  78.2548445  24.3660174  33.5459352
  72.5403261  26.1181248  41.6545471  72.6695643  26.3715727  42.5684883
  71.8600713  26.7108956  41.3350126  76.7102749  36.7878498  37.7535945
  76.6326778  37.7386324  37.8324426  76.1064392  36.4424371  38.4110872
  79.2019978  23.9606364  50.4097312  78.4253312  24.5200284  50.4000177
  79.8410541  24.4463147  50.9312182  77.4566351  26.7691817  49.9715279
  78.1981035  27.3076861  49.6950103  76.7503336  27.3958106  50.1286831
  82.9321690  28.9120958  48.5687441  83.3405046  28.4703368  47.8242073
  82.2098952  28.3373585  48.8221634  79.2852760  23.8493564  45.9420998
  80.1313956  24.2732978  46.0855647  79.2251398  23.1927189  46.6359561
  83.2550505  29.4722148  42.3239730  82.6259367  29.6367862  41.6215798
  82.8676167  29.8863758  43.0950694  82.4352206  21.5097933  47.6002171
  82.1913138  22.2639993  47.0636447  82.7112136  21.8883280  48.4349418
  81.9916897  20.6654366  43.1816009  81.1301377  20.9635619  43.4732747
  82.0179332  20.8824765  42.2497042  78.8078467  29.2096556  39.5889815
  79.2716812  29.4884259  38.7994437  78.5435265  28.3080001  39.4062905
  75.7002548  28.7568038  42.5269578  76.2703905  29.1855306  41.8887063
  76.2910660  28.4750623  43.2253764  77.7447353  25.3319709  36.3979380
  78.4471396  25.7840752  36.8653306  77.4127981  24.6903528  37.0259273
  76.1927714  23.9231465  50.7730589  75.5626375  24.6047746  51.0065986
  76.0863802  23.8114547  49.8283728  71.4872687  23.5903261  41.6996513
  70.6971741  23.8460790  41.2236624  71.9783934  24.4051599  41.8048554
  73.4387432  23.9547841  38.6579990  72.6418596  24.0666535  39.1763486
  73.2113024  24.2934493  37.7920881  79.2693100  30.4792544  46.6062505
  79.3337532  30.9412951  47.4420677  78.5604024  29.8489909  46.7344815
  69.7710390  23.8433752  44.1311504  70.0218428  24.7280762  44.3969080
  70.3069938  23.6638353  43.3586596  78.9841118  32.1460651  36.4741485
  78.8486792  32.9912187  36.9026333  79.5250930  32.3479929  35.7107419
  75.4708457  18.2252231  53.1355840  75.0775403  17.6718430  53.8103485
  76.2874598  18.5362810  53.5262358  72.4370515  29.6636089  37.0469410
  72.9495036  30.4579340  37.1974975  73.0893228  28.9662380  36.9803012
  74.2465400  32.7801846  39.1292163  74.4232028  33.7019810  38.9413147
  75.0422233  32.4660265  39.5586543  78.3876418  19.6410110  50.7276097
  79.1286132  20.2417263  50.6480559  78.6194341  18.8987748  50.1694139
  73.5317756  24.8266478  49.0054327  73.4171271  23.9251735  49.3061426
  72.6762274  25.0730174  48.6539143  80.6109594  32.7684218  50.6041827
  80.1673448  31.9820596  50.2862732  81.2726808  32.9563368  49.9385718
  75.3696715  34.2980019  45.1302506  75.9204140  34.1697083  44.3579500
  74.5308191  34.5974908  44.7797399  79.1663886  30.5631147  49.4746737
  79.6992223  29.8019435  49.2446045  78.6377967  30.2704799  50.2170891
  82.3333581  15.6691213  45.0040379  81.9897851  16.5592855  44.9279489
  82.7012544  15.4792871  44.1409964  70.4019432  27.9924744  37.8228981
  71.2394654  28.4021752  37.6062688  70.5797699  27.0524186  37.7929175
  82.2983864  25.6599824  33.5112814  81.7830487  26.4304429  33.7501201
  82.0261172  24.9864961  34.1345875  79.8830975  20.5049525  38.5698052
  79.0272571  20.1156376  38.3903691  80.2957927  20.5841486  37.7097838
  81.4130122  18.0395868  42.9689612  80.9094917  18.0026004  42.1557417
  81.7060728  18.9488611  43.0286268  77.6573007  18.1234598  41.9755794
  78.5226004  17.9277407  41.6161683  77.7250516  17.8944950  42.9025150
  82.0870167  23.5326916  35.3372595  81.7820303  23.8473066  36.1882738
  83.0400609  23.6108336  35.3799928  80.5316599  29.6917140  36.9865549
  80.0037960  28.9569899  36.6738786  80.0304102  30.4691816  36.7405517
  75.2635326  20.3536806  39.3472160  75.8379078  20.1311988  38.6145353
  75.8506309  20.4225501  40.1000762  75.5904914  22.3841267  33.3668046
  74.7542226  22.7215954  33.6877320  75.4509683  22.2490247  32.4295183
  77.5657994  17.2278055  38.0747230  76.9122407  16.9127072  37.4503845
  77.5238468  16.6053795  38.8007053  78.6769199  27.5097350  29.9900522
  77.7696261  27.2786603  30.1891671  79.1740231  26.7134969  30.1774503
  81.5837278  36.2194857  32.9097208  80.9098977  36.5226554  33.5182166
  81.9703100  37.0223938  32.5602665  80.7995735  23.7159989  42.3994877
  79.8818296  23.9374936  42.2416565  81.2155878  23.7906299  41.5406585
  81.5830782  25.1151404  37.5297558  82.3302601  25.6272801  37.2204680
  81.8522372  24.7935457  38.3901951  79.8557432  27.6109945  34.5124512
  78.9468652  27.3268978  34.6096982  79.8852516  28.0309023  33.6527819
  70.4245603  25.3315459  38.4939714  70.2270003  24.7384820  37.7690781
  69.8692267  25.0267669  39.2115653  78.4042327  25.2238566  40.6134307
  78.4590936  24.2712402  40.5376784  77.5933529  25.3798005  41.0975606
  79.5533520  29.1518689  31.8512591  79.1152950  28.4354548  31.3918228
  80.2943961  29.3794803  31.2897682  76.3434686  23.8415625  38.3724686
  75.5302552  24.1409796  38.7789878  76.8393681  23.4471314  39.0899168
  78.4943264  33.8373382  40.3058951  78.4519443  34.0634228  39.3767483
  79.4105963  33.6036757  40.4544752  81.9408898  24.3057450  47.2039580
  82.2958286  24.5328923  48.0634046  82.5881029  24.6375827  46.5816835
  75.8348761  21.4133981  43.9885921  76.4748141  21.2722740  43.2908884
  75.0026292  21.1268494  43.6124523  76.6109065  30.7136411  40.1020914
  77.4049664  30.2186731  39.9003489  75.9000758  30.1854274  39.7388619
  81.4303910  33.0954507  44.4533281  81.4840932  33.6645443  45.2210997
  80.5618691  33.2656392  44.0887318  72.9191829  24.8579493  36.1780666
  71.9889417  24.7963948  36.3950628  73.0149301  24.3355446  35.3817308
  72.8377378  21.3834306  38.7658908  73.0984195  22.2979639  38.6568068
  73.6594550  20.9158748  38.9155521  74.3102303  22.7972063  45.9357732
  74.9825356  22.5889425  45.2870381  73.4832090  22.5994149  45.4962965
  80.2127875  19.4234004  47.9523393  79.5655790  20.1223954  47.8587870
  80.9828890  19.8570148  48.3199642  80.3892009  27.2614769  46.0120213
  81.3184069  27.4125928  45.8389180  79.9683039  27.3498790  45.1568860
  79.1880341  31.2865433  43.7818751  79.0491427  30.9184218  44.6544689
  78.3994937  31.8013073  43.6102709  79.7828493  36.3874530  35.1244287
  79.9580249  35.9162573  35.9389910  79.0961281  37.0140296  35.3525548
  80.7385556  30.6647036  41.1707588  80.4035389  30.6247806  42.0665238
  80.2389502  29.9991752  40.6977999  74.7129800  26.0714666  46.6960170
  74.5749598  25.3394905  47.2971709  75.6234724  25.9823566  46.4144357
  77.3412101  25.7834625  46.1843849  78.0511719  25.1427817  46.1430468
  77.2981409  26.0347520  47.1070030  76.0541035  22.7699843  48.0039489
  75.5178392  22.3190582  48.6561085  75.4657743  22.9045752  47.2609953
  74.3489578  39.5363892  41.8984147  74.5886177  40.1682417  42.5763166
  73.5058775  39.1851932  42.1849507  75.4643294  22.2288495  30.5665952
  74.5872760  22.1077295  30.2028199  75.9401047  21.4374573  30.3144841
  71.7880156  21.9055851  45.0892483  71.7038345  21.2981520  44.3542893
  70.9662863  22.3964869  45.0901980  78.8617440  35.3443015  44.3025651
  78.7887612  36.1497986  44.8144956  78.4194833  35.5434981  43.4773673
  78.6507220  34.5814785  37.8128473  77.8674742  35.1236465  37.9066697
  79.3499965  35.0988765  38.2122714  81.9603870  20.3909414  40.4562678
  82.4572570  19.6379377  40.1363749  81.1890851  20.4273731  39.8905888
  81.3216124  35.2429849  46.4583810  82.0344096  35.8777314  46.3859712
  80.8306152  35.3393715  45.6423812  83.0433651  29.1481102  38.0301102
  82.1089929  29.2682564  37.8605806  83.2210319  28.2453568  37.7661112
  78.5438839  22.5326797  40.1834363  78.1736626  21.9797838  40.8715268
  79.0397931  21.9284931  39.6309363  76.3728037  32.9924292  47.2789381
  77.0737497  33.6260775  47.4318775  75.9023152  33.3339024  46.5185020
  81.1336497  35.5828593  39.2070102  81.3158892  34.7650249  39.6697854
  81.9569483  35.7996285  38.7694992  81.4678663  34.5096778  36.4685150
  81.9966429  33.9989233  35.8555312  81.7306882  34.1939308  37.3330683
  80.2216896  26.2888711  51.5907968  79.5457533  26.1882840  52.2610344
  81.0444530  26.1327925  52.0543966  71.9695755  32.5260647  44.2120484
  72.5549192  31.7804335  44.3448388  71.7720594  32.8364604  45.0957147
  74.8234411  35.5611895  39.2282926  74.1544786  36.0458022  38.7446966
  74.6847280  35.8081115  40.1426304  66.5613410  25.0966248  42.9324927
  66.5997510  24.5629838  43.7262045  66.0553703  24.5701453  42.3135904
  78.9639679  37.5955638  45.8265584  79.5157987  37.7587260  46.5914670
  79.3045873  38.1860076  45.1545609  73.9404172  19.9430788  46.4287469
  74.0045499  20.8045619  46.0164867  73.8771293  19.3304790  45.6959828
  73.4156445  22.0153921  50.0760503  74.0428484  21.6330998  50.6898028
  72.5584364  21.7968123  50.4416196  70.1921988  23.8230350  36.0078858
  70.4875429  22.9141028  35.9545912  69.2910023  23.8018089  35.6859860
  82.1008066  35.5437614  42.8129266  81.9759206  34.7427354  42.3040212
  82.7587158  36.0383807  42.3243236  73.7216235  21.8986346  41.9906407
  73.0002820  22.5122314  41.8513880  74.5109490  22.4344111  41.9123053
  76.5242548  19.2340773  48.2647058  77.0476950  19.4803069  49.0273368
  76.3054881  20.0660808  47.8450196  71.9209829  21.5044447  36.1318183
  71.5922535  20.6241826  35.9493289  72.2749200  21.4492116  37.0194572
  81.1689408  33.1399350  40.6413169  81.0214371  32.2116058  40.8220739
  81.9942902  33.1619441  40.1570244  75.0351652  21.7917417  36.4993661
  75.3747725  22.3203338  35.7772269  75.4823773  22.1297823  37.2752227
  77.7295093  20.1754468  45.9496729  77.3891914  19.3762281  46.3517409
  77.0234100  20.4756179  45.3773562  78.3811565  17.2603780  44.4024052
  79.2037634  16.7864259  44.2802942  78.6249629  18.0394264  44.9022738
  77.0219800  20.2892039  34.6986954  77.7428162  20.6673292  34.1950671
  76.3985104  21.0080916  34.8021932  81.1650922  20.9937188  35.6345286
  81.3814537  21.8761826  35.3334114  80.6844990  20.6023401  34.9050928
  75.9050144  23.9522901  42.2116031  75.7594725  24.2663204  43.1040312
  75.4275347  24.5707801  41.6586929  77.7646527  20.9425449  42.2596920
  77.7508095  20.0466542  41.9229218  78.4818955  20.9496113  42.8935206
  79.6172657  21.3762789  44.3050048  79.3590435  22.2979860  44.3034378
  79.0857698  20.9793224  44.9950512  70.3795806  26.4928245  45.1503692
  69.8349274  27.2688053  45.2823966  71.2575156  26.8399050  44.9922813
  77.1683423  19.8239829  37.5284490  77.2899334  18.8956475  37.7275378
  76.8785465  19.8378515  36.6162806  80.0374613  17.5094740  40.6651210
  80.0596310  17.5734073  39.7103190  80.4542672  16.6699248  40.8591716
  71.1661828  25.6198142  48.0433849  70.4243564  25.7680777  48.6298479
  70.8454572  25.8806407  47.1800598  79.1105490  35.1614120  47.8414239
  79.4192617  34.9163267  48.7136938  79.9080973  35.3660758  47.3533109
  79.1326103  37.3152030  40.0719615  78.6931093  36.8228408  40.7652472
  79.8834219  36.7724997  39.8311690  71.6118442  33.5063570  40.0744243
  72.4376461  33.2067342  39.6942887  71.2612494  32.7371193  40.5234032
  76.5799975  32.8590039  42.1441917  75.9579984  32.1960744  41.8444145
  77.2504842  32.8851171  41.4615565  69.8127047  31.4249897  41.0333177
  68.9758955  30.9972071  40.8517178  69.7850692  31.6182340  41.9703968
  76.6524502  21.3371827  51.7374423  76.7012658  22.2133949  51.3552193
  77.1947016  20.7949220  51.1646066  76.1413482  31.4093962  35.6200377
  76.2901602  32.0929426  34.9667050  76.9479925  31.3899052  36.1349833
  78.8823791  22.0903199  48.4920782  78.0127100  22.3836765  48.2203370
  79.1183271  22.6743644  49.2128045  73.8966115  27.4359140  36.6261446
  73.6512157  26.5321470  36.8241656  74.0662029  27.4376290  35.6840924
  81.5862824  18.3082816  46.0086202  82.1044768  19.0443843  45.6832691
  81.2317957  18.6146809  46.8432961  73.1661762  23.1687497  34.1247608
  72.4731007  23.2431852  33.4687644  72.9213514  22.4047841  34.6469125
  81.8375419  14.7283099  41.5287099  82.1177172  14.0606288  42.1547525
  82.6226026  14.9212194  41.0161762  79.6408887  33.9042092  33.0912125
  79.0682854  34.5232280  32.6382597  80.2141681  34.4541454  33.6252047
  80.0255686  25.2402905  30.4328177  80.9714790  25.1109113  30.5016595
  79.6469931  24.5017567  30.9097606  79.9094378  29.2920651  51.8928834
  80.8297388  29.4699250  52.0868881  79.8743961  28.3476697  51.7408534
  78.2098603  23.1652882  30.3683063  77.3030058  22.8685994  30.4445776
  78.4874584  22.8682700  29.5017349  69.1276543  24.4859245  40.8182109
  68.8079327  23.6324553  40.5256483  68.5809971  24.7007823  41.5740076
  72.9056451  27.2021686  44.5351615  73.1242460  28.1338794  44.5539649
  73.3182225  26.8429660  45.3206419  79.8260668  17.7089771  36.5227304
  79.0161397  17.3636856  36.8982550  80.5145085  17.3997315  37.1114915
  81.7551217  16.7867818  38.1451601  82.3082255  17.2063271  38.8041624
  81.9921303  15.8603566  38.1874557  77.7784316  22.7754892  53.9254364
  77.6781043  23.7249249  53.8566456  77.5605858  22.4473131  53.0530435
  76.9797387  20.0239817  30.5095042  77.8416551  20.3494715  30.7690859
  77.1647732  19.2371313  29.9968108  68.9964803  28.1062156  42.7875231
  68.3028275  27.6916109  42.2745185  69.7437794  28.1482693  42.1908649
  77.6415586  26.2052031  52.7419426  77.1582668  27.0052391  52.9483315
  77.7276525  26.2159975  51.7886870  70.9101546  28.0380410  40.6641245
  70.8872234  28.1368098  39.7123129  71.2202182  28.8845561  40.9858412
  73.5688924  30.0956565  44.7787860  74.5232177  30.0640508  44.7117791
  73.3701447  29.6347189  45.5938086  74.1588306  28.6657681  47.3458658
  74.9781195  29.1601760  47.3693495  74.4325113  27.7489649  47.3176225
  71.9239152  35.6376185  41.7958058  71.7893620  34.8776586  41.2296056
  71.5071215  36.3617085  41.3286847  75.0808278  36.5345502  42.0076500
  74.9640662  37.4790934  41.9055191  74.2600724  36.2319063  42.3962300
  69.4123220  22.9995815  48.0450855  70.0582084  22.4894769  48.5338080
  69.2040371  23.7364497  48.6194280  81.9376612  30.0676663  53.5442995
  82.8067772  30.2417315  53.1829630  81.4583364  30.8871079  53.4218724
  77.9326830  17.2635860  33.7974751  77.9205500  18.2077700  33.9543022
  78.8250252  17.0806005  33.5034212  76.1062792  37.1873764  45.2232429
  77.0090039  37.2197374  45.5398924  75.8800162  36.2574215  45.2378765
  77.8616394  35.9404750  41.8842507  76.9112025  35.9406612  41.7706880
  78.1648881  35.1937485  41.3678542  81.7478950  13.8578636  38.0520688
  80.9811346  13.3037123  38.1977370  82.1589655  13.9300505  38.9134839
  73.7520711  20.1463432  52.1425869  74.6152172  19.7900237  52.3529193
  73.1786122  19.8077327  52.8301273  82.3266441  38.9195179  41.6996513
  81.5365495  39.1752708  41.2236624  82.8177689  39.7343517  41.8048554
  80.6104144  39.1725670  44.1311504  80.8612183  40.0572679  44.3969080
  81.1463693  38.9930271  43.3586596  81.2413186  43.3216661  37.8228981
  82.0788408  43.7313670  37.6062688  81.4191454  42.3816104  37.7929175
  81.2639357  40.6607377  38.4939714  81.0663757  40.0676737  37.7690781
  80.7086021  40.3559587  39.2115653  77.8239188  42.3457572  40.6607460
  78.5110228  42.0319302  40.0728475  77.6687317  43.2498937  40.3874711
  82.6273911  37.2347768  45.0892483  82.5432099  36.6273438  44.3542893
  81.8056617  37.7256787  45.0901980  77.4007165  40.4258165  42.9324927
  77.4391264  39.8921756  43.7262045  76.8947457  39.8993371  42.3135904
  81.0315742  39.1522267  36.0078858  81.3269183  38.2432946  35.9545912
  80.1303778  39.1310007  35.6859860  82.7603584  36.8336365  36.1318183
  82.4316290  35.9533744  35.9493289  83.1142954  36.7784034  37.0194572
  81.2189560  41.8220163  45.1503692  80.6743029  42.5979971  45.2823966
  82.0968910  42.1690968  44.9922813  82.0055582  40.9490059  48.0433849
  81.2637318  41.0972695  48.6298479  81.6848327  41.2098325  47.1800598
  82.4512196  48.8355488  40.0744243  83.2770216  48.5359260  39.6942887
  82.1006248  48.0663111  40.5234032  80.6520801  46.7541815  41.0333177
  79.8152709  46.3263989  40.8517178  80.6244446  46.9474258  41.9703968
  79.9670298  39.8151163  40.8182109  79.6473082  38.9616471  40.5256483
  79.4203726  40.0299741  41.5740076  79.8358558  43.4354074  42.7875231
  79.1422029  43.0208027  42.2745185  80.5831549  43.4774611  42.1908649
  81.7495300  43.3672328  40.6641245  81.7265988  43.4660015  39.7123129
  82.0595937  44.2137479  40.9858412  82.7632907  50.9668102  41.7958058
  82.6287375  50.2068503  41.2296056  82.3464969  51.6909002  41.3286847
  80.2516974  38.3287733  48.0450855  80.8975838  37.8186687  48.5338080
  80.0434126  39.0656414  48.6194280  76.7102750  13.7940621  24.4781252
  76.6326780  14.7448446  24.5569733  76.1064394  13.4486494  25.1356178
  75.3696716  11.3042142  31.8547812  75.9204142  11.1759205  31.0824806
  74.5308192  11.6037031  31.5042705  79.7828494  13.3936652  21.8489594
  79.9580250  12.9224695  22.6635217  79.0961282  14.0202418  22.0770855
  74.3489580  16.5426015  28.6229454  74.5886178  17.1744539  29.3008473
  73.5058776  16.1914055  28.9094813  78.8617442  12.3505137  31.0270958
  78.7887613  13.1560109  31.5390263  78.4194835  12.5497103  30.2018979
  78.6507221  11.5876907  24.5373780  77.8674743  12.1298588  24.6312004
  79.3499966  12.1050887  24.9368021  81.3216125  12.2491971  33.1829117
  82.0344097  12.8839436  33.1105018  80.8306154  12.3455837  32.3669119
  71.9695757   9.5322770  30.9365790  72.5549193   8.7866458  31.0693694
  71.7720595   9.8426727  31.8202454  74.8234412  12.5674017  25.9528233
  74.1544787  13.0520145  25.4692273  74.6847282  12.8143238  26.8671611
  78.9639680  14.6017761  32.5510891  79.5157988  14.7649382  33.3159976
  79.3045874  15.1922199  31.8790916  79.1105492  12.1676243  34.5659545
  79.4192618  11.9225389  35.4382245  79.9080974  12.3722881  34.0778416
  79.1326104  14.3214152  26.7964922  78.6931094  13.8290531  27.4897779
  79.8834221  13.7787120  26.5556997  71.6118443  10.5125693  26.7989550
  72.4376463  10.2129465  26.4188193  71.2612495   9.7433315  27.2479339
  69.8127048   8.4312019  27.7578484  68.9758956   8.0034194  27.5762485
  69.7850693   8.6244463  28.6949275  71.9239154  12.6438307  28.5203364
  71.7893622  11.8838708  27.9541362  71.5071216  13.3679207  28.0532153
  75.0808279  13.5407624  28.7321807  74.9640664  14.4853057  28.6300497
  74.2600726  13.2381186  29.1207606  76.1062794  14.1935886  31.9477735
  77.0090040  14.2259497  32.2644230  75.8800164  13.2636337  31.9624071
  77.8616396  12.9466873  28.6087814  76.9112027  12.9468734  28.4952186
  78.1648882  12.1999607  28.0923849  82.3266443  15.9257302  28.4241820
  81.5365497  16.1814830  27.9481931  82.8177690  16.7405640  28.5293861
  80.6104146  16.1787792  30.8556811  80.8612184  17.0634802  31.1214387
  81.1463694  15.9992394  30.0831903  81.2413187  20.3278784  24.5474287
  82.0788410  20.7375792  24.3307995  81.4191455  19.3878226  24.5174481
  81.2639359  17.6669499  25.2185021  81.0663758  17.0738860  24.4936087
  80.7086023  17.3621709  25.9360960  77.8239190  19.3519695  27.3852766
  78.5110230  19.0381425  26.7973782  77.6687318  20.2561059  27.1120018
  82.6273912  14.2409891  31.8137790  82.5432101  13.6335561  31.0788200
  81.8056618  14.7318909  31.8147286  77.4007166  17.4320288  29.6570233
  77.4391265  16.8983879  30.4507351  76.8947459  16.9055493  29.0381211
  81.0315743  16.1584390  22.7324165  81.3269185  15.2495068  22.6791218
  80.1303779  16.1372129  22.4105167  81.2189562  18.8282286  31.8748998
  80.6743030  19.6042094  32.0069273  82.0968912  19.1753090  31.7168120
  82.0055584  17.9552182  34.7679155  81.2637320  18.1034817  35.3543786
  81.6848328  18.2160448  33.9045905  82.4512197  25.8417611  26.7989550
  83.2770217  25.5421383  26.4188193  82.1006249  25.0725233  27.2479339
  80.6520802  23.7603937  27.7578484  79.8152711  23.3326111  27.5762485
  80.6244448  23.9536380  28.6949275  79.9670299  16.8213285  27.5427416
  79.6473083  15.9678593  27.2501790  79.4203727  17.0361863  28.2985383
  79.8358559  20.4416197  29.5120537  79.1422030  20.0270150  28.9990492
  80.5831550  20.4836733  28.9153956  81.7495301  20.3734451  27.3886552
  81.7265990  20.4722138  26.4368435  82.0595938  21.2199601  27.7103718
  82.7632908  27.9730225  28.5203364  82.6287376  27.2130626  27.9541362
  82.3464970  28.6971125  28.0532153  80.2516976  15.3349855  34.7696161
  80.8975839  14.8248809  35.2583386  80.0434127  16.0718537  35.3439586
   5.1295129  39.5853205  74.0125227   4.4783109  40.1707285  73.6259241
   5.9239492  40.1159400  74.0720265  11.3961853  36.0778141  75.2730064
  10.6191296  35.7389300  74.8285226  12.0753334  36.0830764  74.5985029
   2.8012914  35.1743312  69.8164599   1.8939976  34.9432565  70.0155748
   3.2983946  34.3780931  70.0038580   5.7080993  43.8840819  72.7361285
   5.0342692  44.1872515  73.3446243   6.0946815  44.6869899  72.3866742
   3.6777235  36.8164650  71.6776668   3.2396665  36.1000509  71.2182305
   4.4187676  37.0440765  71.1161759   3.9072208  44.0520491  74.9508364
   4.0823964  43.5808534  75.7653987   3.2204996  44.6786257  75.1789625
   7.7988463  35.6749032  71.2708725   7.1817633  34.9495860  71.1741778
   7.3304951  36.4358392  70.9275799   8.6226148  38.9988204  75.3901365
   8.8985992  38.8844798  76.2995239   7.7530647  38.6005689  75.3513538
   5.5922377  42.1742740  76.2949227   6.1210144  41.6635194  75.6819389
   5.8550597  41.8585270  77.1594760   8.6862561  42.1459538  76.9104210
   8.8599439  41.5805960  76.1578062   9.1791452  42.9460433  76.7283700
   9.6737733  41.4626302  74.0101108  10.3688638  42.0832995  74.2288423
  10.0160884  40.6121653  74.2853486  11.5729157  38.9126008  75.5388439
  12.0980481  39.2513281  74.8137759  11.4851509  37.9773023  75.3551574
   3.7652602  41.5688054  72.9176202   3.1926569  42.1878241  72.4646674
   4.3385396  42.1187416  73.4516124   6.9849862  41.8525204  74.0484784
   7.9180535  41.7870766  74.2517660   6.8973075  42.6881471  73.5899317
   9.6137878  41.1691074  71.0088732   9.5351510  40.8350938  71.9024490
  10.4347545  41.6612842  71.0080204   4.1499400  32.9048867  70.2592254
   5.0958505  32.7755075  70.3280672   3.7713645  32.1663529  70.7361683
   7.1841830  38.4859070  70.6298710   7.8877680  38.6909072  71.2456366
   6.4604479  39.0535832  70.8947794   9.0928528  38.9241599  72.6797170
   9.9274131  38.4922797  72.4974645   8.9312870  38.7523613  73.6074065
   8.7474420  35.4273712  74.0453509   8.6923224  35.2617984  73.1041953
   8.1220475  36.1349745  74.2015699  17.7212803  49.4411250  82.7752347
  18.3591213  49.3217997  82.0715687  17.6033646  50.3892094  82.8340299
  14.5302509  49.3938678  82.7113872  14.1921020  49.2779743  81.8234406
  15.3992277  48.9929843  82.6914878  15.9688883  54.9145122  74.0125227
  15.3176863  55.4999203  73.6259241  16.7633246  55.4451317  74.0720265
   9.8944510  52.0034259  74.4112362  10.6675386  51.4563247  74.2725238
  10.2469909  52.8678509  74.6226823  12.2310788  48.1626926  72.0430812
  12.4836309  47.6408447  71.2814275  11.2935347  47.9993071  72.1457495
  17.2754071  47.1662704  79.8505555  18.0617160  46.7482127  79.4995972
  17.5392775  48.0708796  80.0187203  17.4464148  52.6035554  74.5494212
  16.8109981  52.6770181  75.2615116  17.1161555  53.1929153  73.8713291
  22.6762498  47.1037937  80.7538533  23.4087670  46.5337154  80.9876363
  21.9201854  46.7159538  81.1945039  11.9507077  50.0655032  74.2455187
  11.8343335  49.3899935  74.9136271  12.0609337  49.5787405  73.4287340
  14.2938618  49.5265179  77.9501876  13.9296825  48.9995800  78.6614797
  15.1505734  49.1363648  77.7768361  13.9344105  44.5555078  72.9463224
  14.1018507  45.4235315  73.3133695  13.7441274  44.7182360  72.0224514
  20.0916582  45.5354597  82.2926492  19.1833459  45.4670006  81.9985253
  20.0404178  46.0126542  83.1208318  13.9133326  47.0112736  73.9309891
  13.7932951  47.4569787  74.7695371  13.2185914  47.3598054  73.3723429
  21.9578228  43.7371036  84.0704366  21.3152609  44.0303569  83.4244161
  21.4533157  43.6223956  84.8757563  19.6118392  47.4834209  74.7590225
  20.5236248  47.7161596  74.5837923  19.1028039  48.0671253  74.1965304
  18.2187974  52.4660027  82.1503807  17.5896837  52.6305742  81.4479875
  17.8313636  52.8801637  82.9214771  22.0977206  53.4014465  79.5048170
  21.4128244  53.7813367  78.9545204  22.1821056  54.0109792  80.2380118
  13.7715936  52.2034436  79.4153892  14.2354282  52.4822139  78.6258514
  13.5072734  51.3017880  79.2326982  12.7084822  48.3257588  76.2243457
  13.4108866  48.7778632  76.6917383  12.3765451  47.6841407  76.8523350
  28.5579959  50.2685128  80.6250843  27.8043667  49.6992526  80.4694847
  28.6927500  50.2347793  81.5721477  13.9478587  55.1398531  76.3005562
  13.8124262  55.9850066  76.7290410  14.4888399  55.3417808  75.5371496
  17.2621333  48.6537704  73.3376891  16.7467957  49.4242308  73.5765278
  16.9898642  47.9802840  73.9609952  14.8468444  43.4987404  78.3962129
  13.9910041  43.1094255  78.2167768  15.2595396  43.5779365  77.5361915
  22.2355607  51.4070058  75.2730064  21.4585050  51.0681218  74.8285226
  22.9147088  51.4122681  74.5985029  17.0507636  46.5264796  75.1636672
  16.7457772  46.8410945  76.0146815  18.0038078  46.6046216  75.2064005
  15.4954068  52.6855019  76.8129626  14.9675430  51.9507779  76.5002863
  14.9941571  53.4629695  76.5669594  20.4746914  50.8804039  81.9296672
  19.8170589  51.5703301  82.0176801  21.2787313  51.2700471  82.2730659
  10.2272796  43.3474685  79.1736237  10.8016548  43.1249867  78.4409430
  10.8143778  43.4163380  79.9264839  19.2852373  49.2348412  79.9800614
  19.7984255  49.8678404  80.4822324  19.9353597  48.6349608  79.6143974
  10.5542383  45.3779146  73.1932123   9.7179695  45.7153833  73.5141397
  10.4147153  45.2428126  72.2559260  12.5295463  40.2215934  77.9011307
  11.8759876  39.9064951  77.2767922  12.4875938  39.5991675  78.6271130
  13.6406668  50.5035229  69.8164599  12.7333730  50.2724483  70.0155748
  14.1377700  49.7072848  70.0038580  16.5474747  59.2132736  72.7361285
  15.8736446  59.5164433  73.3446243  16.9340569  60.0161817  72.3866742
  15.7633204  46.7097868  82.2258954  14.8455765  46.9312815  82.0680643
  16.1793347  46.7844178  81.3670662  16.5468252  48.1089283  77.3561635
  17.2940071  48.6210681  77.0468757  16.8159841  47.7873336  78.2166028
  14.8194902  50.6047824  74.3388589  13.9106121  50.3206857  74.4361059
  14.8489986  51.0246903  73.4791896  20.0514169  54.2154414  78.1079757
  19.5976496  53.3745323  78.1644947  19.4208136  54.8515812  78.4454537
  18.9947089  45.1446400  79.3380424  18.2569846  44.6323786  79.6690667
  19.2473862  44.7046781  78.5263701  18.4947108  56.0530910  79.0429575
  18.7870083  56.6135967  78.3241940  19.0045729  56.3459471  79.7982734
  19.0958716  37.9222652  79.9322193  19.4017593  37.0620015  79.6448108
  19.8211321  38.5140272  79.7321187  13.3679796  48.2176445  80.4398384
  13.4228406  47.2650281  80.3640861  12.5570998  48.3735884  80.9239683
  14.5170990  52.1456568  71.6776668  14.0790420  51.4292427  71.2182305
  15.2581430  52.3732683  71.1161759  11.3072156  46.8353504  78.1988763
  10.4940021  47.1347675  78.6053955  11.8031150  46.4409193  78.9163245
  22.6344104  50.4213765  77.7352986  22.4962003  50.6115361  76.8074175
  22.2780323  51.1833148  78.1921037  22.6613484  52.4890292  82.7464258
  23.0949991  52.3965581  83.5947312  23.3745065  52.4647792  82.1084274
   7.8829298  47.8517372  76.0044743   6.9526886  47.7901828  76.2214705
   7.9786770  47.3293325  75.2081385   7.8014847  44.3772185  78.5922985
   8.0621664  45.2917518  78.4832145   8.6232019  43.9096628  78.7419598
  23.5229034  52.5313992  85.2797143  23.7164924  53.4359803  85.5256418
  23.4229652  52.0721412  86.1135728  14.7465962  59.3812409  74.9508364
  14.9217718  58.9100452  75.7653987  14.0598750  60.0078175  75.1789625
  18.6382217  51.0040949  71.2708725  18.0211388  50.2787778  71.1741778
  18.1698706  51.7650310  70.9275799  10.4280763  45.2226374  70.3930029
   9.5510229  45.1015174  70.0292276  10.9038516  44.4312452  70.1408918
  16.9241339  43.3847294  80.2826755  17.4210039  42.6317256  79.9627826
  16.1528321  43.4211610  79.7169965  24.7771097  49.0887659  81.9245047
  24.7660973  49.9712374  81.5538980  23.9088476  48.7359210  81.7299584
  18.0071120  52.1418981  77.8565179  17.0727399  52.2620443  77.6869883
  18.1847788  51.2391448  77.5925189  13.5076308  45.5264677  80.0098440
  13.1374096  44.9735717  80.6979346  14.0035400  44.9222810  79.4573440
  21.3943671  47.9836300  78.3915213  21.8604124  48.8164292  78.3175516
  21.8451172  47.5181282  79.0960471  19.4619902  54.3280121  75.3901365
  19.7379746  54.2136716  76.2995239  18.5924401  53.9297606  75.3513538
  19.1366793  48.5406779  84.9306008  18.4838243  48.7882686  84.2758461
  19.5147172  47.7270917  84.5968486  16.4316132  57.5034657  76.2949227
  16.9603898  56.9927112  75.6819389  16.6944352  57.1877188  77.1594760
   5.1559457  46.8168229  75.8342935   5.4512898  45.9078907  75.7809989
   4.2547493  46.7955968  75.5123937   6.8847299  44.4982327  75.9582260
   6.5560005  43.6179706  75.7757366   7.2386669  44.4429995  76.8458649
   9.9989122  44.7855296  76.3257738  10.3385194  45.3141218  75.6036346
  10.4461242  45.1235703  77.1016304  19.7360999  56.9565788  81.5542119
  20.6607547  56.7508649  81.4166570  19.5676303  56.7082189  82.4631460
  11.9857269  43.2829918  74.5251031  12.7065631  43.6611171  74.0214748
  11.3622573  44.0018795  74.6286009  16.1288392  43.9875067  75.4609363
  16.3452006  44.8699705  75.1598191  15.6482459  43.5961280  74.7315005
  19.5256315  57.4751455  76.9104210  19.6993193  56.9097878  76.1578062
  20.0185207  58.2752350  76.7283700  12.1320892  42.8177708  77.3548567
  12.2536803  41.8894355  77.5539455  11.8422934  42.8316394  76.4426883
  25.3795707  50.2387878  78.5294510  25.8226853  49.4895204  78.1313633
  24.5022217  50.2298015  78.1468242  20.5131488  56.7918220  74.0101108
  21.2082393  57.4124913  74.2288423  20.8554638  55.9413571  74.2853486
  22.4122911  54.2417925  75.5388439  22.9374235  54.5805198  74.8137759
  22.3245264  53.3064941  75.3551574  11.1050951  54.4031841  75.4464454
  11.2539071  55.0867306  74.7931127  11.9117394  54.3836931  75.9613910
  24.9228571  51.7093117  80.9216957  25.7575463  52.1482921  81.0854518
  25.0587700  51.2331770  80.1025203  21.9720077  49.2672852  86.8694445
  22.4474199  49.4600498  86.0613296  21.0485643  49.3232037  86.6237829
   8.8603584  50.4297019  76.4525523   8.6149626  49.5259349  76.6505733
   9.0299498  50.4314169  75.5105001   8.1299231  46.1625376  73.9511685
   7.4368476  46.2369731  73.2951721   7.8850983  45.3985720  74.4733202
  14.6046356  56.8979972  72.9176202  14.0320323  57.5170159  72.4646674
  15.1779150  57.4479333  73.4516124  20.6721746  46.1438612  85.1022751
  21.6239169  46.2436709  85.1234975  20.5025197  45.3516880  85.6120835
  17.8243616  57.1817122  74.0484784  18.7574289  57.1162683  74.2517660
  17.7366829  58.0173389  73.5899317  20.4531633  56.4982992  71.0088732
  20.3745264  56.1642856  71.9024490  21.2741300  56.9904760  71.0080204
  23.1509824  49.3644731  84.2165050  23.1186144  48.4260732  84.4024734
  23.7610448  49.4428768  83.4830875  14.9893155  48.2340784  70.2592254
  15.9352260  48.1046992  70.3280672  14.6107400  47.4955446  70.7361683
  23.3004313  46.1555775  84.2623334  22.7843361  45.3714231  84.0753262
  24.1844261  45.8274491  84.4269853  20.9615039  39.8996790  80.2219146
  20.7639861  39.5911879  81.1062478  21.5714745  40.6258429  80.3517076
  28.9686374  50.4260738  83.3571087  29.6989762  50.1646026  83.9178790
  28.3593319  49.6889460  83.3973155  27.0501671  48.5668601  83.9545538
  26.3234835  48.4324566  83.3462030  26.6348958  48.8745429  84.7602256
  13.1736072  46.1590761  70.1947140  12.2667527  45.8623873  70.2709853
  13.4512053  45.8620579  69.3281426  14.7898138  40.7027650  76.3491381
  13.9798866  40.3574735  76.7246627  15.4782555  40.3935194  76.9378992
  16.7188686  39.7805697  77.9715678  17.2719725  40.2001151  78.6305701
  16.9558772  38.8541445  78.0138634  11.9434857  43.0177696  70.3359119
  12.8054021  43.3432594  70.5954936  12.1285201  42.2309192  69.8232185
  20.0967493  41.8906222  77.4794342  19.5166162  42.5491026  77.0972394
  19.8303426  41.0683567  77.0681759  18.5471060  41.2911280  79.6815662
  19.0470838  41.4027815  78.8729981  19.1906667  40.9872333  80.3216471
  18.8792371  44.0506313  76.5350690  17.9918226  44.3355963  76.3170885
  19.2946360  43.8900076  75.6877967  22.2306907  44.0752834  80.2505029
  23.0067297  44.5649286  80.5229646  21.5055041  44.5010888  80.7076899
  24.6679466  44.7880453  81.3078970  25.2623957  44.5476189  80.5972278
  24.7406050  44.0687584  81.9352506  18.0235585  53.8150987  70.6298710
  18.7271435  54.0200990  71.2456366  17.2998233  54.3827749  70.8947794
  18.8533395  49.5660849  76.7500980  18.7968596  50.0229400  75.9108613
  19.4061737  48.8051533  76.5723823  22.6638201  45.3550581  77.5751100
  22.4075135  44.9547216  78.4059307  22.0391069  46.0694375  77.4501239
  26.9750539  48.0946654  80.0822391  26.4150097  48.1639843  80.8553953
  26.3694042  47.9187638  79.3621887  19.9322282  54.2533517  72.6797170
  20.7667886  53.8214715  72.4974645  19.7706625  54.0815530  73.6074065
  19.5868174  50.7565630  74.0453509  19.5316978  50.5909901  73.1041953
  18.9614230  51.4641663  74.2015699  12.8964300  40.2573739  73.6238828
  12.8842970  41.2015579  73.7807099  13.7887722  40.0743884  73.3298289
  16.7116419  36.8516516  77.8784765  15.9448815  36.2975002  78.0241447
  17.1227124  36.9238384  78.7398916  28.5606557  64.7703168  82.7752347
  29.1984967  64.6509915  82.0715687  28.4427400  65.7184012  82.8340299
  25.3696263  64.7230596  82.7113872  25.0314775  64.6071661  81.8234406
  26.2386032  64.3221761  82.6914878  26.8082638  70.2437040  74.0125227
  26.1570618  70.8291120  73.6259241  27.6027001  70.7743235  74.0720265
  20.7338265  67.3326177  74.4112362  21.5069141  66.7855164  74.2725238
  21.0863664  68.1970426  74.6226823  23.0704543  63.4918843  72.0430812
  23.3230063  62.9700365  71.2814275  22.1329102  63.3284989  72.1457495
  28.1147826  62.4954622  79.8505555  28.9010915  62.0774045  79.4995972
  28.3786530  63.4000714  80.0187203  28.2857903  67.9327472  74.5494212
  27.6503736  68.0062098  75.2615116  27.9555309  68.5221071  73.8713291
  33.5156253  62.4329855  80.7538533  34.2481425  61.8629072  80.9876363
  32.7595608  62.0451455  81.1945039  22.7900832  65.3946949  74.2455187
  22.6737090  64.7191853  74.9136271  22.9003091  64.9079323  73.4287340
  25.1332372  64.8557096  77.9501876  24.7690580  64.3287717  78.6614797
  25.9899488  64.4655565  77.7768361  31.0381673  56.1451429  85.2133142
  30.7064998  57.0146840  84.9894357  30.4427286  55.8287713  85.8927172
  24.7737859  59.8846996  72.9463224  24.9412262  60.7527232  73.3133695
  24.5835029  60.0474278  72.0224514  30.9310336  60.8646515  82.2926492
  30.0227214  60.7961924  81.9985253  30.8797932  61.3418460  83.1208318
  24.7527080  62.3404654  73.9309891  24.6326706  62.7861704  74.7695371
  24.0579669  62.6889971  73.3723429  32.7971983  59.0662954  84.0704366
  32.1546363  59.3595487  83.4244161  32.2926911  58.9515874  84.8757563
  30.4512146  62.8126127  74.7590225  31.3630003  63.0453513  74.5837923
  29.9421794  63.3963171  74.1965304  27.7948121  58.9884163  83.0080086
  26.9332600  59.2865416  83.2996824  27.8210556  59.2054562  82.0761119
  24.6109691  67.5326353  79.4153892  25.0748036  67.8114056  78.6258514
  24.3466489  66.6309798  79.2326982  23.5478577  63.6549506  76.2243457
  24.2502620  64.1070549  76.6917383  23.2159205  63.0133324  76.8523350
  24.7872341  70.4690448  76.3005562  24.6518016  71.3141984  76.7290410
  25.3282154  70.6709726  75.5371496  28.1364805  53.9921010  84.8304456
  27.7929074  54.8822652  84.7543566  28.5043768  53.8022668  83.9674041
  28.1015088  63.9829621  73.3376891  27.5861711  64.7534226  73.5765278
  27.8292396  63.3094757  73.9609952  25.6862199  58.8279322  78.3962129
  24.8303795  58.4386172  78.2167768  26.0989150  58.9071283  77.5361915
  27.2161345  56.3625665  82.7953689  26.7126141  56.3255800  81.9821494
  27.5091952  57.2718408  82.8550346  23.4604231  56.4464395  81.8019871
  24.3257228  56.2507204  81.4425760  23.5281740  56.2174747  82.7289227
  33.0749362  66.7361976  75.2730064  32.2978805  66.3973135  74.8285226
  33.7540843  66.7414599  74.5985029  27.8901391  61.8556713  75.1636672
  27.5851526  62.1702862  76.0146815  28.8431833  61.9338133  75.2064005
  26.3347823  68.0146937  76.8129626  25.8069184  67.2799696  76.5002863
  25.8335325  68.7921613  76.5669594  21.0666550  58.6766603  79.1736237
  21.6410302  58.4541784  78.4409430  21.6537533  58.7455297  79.9264839
  30.1246127  64.5640330  79.9800614  30.6378009  65.1970322  80.4822324
  30.7747351  63.9641525  79.6143974  21.3936137  60.7071064  73.1932123
  20.5573450  61.0445750  73.5141397  21.2540907  60.5720044  72.2559260
  23.3689218  55.5507852  77.9011307  22.7153630  55.2356869  77.2767922
  23.3269692  54.9283592  78.6271130  24.4800423  65.8327147  69.8164599
  23.5727485  65.6016400  70.0155748  24.9771455  65.0364766  70.0038580
  27.3868502  74.5424654  72.7361285  26.7130200  74.8456351  73.3446243
  27.7734324  75.3453734  72.3866742  26.6026958  62.0389785  82.2258954
  25.6849520  62.2604732  82.0680643  27.0187102  62.1136096  81.3670662
  27.3862006  63.4381201  77.3561635  28.1333825  63.9502598  77.0468757
  27.6553596  63.1165254  78.2166028  25.6588656  65.9339742  74.3388589
  24.7499876  65.6498775  74.4361059  25.6883740  66.3538820  73.4791896
  30.8907924  69.5446331  78.1079757  30.4370251  68.7037241  78.1644947
  30.2601890  70.1807730  78.4454537  29.8340843  60.4738317  79.3380424
  29.0963600  59.9615704  79.6690667  30.0867617  60.0338699  78.5263701
  29.3340863  71.3822828  79.0429575  29.6263837  71.9427885  78.3241940
  29.8439484  71.6751389  79.7982734  29.9352471  53.2514569  79.9322193
  30.2411347  52.3911933  79.6448108  30.6605075  53.8432189  79.7321187
  24.2073550  63.5468362  80.4398384  24.2622160  62.5942199  80.3640861
  23.3964752  63.7027801  80.9239683  25.3564744  67.4748485  71.6776668
  24.9184174  66.7584344  71.2182305  26.0975185  67.7024600  71.1161759
  22.1465910  62.1645422  78.1988763  21.3333776  62.4639593  78.6053955
  22.6424904  61.7701111  78.9163245  33.4737859  65.7505682  77.7352986
  33.3355757  65.9407278  76.8074175  33.1174078  66.5125065  78.1921037
  18.7223052  63.1809290  76.0044743  17.7920640  63.1193745  76.2214705
  18.8180524  62.6585243  75.2081385  18.6408601  59.7064103  78.5922985
  18.9015419  60.6209436  78.4832145  19.4625774  59.2388545  78.7419598
  25.5859717  74.7104327  74.9508364  25.7611473  74.2392370  75.7653987
  24.8992505  75.3370093  75.1789625  29.4775972  66.3332867  71.2708725
  28.8605142  65.6079695  71.1741778  29.0092460  67.0942227  70.9275799
  21.2674518  60.5518291  70.3930029  20.3903984  60.4307092  70.0292276
  21.7432271  59.7604370  70.1408918  27.7635094  58.7139211  80.2826755
  28.2603793  57.9609174  79.9627826  26.9922075  58.7503528  79.7169965
  28.8464874  67.4710898  77.8565179  27.9121153  67.5912361  77.6869883
  29.0241543  66.5683365  77.5925189  24.3470063  60.8556594  80.0098440
  23.9767850  60.3027635  80.6979346  24.8429155  60.2514728  79.4573440
  32.2337426  63.3128218  78.3915213  32.6997878  64.1456209  78.3175516
  32.6844926  62.8473199  79.0960471  30.3013657  69.6572039  75.3901365
  30.5773501  69.5428634  76.2995239  29.4318156  69.2589524  75.3513538
  30.2054089  55.6808805  82.4306114  29.2917168  55.9113032  82.5988321
  30.6347190  55.7647249  83.2820147  27.2709886  72.8326575  76.2949227
  27.7997653  72.3219030  75.6819389  27.5338106  72.5169105  77.1594760
  15.9953211  62.1460147  75.8342935  16.2906653  61.2370825  75.7809989
  15.0941247  62.1247886  75.5123937  17.7241053  59.8274244  75.9582260
  17.3953759  58.9471623  75.7757366  18.0780424  59.7721913  76.8458649
  20.8382876  60.1147214  76.3257738  21.1778949  60.6433135  75.6036346
  21.2854997  60.4527620  77.1016304  24.1842789  55.5833577  84.2288129
  25.0068858  55.1094055  84.1067019  24.4280852  56.3624061  84.7286815
  22.8251023  58.6121836  74.5251031  23.5459386  58.9903088  74.0214748
  22.2016327  59.3310712  74.6286009  26.9682146  59.3166985  75.4609363
  27.1845761  60.1991623  75.1598191  26.4876213  58.9253198  74.7315005
  23.5677750  59.2655246  82.0860997  23.5539319  58.3696339  81.7493295
  24.2850179  59.2725910  82.7199283  25.4203881  59.6992586  84.1314125
  25.1621659  60.6209657  84.1298455  24.8888922  59.3023021  84.8214589
  30.3650070  72.8043373  76.9104210  30.5386947  72.2389796  76.1578062
  30.8578961  73.6044268  76.7283700  22.9714646  58.1469626  77.3548567
  23.0930558  57.2186272  77.5539455  22.6816689  58.1608312  76.4426883
  25.8405837  55.8324537  80.4915287  25.8627534  55.8963870  79.5367267
  26.2573896  54.9929045  80.6855793  36.2189461  65.5679796  78.5294510
  36.6620607  64.8187121  78.1313633  35.3415971  65.5589932  78.1468242
  31.3525242  72.1210138  74.0101108  32.0476147  72.7416830  74.2288423
  31.6948393  71.2705489  74.2853486  33.2516666  69.5709843  75.5388439
  33.7767990  69.9097116  74.8137759  33.1639018  68.6356858  75.3551574
  21.9444705  69.7323759  75.4464454  22.0932826  70.4159223  74.7931127
  22.7511149  69.7128849  75.9613910  19.6997338  65.7588936  76.4525523
  19.4543380  64.8551266  76.6505733  19.8693253  65.7606087  75.5105001
  27.3894048  56.6312613  85.8350279  27.9075992  57.3673640  85.5096768
  27.0349181  56.9376606  86.6697038  18.9692986  61.4917294  73.9511685
  18.2762231  61.5661649  73.2951721  18.7244738  60.7277638  74.4733202
  27.6406642  53.0512895  81.3551176  27.9208396  52.3836084  81.9811602
  28.4257249  53.2441991  80.8425839  25.4440111  72.2271889  72.9176202
  24.8714078  72.8462076  72.4646674  26.0172905  72.7771251  73.4516124
  29.5329880  58.5586113  85.2882152  28.9379812  58.8391125  84.5928640
  29.2479577  59.0480014  86.0598893  28.6637371  72.5109039  74.0484784
  29.5968044  72.4454601  74.2517660  28.5760584  73.3465306  73.5899317
  31.2925387  71.8274910  71.0088732  31.2139019  71.4934773  71.9024490
  32.1135054  72.3196678  71.0080204  25.8286909  63.5632702  70.2592254
  26.7746014  63.4338910  70.3280672  25.4501154  62.8247364  70.7361683
  31.8008794  55.2288708  80.2219146  31.6033615  54.9203796  81.1062478
  32.4108500  55.9550347  80.3517076  24.0129827  61.4882678  70.1947140
  23.1061282  61.1915791  70.2709853  24.2905808  61.1912496  69.3281426
  25.6291892  56.0319568  76.3491381  24.8192621  55.6866653  76.7246627
  26.3176309  55.7227112  76.9378992  27.5582441  55.1097615  77.9715678
  28.1113479  55.5293068  78.6305701  27.7952527  54.1833363  78.0138634
  22.7828611  58.3469614  70.3359119  23.6447775  58.6724512  70.5954936
  22.9678955  57.5601110  69.8232185  30.9361248  57.2198140  77.4794342
  30.3559917  57.8782944  77.0972394  30.6697180  56.3975485  77.0681759
  29.3864814  56.6203198  79.6815662  29.8864592  56.7319732  78.8729981
  30.0300422  56.3164251  80.3216471  29.7186126  59.3798230  76.5350690
  28.8311981  59.6647881  76.3170885  30.1340115  59.2191994  75.6877967
  33.0700662  59.4044751  80.2505029  33.8461052  59.8941204  80.5229646
  32.3448796  59.8302806  80.7076899  35.5073220  60.1172371  81.3078970
  36.1017711  59.8768107  80.5972278  35.5799804  59.3979501  81.9352506
  28.8629339  69.1442905  70.6298710  29.5665189  69.3492908  71.2456366
  28.1391988  69.7119667  70.8947794  29.6927149  64.8952766  76.7500980
  29.6362351  65.3521318  75.9108613  30.2455492  64.1343451  76.5723823
  33.5031955  60.6842498  77.5751100  33.2468890  60.2839134  78.4059307
  32.8784823  61.3986292  77.4501239  37.8144293  63.4238572  80.0822391
  37.2543851  63.4931761  80.8553953  37.2087797  63.2479556  79.3621887
  30.7716037  69.5825434  72.6797170  31.6061640  69.1506633  72.4974645
  30.6100379  69.4107448  73.6074065  30.4261929  66.0857548  74.0453509
  30.3710733  65.9201819  73.1041953  29.8007984  66.7933581  74.2015699
  23.7358054  55.5865657  73.6238828  23.7236724  56.5307497  73.7807099
  24.6281476  55.4035802  73.3298289  27.5510174  52.1808433  77.8784765
  26.7842569  51.6266920  78.0241447  27.9620879  52.2530302  78.7398916
  33.9098297  78.8210761  72.0430812  34.1623818  78.2992282  71.2814275
  32.9722856  78.6576906  72.1457495  35.6131614  75.2138914  72.9463224
  35.7806016  76.0819150  73.3133695  35.4228783  75.3766195  72.0224514
  32.2329892  76.0362982  73.1932123  31.3967204  76.3737668  73.5141397
  32.0934662  75.9011961  72.2559260  34.2082972  70.8799769  77.9011307
  33.5547385  70.5648787  77.2767922  34.1663447  70.2575510  78.6271130
  35.3194177  81.1619065  69.8164599  34.4121239  80.9308318  70.0155748
  35.8165209  80.3656684  70.0038580  29.5616807  78.5101207  76.0044743
  28.6314395  78.4485663  76.2214705  29.6574279  77.9877160  75.2081385
  32.1068272  75.8810209  70.3930029  31.2297738  75.7599010  70.0292276
  32.5826025  75.0896287  70.1408918  26.8346966  77.4752064  75.8342935
  27.1300407  76.5662743  75.7809989  25.9335002  77.4539804  75.5123937
  28.5634808  75.1566162  75.9582260  28.2347514  74.2763541  75.7757366
  28.9174178  75.1013831  76.8458649  33.6644778  73.9413753  74.5251031
  34.3853140  74.3195006  74.0214748  33.0410082  74.6602630  74.6286009
  33.8108401  73.4761544  77.3548567  33.9324312  72.5478190  77.5539455
  33.5210443  73.4900230  76.4426883  29.8086740  76.8209212  73.9511685
  29.1155985  76.8953567  73.2951721  29.5638492  76.0569555  74.4733202
  36.6680664  78.8924620  70.2592254  37.6139769  78.7630828  70.3280672
  36.2894909  78.1539282  70.7361683  34.8523581  76.8174596  70.1947140
  33.9455036  76.5207709  70.2709853  35.1299562  76.5204414  69.3281426
  36.4685647  71.3611486  76.3491381  35.6586375  71.0158571  76.7246627
  37.1570064  71.0519030  76.9378992  33.6222366  73.6761531  70.3359119
  34.4841530  74.0016430  70.5954936  33.8072710  72.8893027  69.8232185
  34.5751809  70.9157574  73.6238828  34.5630479  71.8599414  73.7807099
  35.4675231  70.7327720  73.3298289  38.3903928  67.5100351  77.8784765
  37.6236324  66.9558838  78.0241447  38.8014633  67.5822220  78.7398916
   5.1295130  16.5915327  60.7370534   4.4783110  17.1769408  60.3504548
   5.9239493  17.1221522  60.7965571  11.3961854  13.0840263  61.9975371
  10.6191297  12.7451423  61.5530533  12.0753335  13.0892886  61.3230336
   2.8012915  12.1805434  56.5409906   1.8939977  11.9494688  56.7401055
   3.2983947  11.3843053  56.7283887   5.7080994  20.8902941  59.4606592
   5.0342693  21.1934638  60.0691550   6.0946816  21.6932022  59.1112049
   3.6777236  13.8226773  58.4021974   3.2396666  13.1062632  57.9427612
   4.4187677  14.0502888  57.8407066   3.9072209  21.0582614  61.6753671
   4.0823965  20.5870657  62.4899294   3.2204997  21.6848380  61.9034932
   7.7988464  12.6811154  57.9954032   7.1817635  11.9557982  57.8987084
   7.3304952  13.4420515  57.6521106   8.6226149  16.0050326  62.1146672
   8.8985993  15.8906921  63.0240546   7.7530648  15.6067811  62.0758845
   5.5922379  19.1804862  63.0194534   6.1210145  18.6697317  62.4064696
   5.8550598  18.8647392  63.8840067   8.6862562  19.1521660  63.6349517
   8.8599440  18.5868083  62.8823369   9.1791453  19.9522555  63.4529007
   9.6737735  18.4688425  60.7346415  10.3688639  19.0895118  60.9533730
  10.0160885  17.6183776  61.0098793  11.5729158  15.9188130  62.2633746
  12.0980482  16.2575403  61.5383066  11.4851510  14.9835146  62.0796880
   3.7652603  18.5750177  59.6421508   3.1926570  19.1940364  59.1891980
   4.3385397  19.1249538  60.1761430   6.9849863  18.8587327  60.7730091
   7.9180536  18.7932888  60.9762966   6.8973076  19.6943593  60.3144623
   9.6137880  18.1753197  57.7334038   9.5351511  17.8413061  58.6269796
  10.4347546  18.6674965  57.7325511   7.1841831  15.4921192  57.3544017
   7.8877682  15.6971195  57.9701672   6.4604480  16.0597954  57.6193100
   9.0928529  15.9303722  59.4042477   9.9274133  15.4984920  59.2219952
   8.9312872  15.7585735  60.3319371   8.7474421  12.4335835  60.7698816
   8.6923225  12.2680106  59.8287260   8.1220476  13.1411868  60.9261006
  17.7212804  26.4473373  69.4997653  18.3591214  26.3280120  68.7960994
  17.6033647  27.3954217  69.5585606  14.5302510  26.4000801  69.4359178
  14.1921022  26.2841866  68.5479713  15.3992278  25.9991966  69.4160184
  10.3889326  28.2536277  65.4256069   9.8254191  28.1626214  64.6572357
  10.2741721  27.4336182  65.9058562   7.9353758  29.7487469  68.2640290
   8.7275050  29.4078293  67.8486589   8.1750408  29.8582444  69.1842443
  15.9688885  31.9207245  60.7370534  15.3176864  32.5061325  60.3504548
  16.7633247  32.4513440  60.7965571   9.8944512  29.0096382  61.1357668
  10.6675388  28.4625369  60.9970544  10.2469911  29.8740631  61.3472130
  12.6585761  27.7149613  70.9325927  13.2549333  27.4905635  70.2182890
  12.7160733  26.9734358  71.5351375  12.2310790  25.1689048  58.7676118
  12.4836310  24.6470569  58.0059581  11.2935349  25.0055194  58.8702802
  17.2754072  24.1724827  66.5750861  18.0617162  23.7544250  66.2241279
  17.5392777  25.0770919  66.7432510  17.4464150  29.6097677  61.2739518
  16.8109983  29.6832303  61.9860423  17.1161556  30.1991276  60.5958598
  22.6762500  24.1100060  67.4783840  23.4087671  23.5399277  67.7121669
  21.9201855  23.7221660  67.9190346  11.9507078  27.0717154  60.9700493
  11.8343336  26.3962058  61.6381578  12.0609338  26.5849528  60.1532646
  14.2938619  26.5327301  64.6747182  13.9296826  26.0057922  65.3860104
  15.1505735  26.1425770  64.5013668  13.9344106  21.5617201  59.6708531
  14.1018509  22.4297437  60.0379002  13.7441275  21.7244483  58.7469820
  16.6919439  30.0234180  71.3374361  16.3920162  30.9259219  71.2290169
  16.3470499  29.7566363  72.1895514  10.1431921  26.4747977  67.3711066
   9.2182417  26.3424191  67.5788758  10.3916334  27.2542196  67.8681008
  20.0916583  22.5416720  69.0171799  19.1833461  22.4732128  68.7230560
  20.0404179  23.0188665  69.8453624  13.9133327  24.0174858  60.6555198
  13.7932952  24.4631909  61.4940678  13.2185915  24.3660176  60.0968736
   7.5040732  26.1181250  68.2054855   7.6333113  26.3715729  69.1194267
   6.8238183  26.7108958  67.8859510  11.6740219  36.7878500  64.3045329
  11.5964249  37.7386325  64.3833810  11.0701863  36.4424373  64.9620255
  21.9578230  20.7433158  70.7949673  21.3152610  21.0365692  70.1489467
  21.4533158  20.6286079  71.6002869  19.6118393  24.4896332  61.4835532
  20.5236249  24.7223718  61.3083229  19.1028040  25.0733376  60.9210610
  18.2187976  29.4722150  68.8749113  17.5896838  29.6367864  68.1725181
  17.8313638  29.8863760  69.6460077  22.0977207  30.4076588  66.2293477
  21.4128246  30.7875489  65.6790510  22.1821057  31.0171915  66.9625425
  19.3528139  28.0536547  72.8288821  19.5645034  28.6968307  72.1523202
  19.3057887  27.2198864  72.3610751  13.7715937  29.2096558  66.1399198
  14.2354283  29.4884261  65.3503821  13.5072736  28.3080003  65.9572289
  10.6640019  28.7568040  69.0778962  11.2341376  29.1855308  68.4396446
  11.2548130  28.4750624  69.7763147  12.7084824  25.3319711  62.9488764
  13.4108867  25.7840754  63.4162690  12.3765452  24.6903529  63.5768657
  20.4673967  30.9308502  71.0011178  21.2891411  30.5288690  70.7193860
  20.4636370  30.8276737  71.9527294   8.4024903  23.9547842  65.2089374
   7.6056066  24.0666537  65.7272869   8.1750495  24.2934495  64.3430264
  14.2330570  30.4792546  73.1571888  14.2975003  30.9412953  73.9930060
  13.5241494  29.8489911  73.2854198  28.5579960  27.2747251  67.3496149
  27.8043668  26.7054649  67.1940154  28.6927501  27.2409915  68.2966784
  13.9478588  32.1460653  63.0250869  13.8124263  32.9912189  63.4535717
  14.4888401  32.3479931  62.2616803   7.4007986  29.6636091  63.5978794
   7.9132506  30.4579341  63.7484359   8.0530698  28.9662382  63.5312395
   9.2102870  32.7801847  65.6801547   9.3869499  33.7019812  65.4922531
  10.0059704  32.4660267  66.1095927  10.3334186  34.2980021  71.6811889
  10.8841611  34.1697085  70.9088883   9.4945662  34.5974910  71.3306782
  17.6728303  33.0487020  75.1832612  17.6546778  33.8695901  74.6912881
  18.5948223  32.9241095  75.4082753   5.3656902  27.9924745  64.3738364
   6.2032124  28.4021754  64.1572072   5.5435170  27.0524188  64.3438558
  17.2621334  25.6599826  60.0622197  16.7467958  26.4304431  60.3010585
  16.9898643  24.9864962  60.6855259  14.8468445  20.5049527  65.1207436
  13.9910042  20.1156377  64.9413074  15.2595397  20.5841488  64.2607221
  22.2355609  28.4132181  61.9975371  21.4585051  28.0743340  61.5530533
  22.9147090  28.4184804  61.3230336  17.0507638  23.5326918  61.8881979
  16.7457773  23.8473067  62.7392122  18.0038080  23.6108338  61.9309312
  15.4954069  29.6917142  63.5374932  14.9675431  28.9569901  63.2248170
  14.9941572  30.4691818  63.2914901  20.4746915  27.8866162  68.6541979
  19.8170590  28.5765423  68.7422107  21.2787315  28.2762594  68.9975965
  10.2272797  20.3536808  65.8981544  10.8016549  20.1311989  65.1654737
  10.8143779  20.4225502  66.6510145  19.2852374  26.2410535  66.7045921
  19.7984256  26.8740527  67.2067630  19.9353598  25.6411730  66.3389281
  10.5542384  22.3841269  59.9177429   9.7179696  22.7215955  60.2386704
  10.4147154  22.2490249  58.9804566  12.5295465  17.2278057  64.6256613
  11.8759877  16.9127074  64.0013228  12.4875939  16.6053797  65.3516436
  13.6406670  27.5097352  56.5409906  12.7333731  27.2786605  56.7401055
  14.1377702  26.7134971  56.7283887  16.5474748  36.2194859  59.4606592
  15.8736447  36.5226556  60.0691550  16.9340570  37.0223939  59.1112049
  15.7633205  23.7159990  68.9504261  14.8455766  23.9374937  68.7925949
  16.1793349  23.7906301  68.0915968  16.5468253  25.1151406  64.0806941
  17.2940072  25.6272803  63.7714063  16.8159842  24.7935459  64.9411335
  14.8194903  27.6109947  61.0633896  13.9106122  27.3268980  61.1606365
  14.8489987  28.0309025  60.2037202  20.0514170  31.2216536  64.8325063
  19.5976498  30.3807446  64.8890254  19.4208137  31.8577935  65.1699843
  18.9947090  22.1508522  66.0625731  18.2569847  21.6385908  66.3935973
  19.2473864  21.7108904  65.2509008  18.4947110  33.0593033  65.7674881
  18.7870084  33.6198090  65.0487247  19.0045730  33.3521594  66.5228040
  19.0958717  14.9284774  66.6567500  19.4017594  14.0682138  66.3693415
  19.8211322  15.5202394  66.4566494   5.3883073  25.3315461  65.0449098
   5.1907473  24.7384822  64.3200164   4.8329737  25.0267671  65.7625037
  13.3679797  25.2238567  67.1643691  13.4228407  24.2712404  67.0886168
  12.5570999  25.3798006  67.6484989  14.5170991  29.1518690  58.4021974
  14.0790421  28.4354549  57.9427612  15.2581432  29.3794805  57.8407066
  11.3072157  23.8415627  64.9234070  10.4940023  24.1409798  65.3299262
  11.8031151  23.4471316  65.6408552  13.4580735  33.8373384  66.8568335
  13.4156914  34.0634230  65.9276867  14.3743434  33.6036759  67.0054136
  22.6344106  27.4275887  64.4598293  22.4962004  27.6177483  63.5319482
  22.2780324  28.1895270  64.9166344  22.6613485  29.4952414  69.4709564
  23.0949992  29.4027703  70.3192618  23.3745066  29.4709915  68.8329580
  11.5746536  30.7136413  66.6530297  12.3687134  30.2186733  66.4512872
  10.8638228  30.1854276  66.2898003  16.3941380  33.0954509  71.0042665
  16.4478402  33.6645445  71.7720381  15.5256162  33.2656394  70.6396702
   7.8829299  24.8579495  62.7290050   6.9526887  24.7963950  62.9460012
   7.9786771  24.3355447  61.9326691   7.8014848  21.3834308  65.3168292
   8.0621665  22.2979641  65.2077452   8.6232021  20.9158750  65.4664904
  23.5229035  29.5376115  72.0042450  23.7164925  30.4421926  72.2501725
  23.4229653  29.0783534  72.8381035  15.3529480  27.2614771  72.5629597
  16.2821540  27.4125930  72.3898564  14.9320510  27.3498791  71.7078243
  14.1517812  31.2865435  70.3328134  14.0128897  30.9184219  71.2054072
  13.3632408  31.8013074  70.1612092  14.7465964  36.3874531  61.6753671
  14.9217719  35.9162575  62.4899294  14.0598752  37.0140298  61.9034932
  15.7023027  30.6647038  67.7216972  15.3672859  30.6247808  68.6174622
  15.2026972  29.9991754  67.2487382  18.6382218  28.0103072  57.9954032
  18.0211389  27.2849900  57.8987084  18.1698707  28.7712432  57.6521106
  20.2936350  32.7201980  75.6559812  20.2348896  32.0361200  74.9890395
  20.6955869  33.4620970  75.2040438   9.3127049  39.5363894  68.4493531
   9.5523647  40.1682418  69.1272550   8.4696245  39.1851934  68.7358890
  10.4280764  22.2288496  57.1175336   9.5510231  22.1077297  56.7537583
  10.9038517  21.4374575  56.8654225  20.2953757  30.6841564  73.8873792
  19.4080536  30.3467486  74.0100191  20.8652308  29.9524596  74.1242557
   1.9482905  27.0165656  67.2116843   2.6353944  26.7027386  66.6237859
   1.7931033  27.9207021  66.9384095  13.8254911  35.3443017  70.8535035
  13.7525082  36.1497988  71.3654340  13.3832304  35.5434982  70.0283056
  13.6144690  34.5814787  64.3637857  12.8312212  35.1236467  64.4576081
  14.3137436  35.0988766  64.7632098  16.9241341  20.3909416  67.0072062
  17.4210040  19.6379378  66.6873132  16.1528322  20.4273733  66.4415271
  24.7771098  26.0949782  68.6490353  24.7660974  26.9774497  68.2784287
  23.9088477  25.7421332  68.4544891  16.2853594  35.2429851  73.0093194
  16.9981567  35.8777315  72.9369095  15.7943623  35.3393717  72.1933196
  18.0071121  29.1481103  64.5810485  17.0727400  29.2682566  64.4115190
  18.1847790  28.2453570  64.3170495  13.5076309  22.5326799  66.7343747
  13.1374097  21.9797839  67.4224652  14.0035402  21.9284933  66.1818747
  21.3943673  24.9898423  65.1160520  21.8604125  25.8226414  65.0420822
  21.8451173  24.5243404  65.8205778  11.3365508  32.9924294  73.8298765
  12.0374967  33.6260777  73.9828159  10.8660623  33.3339026  73.0694404
  19.4619904  31.3342244  62.1146672  19.7379748  31.2198838  63.0240546
  18.5924402  30.9359729  62.0758845  19.1366794  25.5468902  71.6551315
  18.4838244  25.7944809  71.0003768  19.5147174  24.7333040  71.3213792
  16.0973968  35.5828595  65.7579485  16.2796362  34.7650251  66.2207237
  16.9206954  35.7996287  65.3204375  16.4316133  34.5096780  63.0194534
  16.9603900  33.9989234  62.4064696  16.6944353  34.1939310  63.8840067
   6.9333226  32.5260649  70.7629867   7.5186663  31.7804337  70.8957771
   6.7358064  32.8364606  71.6466531   9.7871881  35.5611897  65.7792310
   9.1182256  36.0458024  65.2956350   9.6484751  35.8081117  66.6935688
  13.9277150  37.5955640  72.3774968  14.4795458  37.7587262  73.1424053
  14.2683343  38.1860078  71.7054993   5.1559458  23.8230352  62.5588242
   5.4512899  22.9141030  62.5055295   4.2547494  23.8018091  62.2369244
  17.0645537  35.5437616  69.3638650  16.9396676  34.7427355  68.8549596
  17.7224628  36.0383809  68.8752620  19.1280445  33.3446636  70.9918200
  18.1810781  33.2251987  70.9196527  19.4763218  32.4569134  71.0744462
   6.8847300  21.5044449  62.6827567   6.5560006  20.6241828  62.5002673
   7.2386670  21.4492118  63.5703956  16.1326879  33.1399352  67.1922552
  15.9851841  32.2116059  67.3730122  16.9580372  33.1619443  66.7079628
   9.9989123  21.7917419  63.0503045  10.3385195  22.3203340  62.3281653
  10.4461243  22.1297825  63.8261611  19.7361001  33.9627911  68.2787425
  20.6607548  33.7570772  68.1411876  19.5676304  33.7144312  69.1876767
  11.9857270  20.2892041  61.2496337  12.7065633  20.6673293  60.7460054
  11.3622574  21.0080917  61.3531315  16.1288393  20.9937190  62.1854670
  16.3452007  21.8761827  61.8843498  15.6482460  20.6023403  61.4560312
  19.5256317  34.4813578  63.6349517  19.6993194  33.9160001  62.8823369
  20.0185208  35.2814473  63.4529007  12.1320893  19.8239831  64.0793874
  12.2536804  18.8956477  64.2784761  11.8422936  19.8378517  63.1672189
  25.3795708  27.2450001  65.2539816  25.8226854  26.4957326  64.8558940
  24.5022218  27.2360137  64.8713548  20.5131489  33.7980343  60.7346415
  21.2082394  34.4187035  60.9533730  20.8554639  32.9475694  61.0098793
  22.4122912  31.2480048  62.2633746  22.9374236  31.5867321  61.5383066
  22.3245265  30.3127063  62.0796880  14.0742961  35.1614122  74.3923622
  14.3830087  34.9163268  75.2646322  14.8718443  35.3660760  73.9042493
  14.0963573  37.3152031  66.6228999  13.6568563  36.8228410  67.3161856
  14.8471690  36.7724999  66.3821074   6.5755912  33.5063572  66.6253627
   7.4013932  33.2067344  66.2452270   6.2249964  32.7371195  67.0743416
  11.5437445  32.8590040  68.6951301  10.9217455  32.1960745  68.3953528
  12.2142312  32.8851172  68.0124948   4.7764517  31.4249899  67.5842561
   3.9396425  30.9972073  67.4026562   4.7488163  31.6182342  68.5213352
  22.1016818  31.8812952  77.5684944  21.3112362  31.8637091  77.0289443
  21.8650173  32.4201245  78.3233980  22.2214693  28.7305418  74.8817672
  22.2712698  28.5655425  75.8233195  22.1128617  27.8632677  74.4915553
  11.1050952  31.4093964  62.1709761  11.2539073  32.0929428  61.5176434
  11.9117396  31.3899054  62.6859217  23.7232890  31.1502360  75.1259694
  23.4317699  31.5132340  75.9623155  23.1105022  30.4369368  74.9473026
  24.9228573  28.7155239  67.6462264  25.7575464  29.1545043  67.8099824
  25.0587701  28.2393893  66.8270510  21.9720079  26.2734974  73.5939752
  22.4474200  26.4662621  72.7858603  21.0485644  26.3294160  73.3483135
   8.8603585  27.4359141  63.1770830   8.6149627  26.5321471  63.3751040
   9.0299500  27.4376292  62.2350308   8.1299233  23.1687499  60.6756991
   7.4368478  23.2431854  60.0197027   7.8850985  22.4047843  61.1978508
  14.6046358  33.9042094  59.6421508  14.0320325  34.5232281  59.1891980
  15.1779151  34.4541456  60.1761430  20.6721748  23.1500734  71.8268057
  21.6239170  23.2498832  71.8480281  20.5025198  22.3579003  72.3366142
  17.8243617  34.1879244  60.7730091  18.7574291  34.1224806  60.9762966
  17.7366830  35.0235511  60.3144623  20.4531634  33.5045115  57.7334038
  20.3745266  33.1704978  58.6269796  21.2741301  33.9966883  57.7325511
  23.1509825  26.3706854  70.9410357  23.1186145  25.4322855  71.1270041
  23.7610449  26.4490891  70.2076182  14.9893156  25.2402907  56.9837561
  15.9352261  25.1109115  57.0525979  14.6107401  24.5017569  57.4606989
  23.3004314  23.1617897  70.9868640  22.7843362  22.3776354  70.7998569
  24.1844262  22.8336614  71.1515160  20.9615041  16.9058913  66.9464453
  20.7639862  16.5974001  67.8307785  21.5714746  17.6320552  67.0762383
  28.9686375  27.4322861  70.0816394  29.6989764  27.1708149  70.6424097
  28.3593321  26.6951583  70.1218462  27.0501672  25.5730723  70.6790845
  26.3234836  25.4386688  70.0707337  26.6348959  25.8807552  71.4847563
  13.1736073  23.1652883  56.9192446  12.2667529  22.8685996  56.9955160
  13.4512054  22.8682701  56.0526732  14.7898139  17.7089773  63.0736688
  13.9798867  17.3636858  63.4491934  15.4782556  17.3997317  63.6624299
  16.7188687  16.7867820  64.6960984  17.2719726  17.2063273  65.3551007
  16.9558774  15.8603568  64.7383940  11.9434858  20.0239819  57.0604425
  12.8054022  20.3494717  57.3200243  12.1285202  19.2371314  56.5477491
  20.0967494  18.8968345  64.2039648  19.5166163  19.5553149  63.8217701
  19.8303427  18.0745690  63.7927066  18.5471061  18.2973403  66.4060969
  19.0470839  18.4089937  65.5975288  19.1906669  17.9934456  67.0461777
   5.8739016  28.0380412  67.2150629   5.8509704  28.1368099  66.2632512
   6.1839653  28.8845563  67.5367795  18.8792372  21.0568435  63.2595997
  17.9918227  21.3418086  63.0416191  19.2946362  20.8962199  62.4123274
  22.2306909  21.0814956  66.9750336  23.0067299  21.5711409  67.2474953
  21.5055043  21.5073011  67.4322205  24.6679467  21.7942576  68.0324277
  25.2623958  21.5538312  67.3217585  24.7406051  21.0749706  68.6597813
   6.8876623  35.6376187  68.3467441   6.7531091  34.8776587  67.7805439
   6.4708685  36.3617086  67.8796230  18.0235586  30.8213110  57.3544017
  18.7271436  31.0263113  57.9701672  17.2998235  31.3889872  57.6193100
  18.8533396  26.5722971  63.4746287  18.7968598  27.0291523  62.6353919
  19.4061739  25.8113656  63.2969130  22.6638202  22.3612703  64.2996406
  22.4075136  21.9609339  65.1304614  22.0391070  23.0756497  64.1746545
  26.9750540  25.1008776  66.8067698  26.4150098  25.1701966  67.5799260
  26.3694043  24.9249761  66.0867194  10.0445749  36.5345504  68.5585884
   9.9278133  37.4790936  68.4564574   9.2238195  36.2319065  68.9471683
  19.9322283  31.2595639  59.4042477  20.7667887  30.8276838  59.2219952
  19.7706626  31.0877653  60.3319371  19.5868175  27.7627753  60.7698816
  19.5316979  27.5972024  59.8287260  18.9614231  28.4703785  60.9261006
  12.8964301  17.2635862  60.3484134  12.8842971  18.2077701  60.5052405
  13.7887723  17.0806007  60.0543596  11.0700263  37.1873765  71.7741812
  11.9727510  37.2197376  72.0908307  10.8437633  36.2574216  71.7888148
  12.8253865  35.9404752  68.4351891  11.8749496  35.9406614  68.3216263
  13.1286351  35.1937487  67.9187926  16.7116420  13.8578638  64.6030071
  15.9448816  13.3037125  64.7486754  17.1227125  13.9300507  65.4644223
  28.5606558  41.7765290  69.4997653  29.1984968  41.6572038  68.7960994
  28.4427401  42.7246134  69.5585606  25.3696265  41.7292718  69.4359178
  25.0314776  41.6133783  68.5479713  26.2386033  41.3283884  69.4160184
  21.2283080  43.5828195  65.4256069  20.6647946  43.4918132  64.6572357
  21.1135475  42.7628099  65.9058562  25.8516048  42.8827570  75.3945384
  25.8404688  42.4880368  74.5225887  26.0136687  42.1493643  75.9879155
  18.7747512  45.0779386  68.2640290  19.5668804  44.7370211  67.8486589
  19.0144162  45.1874362  69.1842443  26.8082639  47.2499163  60.7370534
  26.1570619  47.8353243  60.3504548  27.6027002  47.7805358  60.7965571
  20.7338266  44.3388300  61.1357668  21.5069142  43.7917287  60.9970544
  21.0863665  45.2032549  61.3472130  22.5723309  45.6664682  74.3424568
  22.2813175  46.5710313  74.2271234  23.2080293  45.7081210  75.0568637
  23.4979516  43.0441531  70.9325927  24.0943088  42.8197553  70.2182890
  23.5554487  42.3026276  71.5351375  23.0704544  40.4980966  58.7676118
  23.3230065  39.9762487  58.0059581  22.1329103  40.3347111  58.8702802
  28.1147827  39.5016744  66.5750861  28.9010916  39.0836167  66.2241279
  28.3786531  40.4062836  66.7432510  28.2857904  44.9389595  61.2739518
  27.6503737  45.0124221  61.9860423  27.9555311  45.5283193  60.5958598
  33.5156254  39.4391977  67.4783840  34.2481426  38.8691194  67.7121669
  32.7595610  39.0513578  67.9190346  22.7900833  42.4009072  60.9700493
  22.6737091  41.7253975  61.6381578  22.9003093  41.9141446  60.1532646
  25.1332374  41.8619219  64.6747182  24.7690581  41.3349840  65.3860104
  25.9899490  41.4717688  64.5013668  31.0381674  33.1513552  71.9378449
  30.7064999  34.0208962  71.7139664  30.4427288  32.8349836  72.6172479
  27.5313194  45.3526098  71.3374361  27.2313917  46.2551136  71.2290169
  27.1864253  45.0858281  72.1895514  20.9825675  41.8039894  67.3711066
  20.0576172  41.6716108  67.5788758  21.2310089  42.5834114  67.8681008
  30.9310338  37.8708638  69.0171799  30.0227215  37.8024046  68.7230560
  30.8797933  38.3480583  69.8453624  24.7527082  39.3466776  60.6555198
  24.6326707  39.7923827  61.4940678  24.0579670  39.6952094  60.0968736
  18.3434486  41.4473168  68.2054855  18.4726868  41.7007647  69.1194267
  17.6631938  42.0400876  67.8859510  22.5133974  52.1170418  64.3045329
  22.4358003  53.0678243  64.3833810  21.9095617  51.7716290  64.9620255
  25.0051203  39.2898283  76.9606696  24.2284538  39.8492203  76.9509561
  25.6441767  39.7755066  77.4821566  32.7971984  36.0725076  70.7949673
  32.1546364  36.3657609  70.1489467  32.2926913  35.9577996  71.6002869
  23.2597576  42.0983737  76.5224663  24.0012260  42.6368781  76.2459487
  22.5534561  42.7250025  76.6796215  28.7352915  44.2412877  75.1196824
  29.1436271  43.7995288  74.3751457  28.0130177  43.6665505  75.3731017
  25.0883985  39.1785484  72.4930381  25.9345181  39.6024897  72.6365030
  25.0282623  38.5219108  73.1868944  29.0581730  44.8014068  68.8749113
  28.4290593  44.9659782  68.1725181  28.6707392  45.2155677  69.6460077
  32.9370962  45.7368506  66.2293477  32.2522000  46.1167407  65.6790510
  33.0214811  46.3463832  66.9625425  28.2383431  36.8389852  74.1511555
  27.9944363  37.5931913  73.6145831  28.5143361  37.2175200  74.9858802
  30.1921894  43.3828465  72.8288821  30.4038789  44.0260225  72.1523202
  30.1451642  42.5490781  72.3610751  27.7948123  35.9946285  69.7325393
  26.9332602  36.2927539  70.0242130  27.8210557  36.2116684  68.8006425
  24.6109692  44.5388476  66.1399198  25.0748037  44.8176179  65.3503821
  24.3466490  43.6371920  65.9572289  21.5033773  44.0859957  69.0778962
  22.0735130  44.5147226  68.4396446  22.0941885  43.8042542  69.7763147
  23.5478578  40.6611628  62.9488764  24.2502621  41.1132672  63.4162690
  23.2159206  40.0195447  63.5768657  21.9958940  39.2523385  77.3239973
  21.3657600  39.9339666  77.5575370  21.8895027  39.1406466  76.3793111
  17.2903912  38.9195181  68.2505897  16.5002966  39.1752709  67.7746008
  17.7815159  39.7343519  68.3557938  31.3067722  46.2600420  71.0011178
  32.1285165  45.8580607  70.7193860  31.3030124  46.1568654  71.9527294
  19.2418657  39.2839760  65.2089374  18.4449821  39.3958454  65.7272869
  19.0144250  39.6226412  64.3430264  25.0724325  45.8084463  73.1571888
  25.1368757  46.2704871  73.9930060  24.3635249  45.1781828  73.2854198
  15.5741615  39.1725671  70.6820888  15.8249653  40.0572681  70.9478464
  16.1101163  38.9930273  69.9095980  39.3973715  42.6039169  67.3496149
  38.6437423  42.0346567  67.1940154  39.5321256  42.5701833  68.2966784
  24.7872343  47.4752571  63.0250869  24.6518017  48.3204107  63.4535717
  25.3282155  47.6771848  62.2616803  18.2401740  44.9928009  63.5978794
  18.7526261  45.7871259  63.7484359  18.8924453  44.2954299  63.5312395
  20.0496625  48.1093765  65.6801547  20.2263253  49.0311730  65.4922531
  20.8453458  47.7952184  66.1095927  24.1907643  34.9702030  77.2785481
  24.9317357  35.5709183  77.1989943  24.4225566  34.2279668  76.7203523
  19.3348981  40.1558397  75.5563710  19.2202496  39.2543654  75.8570809
  18.4793499  40.4022094  75.2048527  26.4140819  48.0976137  77.1551211
  25.9704673  47.3112516  76.8372115  27.0758033  48.2855288  76.4895102
  21.1727940  49.6271939  71.6811889  21.7235365  49.4989002  70.9088883
  20.3339416  49.9266828  71.3306782  28.5122057  48.3778937  75.1832612
  28.4940532  49.1987818  74.6912881  29.4341977  48.2533012  75.4082753
  24.9695111  45.8923067  76.0256120  25.5023448  45.1311355  75.7955428
  24.4409192  45.5996719  76.7680275  28.1364806  30.9983133  71.5549762
  27.7929076  31.8884774  71.4788873  28.5043769  30.8084790  70.6919347
  16.2050657  43.3216663  64.3738364  17.0425879  43.7313672  64.1572072
  16.3828924  42.3816105  64.3438558  25.6862200  35.8341445  65.1207436
  24.8303796  35.4448295  64.9413074  26.0989152  35.9133405  64.2607221
  27.2161347  33.3687788  69.5198995  26.7126142  33.3317923  68.7066801
  27.5091953  34.2780531  69.5795652  23.4604232  33.4526518  68.5265177
  24.3257229  33.2569326  68.1671067  23.5281741  33.2236869  69.4534534
  33.0749363  43.7424098  61.9975371  32.2978806  43.4035258  61.5530533
  33.7540844  43.7476722  61.3230336  26.3347824  45.0209059  63.5374932
  25.8069185  44.2861819  63.2248170  25.8335327  45.7983736  63.2914901
  31.3140670  43.2158080  68.6541979  30.6564344  43.9057341  68.7422107
  32.1181069  43.6054512  68.9975965  21.0666552  35.6828726  65.8981544
  21.6410303  35.4603907  65.1654737  21.6537534  35.7517420  66.6510145
  30.1246129  41.5702452  66.7045921  30.6378010  42.2032444  67.2067630
  30.7747353  40.9703648  66.3389281  21.3936139  37.7133187  59.9177429
  20.5573451  38.0507873  60.2386704  21.2540908  37.5782166  58.9804566
  23.3689219  32.5569974  64.6256613  22.7153632  32.2418992  64.0013228
  23.3269693  31.9345715  65.3516436  24.4800424  42.8389269  56.5409906
  23.5727486  42.6078523  56.7401055  24.9771456  42.0426889  56.7283887
  27.3868503  51.5486777  59.4606592  26.7130202  51.8518473  60.0691550
  27.7734325  52.3515857  59.1112049  26.6026960  39.0451908  68.9504261
  25.6849521  39.2666855  68.7925949  27.0187103  39.1198218  68.0915968
  27.3862007  40.4443324  64.0806941  28.1333826  40.9564721  63.7714063
  27.6553597  40.1227376  64.9411335  25.6588658  42.9401864  61.0633896
  24.7499877  42.6560897  61.1606365  25.6883741  43.3600943  60.2037202
  30.8907925  46.5508454  64.8325063  30.4370252  45.7099364  64.8890254
  30.2601892  47.1869852  65.1699843  29.8340845  37.4800440  66.0625731
  29.0963601  36.9677826  66.3935973  30.0867618  37.0400821  65.2509008
  29.3340864  48.3884951  65.7674881  29.6263839  48.9490008  65.0487247
  29.8439485  48.6813512  66.5228040  16.2276828  40.6607378  65.0449098
  16.0301228  40.0676739  64.3200164  15.6723492  40.3559589  65.7625037
  24.2073552  40.5530485  67.1643691  24.2622161  39.6004321  67.0886168
  23.3964754  40.7089924  67.6484989  25.3564745  44.4810608  58.4021974
  24.9184175  43.7646467  57.9427612  26.0975186  44.7086723  57.8407066
  22.1465911  39.1707545  64.9234070  21.3333777  39.4701715  65.3299262
  22.6424906  38.7763233  65.6408552  24.2974489  49.1665302  66.8568335
  24.2550668  49.3926148  65.9276867  25.2137188  48.9328676  67.0054136
  27.7440123  39.6349369  73.7548964  28.0989511  39.8620842  74.6143429
  28.3912254  39.9667746  73.1326219  33.4737860  42.7567805  64.4598293
  33.3355759  42.9469401  63.5319482  33.1174079  43.5187188  64.9166344
  21.6379986  36.7425900  70.5395305  22.2779366  36.6014659  69.8418268
  20.8057517  36.4560414  70.1633907  33.5007240  44.8244332  69.4709564
  33.9343746  44.7319621  70.3192618  34.2138820  44.8001833  68.8329580
  22.4140290  46.0428331  66.6530297  23.2080889  45.5478651  66.4512872
  21.7031983  45.5146194  66.2898003  27.2335135  48.4246426  71.0042665
  27.2872157  48.9937362  71.7720381  26.3649916  48.5948311  70.6396702
  18.7223054  40.1871412  62.7290050  17.7920642  40.1255868  62.9460012
  18.8180526  39.6647365  61.9326691  18.6408603  36.7126225  65.3168292
  18.9015420  37.6271558  65.2077452  19.4625775  36.2450668  65.4664904
  20.1133528  38.1263982  72.4867116  20.7856581  37.9181345  71.8379765
  19.2863315  37.9286068  72.0472348  34.3622789  44.8668033  72.0042450
  34.5558679  45.7713843  72.2501725  34.2623407  44.4075452  72.8381035
  26.0159100  34.7525923  74.5032777  25.3687015  35.4515873  74.4097253
  26.7860115  35.1862067  74.8709025  29.4237898  45.0174775  77.5783330
  29.2723404  44.7885327  76.6613414  29.4142577  45.9745377  77.5914675
  26.1923234  42.5906688  72.5629597  27.1215294  42.7417848  72.3898564
  25.7714264  42.6790709  71.7078243  24.9911566  46.6157353  70.3328134
  24.8522652  46.2476137  71.2054072  24.2026162  47.1304992  70.1612092
  25.5859718  51.7166449  61.6753671  25.7611474  51.2454492  62.4899294
  24.8992506  52.3432215  61.9034932  26.5416781  45.9938955  67.7216972
  26.2066614  45.9539725  68.6174622  26.0420727  45.3283671  67.2487382
  20.5161025  41.4006585  73.2469553  20.3780823  40.6686824  73.8481092
  21.4265949  41.3115485  72.9653741  23.1443326  41.1126545  72.7353233
  23.8542944  40.4719737  72.6939851  23.1012634  41.3639440  73.6579414
  31.1330105  48.0493898  75.6559812  31.0742651  47.3653118  74.9890395
  31.5349623  48.7912888  75.2040438  21.8572260  38.0991763  74.5548872
  21.3209617  37.6482501  75.2070469  21.2688968  38.2337671  73.8119337
  20.1520803  54.8655812  68.4493531  20.3917402  55.4974336  69.1272550
  19.3090000  54.5143852  68.7358890  31.1347512  46.0133482  73.8873792
  30.2474291  45.6759404  74.0100191  31.7046063  45.2816513  74.1242557
  12.7876659  42.3457574  67.2116843  13.4747699  42.0319304  66.6237859
  12.6324788  43.2498938  66.9384095  17.5911381  37.2347770  71.6401867
  17.5069570  36.6273440  70.9052277  16.7694088  37.7256789  71.6411363
  24.6648665  50.6734934  70.8535035  24.5918837  51.4789906  71.3654340
  24.2226058  50.8726900  70.0283056  24.4538445  49.9106704  64.3637857
  23.6705967  50.4528385  64.4576081  25.1531190  50.4280684  64.7632098
  27.7635095  35.7201334  67.0072062  28.2603795  34.9671296  66.6873132
  26.9922077  35.7565650  66.4415271  35.6164852  41.4241699  68.6490353
  35.6054729  42.3066415  68.2784287  34.7482232  41.0713250  68.4544891
  27.1247349  50.5721768  73.0093194  27.8375321  51.2069233  72.9369095
  26.6337377  50.6685634  72.1933196  28.8464876  44.4773021  64.5810485
  27.9121154  44.5974483  64.4115190  29.0241544  43.5745488  64.3170495
  24.3470064  37.8618717  66.7343747  23.9767851  37.3089757  67.4224652
  24.8429156  37.2576850  66.1818747  32.2337427  40.3190340  65.1160520
  32.6997879  41.1518332  65.0420822  32.6844928  39.8535322  65.8205778
  22.1759262  48.3216212  73.8298765  22.8768722  48.9552695  73.9828159
  21.7054377  48.6630943  73.0694404  30.3013658  46.6634162  62.1146672
  30.5773502  46.5490756  63.0240546  29.4318157  46.2651646  62.0758845
  30.2054090  32.6870927  69.1551421  29.2917170  32.9175154  69.3233628
  30.6347191  32.7709371  70.0065453  29.9760548  40.8760819  71.6551315
  29.3231999  41.1236727  71.0003768  30.3540928  40.0624957  71.3213792
  26.9367722  50.9120512  65.7579485  27.1190117  50.0942168  66.2207237
  27.7600708  51.1288205  65.3204375  27.2709888  49.8388698  63.0194534
  27.7997654  49.3281152  62.4064696  27.5338107  49.5231228  63.8840067
  26.0248121  41.6180630  78.1417352  25.3488758  41.5174760  78.8119727
  26.8475755  41.4619844  78.6053349  17.7726980  47.8552567  70.7629867
  18.3580417  47.1096255  70.8957771  17.5751819  48.1656524  71.6466531
  20.6265636  50.8903814  65.7792310  19.9576011  51.3749942  65.2956350
  20.4878505  51.1373035  66.6935688  12.3644635  40.4258167  69.4834310
  12.4028735  39.8921758  70.2771428  11.8584928  39.8993373  68.8645288
  24.7670904  52.9247558  72.3774968  25.3189212  53.0879179  73.1424053
  25.1077098  53.5151996  71.7054993  19.7435397  35.2722708  72.9796853
  19.8076724  36.1337538  72.5674250  19.6802518  34.6596709  72.2469211
  19.2187670  37.3445840  76.6269887  19.8459709  36.9622917  77.2407411
  18.3615589  37.1260042  76.9925579  29.6181779  47.7508815  78.2323622
  30.1621683  48.3638774  77.7378577  29.0368623  48.3088394  78.7490635
  15.9953213  39.1522269  62.5588242  16.2906654  38.2432948  62.5055295
  15.0941248  39.1310009  62.2369244  27.9039291  50.8729533  69.3638650
  27.7790431  50.0719273  68.8549596  28.5618383  51.3675727  68.8752620
  19.5247460  37.2278266  68.5415790  18.8034045  37.8414234  68.4023264
  20.3140715  37.7636031  68.4632436  29.9674200  48.6738553  70.9918200
  29.0204535  48.5543905  70.9196527  30.3156973  47.7861051  71.0744462
  22.3273773  34.5632692  74.8156442  22.8508175  34.8094989  75.5782751
  22.1086107  35.3952727  74.3959579  17.7241054  36.8336367  62.6827567
  17.3953760  35.9533746  62.5002673  18.0780425  36.7784036  63.5703956
  26.9720633  48.4691270  67.1922552  26.8245596  47.5407977  67.3730122
  27.7974127  48.4911360  66.7079628  20.8382877  37.1209337  63.0503045
  21.1778950  37.6495258  62.3281653  21.2854998  37.4589743  63.8261611
  30.5754755  49.2919828  68.2787425  31.5001302  49.0862690  68.1411876
  30.4070058  49.0436229  69.1876767  23.5326318  35.5046387  72.5006113
  23.1923139  34.7054200  72.9026792  22.8265325  35.8048098  71.9282946
  24.1842790  32.5895700  70.9533436  25.0068859  32.1156178  70.8312326
  24.4280854  33.3686184  71.4532122  22.8251025  35.6183958  61.2496337
  23.5459387  35.9965211  60.7460054  22.2016329  36.3372835  61.3531315
  26.9682147  36.3229107  62.1854670  27.1845762  37.2053745  61.8843498
  26.4876215  35.9315321  61.4560312  21.7081369  39.2814820  68.7625414
  21.5625950  39.5955124  69.6549696  21.2306572  39.8999721  68.2096313
  23.5677752  36.2717368  68.8106304  23.5539320  35.3758462  68.4738602
  24.2850180  36.2788032  69.4444590  25.4203882  36.7054709  70.8559431
  25.1621660  37.6271779  70.8543762  24.8888923  36.3085143  71.5459895
  30.3650071  49.8105496  63.6349517  30.5386949  49.2451918  62.8823369
  30.8578962  50.6106391  63.4529007  16.1827031  41.8220165  71.7013075
  15.6380499  42.5979973  71.8333350  17.0606381  42.1690969  71.5432197
  22.9714648  35.1531749  64.0793874  23.0930559  34.2248395  64.2784761
  22.6816690  35.1670435  63.1672189  25.8405838  32.8386659  67.2160594
  25.8627535  32.9025992  66.2612573  26.2573897  31.9991168  67.4101100
  36.2189462  42.5741919  65.2539816  36.6620608  41.8249244  64.8558940
  35.3415973  42.5652055  64.8713548  31.3525244  49.1272260  60.7346415
  32.0476148  49.7478953  60.9533730  31.6948394  48.2767611  61.0098793
  16.9693053  40.9490061  74.5943232  16.2274789  41.0972696  75.1807863
  16.6485797  41.2098327  73.7309982  33.2516667  46.5771966  62.2633746
  33.7767991  46.9159238  61.5383066  33.1639019  45.6418981  62.0796880
  24.9136716  50.4906039  74.3923622  25.2223842  50.2455186  75.2646322
  25.7112198  50.6952678  73.9042493  24.9357328  52.6443949  66.6228999
  24.4962318  52.1520328  67.3161856  25.6865445  52.1016917  66.3821074
  17.4149667  48.8355490  66.6253627  18.2407686  48.5359262  66.2452270
  17.0643719  48.0663112  67.0743416  22.3831200  48.1881958  68.6951301
  21.7611209  47.5252663  68.3953528  23.0536067  48.2143090  68.0124948
  15.6158272  46.7541816  67.5842561  14.7790180  46.3263991  67.4026562
  15.5881917  46.9474260  68.5213352  22.4555727  36.6663746  78.2883807
  22.5043883  37.5425869  77.9061576  22.9978241  36.1241139  77.7155450
  32.9410573  47.2104869  77.5684944  32.1506117  47.1929008  77.0289443
  32.7043927  47.7493163  78.3233980  33.0608448  44.0597336  74.8817672
  33.1106453  43.8947343  75.8233195  32.9522371  43.1924595  74.4915553
  21.9444707  46.7385881  62.1709761  22.0932827  47.4221346  61.5176434
  22.7511150  46.7190971  62.6859217  30.3512210  40.0428264  76.1976979
  31.2522073  39.9034729  75.9060977  30.4260185  40.2082719  77.1375156
  24.6855016  37.4195119  75.0430165  23.8158325  37.7128685  74.7712754
  24.9214496  38.0035564  75.7637429  34.5626645  46.4794277  75.1259694
  34.2711453  46.8424258  75.9623155  33.9498776  45.7661286  74.9473026
  35.7622327  44.0447157  67.6462264  36.5969218  44.4836961  67.8099824
  35.8981456  43.5685810  66.8270510  32.8113833  41.6026892  73.5939752
  33.2867955  41.7954538  72.7858603  31.8879398  41.6586078  73.3483135
  19.6997340  42.7651059  63.1770830  19.4543382  41.8613389  63.3751040
  19.8693254  42.7668209  62.2350308  27.3894049  33.6374735  72.5595586
  27.9075993  34.3735762  72.2342074  27.0349182  33.9438729  73.3942345
  18.9692987  38.4979417  60.6756991  18.2762232  38.5723772  60.0197027
  18.7244739  37.7339760  61.1978508  27.6406644  30.0575018  68.0796482
  27.9208397  29.3898207  68.7056909  28.4257251  30.2504114  67.5671146
  25.4440112  49.2334012  59.6421508  24.8714079  49.8524199  59.1891980
  26.0172906  49.7833374  60.1761430  31.5115502  38.4792652  71.8268057
  32.4632925  38.5790750  71.8480281  31.3418952  37.6870921  72.3366142
  29.5329881  35.5648235  72.0127458  28.9379814  35.8453248  71.3173947
  29.2479578  36.0542136  72.7844199  28.6637372  49.5171162  60.7730091
  29.5968045  49.4516724  60.9762966  28.5760585  50.3527429  60.3144623
  31.2925389  48.8337032  57.7334038  31.2139020  48.4996896  58.6269796
  32.1135055  49.3258800  57.7325511  33.9903580  41.6998772  70.9410357
  33.9579900  40.7614772  71.1270041  34.6004203  41.7782808  70.2076182
  34.1398068  38.4909815  70.9868640  33.6237117  37.7068272  70.7998569
  35.0238017  38.1628532  71.1515160  39.8080130  42.7614778  70.0816394
  40.5383518  42.5000067  70.6424097  39.1987075  42.0243500  70.1218462
  37.8895427  40.9022641  70.6790845  37.1628590  40.7678606  70.0707337
  37.4742714  41.2099470  71.4847563  25.7125603  44.6212571  78.4438218
  26.6328613  44.7991170  78.6378264  25.6775186  43.6768616  78.2917917
  14.9307768  39.8151164  67.3691493  14.6110553  38.9616473  67.0765867
  14.3841196  40.0299743  68.1249460  18.7087676  42.5313605  71.0860999
  18.9273686  43.4630713  71.1049033  19.1213450  42.1721580  71.8715803
  23.5815541  38.1046811  80.4763748  23.4812268  39.0541168  80.4075839
  23.3637083  37.7765050  79.6039818  14.7996028  43.4354076  69.3384614
  14.1059500  43.0208029  68.8254569  15.5469019  43.4774612  68.7418033
  23.4446811  41.5343950  79.2928810  22.9613893  42.3344310  79.4992699
  23.5307750  41.5451895  78.3396254  16.7132771  43.3672330  67.2150629
  16.6903459  43.4660017  66.2632512  17.0233407  44.2137480  67.5367795
  19.3720149  45.4248485  71.3297243  20.3263402  45.3932427  71.2627175
  19.1732672  44.9639108  72.1447469  19.9619531  43.9949601  73.8968041
  20.7812420  44.4893679  73.9202878  20.2356338  43.0781569  73.8685609
  33.0700663  36.4106874  66.9750336  33.8461053  36.9003326  67.2474953
  32.3448797  36.8364928  67.4322205  35.5073222  37.1234493  68.0324277
  36.1017712  36.8830229  67.3217585  35.5799805  36.4041624  68.6597813
  17.7270377  50.9668104  68.3467441  17.5924845  50.2068505  67.7805439
  17.3102440  51.6909004  67.8796230  28.8629340  46.1505028  57.3544017
  29.5665191  46.3555030  57.9701672  28.1391989  46.7181790  57.6193100
  29.6927151  41.9014889  63.4746287  29.6362352  42.3583440  62.6353919
  30.2455493  41.1405574  63.2969130  33.5031957  37.6904621  64.2996406
  33.2468891  37.2901257  65.1304614  32.8784825  38.4048415  64.1746545
  37.8144294  40.4300694  66.8067698  37.2543852  40.4993883  67.5799260
  37.2087798  40.2541679  66.0867194  20.8839503  51.8637421  68.5585884
  20.7671887  52.8082854  68.4564574  20.0631950  51.5610983  68.9471683
  30.7716038  46.5887557  59.4042477  31.6061642  46.1568755  59.2219952
  30.6100381  46.4169571  60.3319371  30.4261930  43.0919670  60.7698816
  30.3710734  42.9263942  59.8287260  29.8007985  43.7995703  60.9261006
  15.2154445  38.3287735  74.5960238  15.8613309  37.8186689  75.0847463
  15.0071596  39.0656416  75.1703663  27.7407837  45.3968582  80.0952379
  28.6098997  45.5709234  79.7339014  27.2614589  46.2162999  79.9728108
  21.9094017  52.5165683  71.7741812  22.8121264  52.5489293  72.0908307
  21.6831387  51.5866134  71.7888148  23.6647619  51.2696670  68.4351891
  22.7143250  51.2698531  68.3216263  23.9680106  50.5229404  67.9187926
  39.4000313  57.1057208  69.4997653  40.0378723  56.9863955  68.7960994
  39.2821156  58.0538052  69.5585606  36.2090019  57.0584636  69.4359178
  35.8708531  56.9425701  68.5479713  37.0779787  56.6575801  69.4160184
  32.0676835  58.9120113  65.4256069  31.5041700  58.8210050  64.6572357
  31.9529230  58.0920017  65.9058562  36.6909802  58.2119488  75.3945384
  36.6798443  57.8172286  74.5225887  36.8530442  57.4785560  75.9879155
  29.6141267  60.4071304  68.2640290  30.4062559  60.0662129  67.8486589
  29.8537917  60.5166279  69.1842443  37.6476394  62.5791080  60.7370534
  36.9964373  63.1645161  60.3504548  38.4420756  63.1097275  60.7965571
  31.5732021  59.6680217  61.1357668  32.3462897  59.1209205  60.9970544
  31.9257420  60.5324467  61.3472130  33.4117063  60.9956600  74.3424568
  33.1206929  61.9002231  74.2271234  34.0474048  61.0373127  75.0568637
  34.3373270  58.3733448  70.9325927  34.9336842  58.1489471  70.2182890
  34.3948242  57.6318194  71.5351375  33.9098299  55.8272884  58.7676118
  34.1623819  55.3054405  58.0059581  32.9722858  55.6639029  58.8702802
  38.9541581  54.8308662  66.5750861  39.7404671  54.4128085  66.2241279
  39.2180286  55.7354754  66.7432510  39.1251659  60.2681512  61.2739518
  38.4897492  60.3416139  61.9860423  38.7949065  60.8575111  60.5958598
  44.3550009  54.7683895  67.4783840  45.0875180  54.1983112  67.7121669
  43.5989364  54.3805496  67.9190346  33.6294587  57.7300989  60.9700493
  33.5130845  57.0545893  61.6381578  33.7396847  57.2433363  60.1532646
  35.9726128  57.1911137  64.6747182  35.6084335  56.6641758  65.3860104
  36.8293244  56.8009606  64.5013668  41.8775429  48.4805469  71.9378449
  41.5458754  49.3500880  71.7139664  41.2821042  48.1641753  72.6172479
  35.6131615  52.2201036  59.6708531  35.7806018  53.0881273  60.0379002
  35.4228784  52.3828318  58.7469820  38.3706948  60.6818015  71.3374361
  38.0707671  61.5843054  71.2290169  38.0258008  60.4150198  72.1895514
  31.8219430  57.1331812  67.3711066  30.8969926  57.0008026  67.5788758
  32.0703843  57.9126031  67.8681008  41.7704092  53.2000555  69.0171799
  40.8620970  53.1315964  68.7230560  41.7191688  53.6772500  69.8453624
  35.5920836  54.6758694  60.6555198  35.4720461  55.1215745  61.4940678
  34.8973424  55.0244011  60.0968736  29.1828241  56.7765086  68.2054855
  29.3120622  57.0299565  69.1194267  28.5025692  57.3692794  67.8859510
  33.3527728  67.4462336  64.3045329  33.2751758  68.3970161  64.3833810
  32.7489372  67.1008208  64.9620255  35.8444958  54.6190201  76.9606696
  35.0678292  55.1784121  76.9509561  36.4835521  55.1046984  77.4821566
  43.6365739  51.4016994  70.7949673  42.9940119  51.6949527  70.1489467
  43.1320667  51.2869914  71.6002869  41.2905902  55.1480167  61.4835532
  42.2023758  55.3807554  61.3083229  40.7815549  55.7317211  60.9210610
  34.0991330  57.4275654  76.5224663  34.8406015  57.9660698  76.2459487
  33.3928316  58.0541943  76.6796215  39.5746670  59.5704795  75.1196824
  39.9830026  59.1287205  74.3751457  38.8523931  58.9957422  75.3731017
  35.9277740  54.5077402  72.4930381  36.7738935  54.9316815  72.6365030
  35.8676378  53.8511026  73.1868944  39.8975485  60.1305985  68.8749113
  39.2684347  60.2951700  68.1725181  39.5101147  60.5447595  69.6460077
  43.7764716  61.0660423  66.2293477  43.0915755  61.4459325  65.6790510
  43.8608566  61.6755750  66.9625425  39.0777185  52.1681770  74.1511555
  38.8338117  52.9223830  73.6145831  39.3537116  52.5467118  74.9858802
  41.0315648  58.7120382  72.8288821  41.2432543  59.3552142  72.1523202
  40.9845396  57.8782699  72.3610751  38.6341877  51.3238203  69.7325393
  37.7726356  51.6219457  70.0242130  38.6604312  51.5408602  68.8006425
  35.4503446  59.8680394  66.1399198  35.9141792  60.1468097  65.3503821
  35.1860245  58.9663838  65.9572289  32.3427527  59.4151875  69.0778962
  32.9128885  59.8439143  68.4396446  32.9335639  59.1334460  69.7763147
  34.3872332  55.9903546  62.9488764  35.0896376  56.4424590  63.4162690
  34.0552961  55.3487365  63.5768657  32.8352694  54.5815303  77.3239973
  32.2051355  55.2631583  77.5575370  32.7288782  54.4698384  76.3793111
  28.1297666  54.2487099  68.2505897  27.3396720  54.5044627  67.7746008
  28.6208914  55.0635436  68.3557938  42.1461476  61.5892338  71.0011178
  42.9678920  61.1872525  70.7193860  42.1423879  61.4860572  71.9527294
  30.0812412  54.6131678  65.2089374  29.2843575  54.7250372  65.7272869
  29.8538004  54.9518330  64.3430264  35.9118079  61.1376381  73.1571888
  35.9762512  61.5996788  73.9930060  35.2029003  60.5073746  73.2854198
  26.4135369  54.5017589  70.6820888  26.6643408  55.3864599  70.9478464
  26.9494918  54.3222191  69.9095980  50.2367469  57.9331086  67.3496149
  49.4831177  57.3638484  67.1940154  50.3715010  57.8993751  68.2966784
  35.6266097  62.8044489  63.0250869  35.4911772  63.6496024  63.4535717
  36.1675910  63.0063766  62.2616803  32.1133437  48.8836068  79.6865224
  31.7200382  48.3302267  80.3612868  32.9299577  49.1946647  80.0771742
  29.0795494  60.3219927  63.5978794  29.5920015  61.1163177  63.7484359
  29.7318207  59.6246217  63.5312395  30.8890379  63.4385683  65.6801547
  31.0657008  64.3603648  65.4922531  31.6847213  63.1244102  66.1095927
  35.0301398  50.2993947  77.2785481  35.7711111  50.9001101  77.1989943
  35.2619321  49.5571585  76.7203523  30.1742736  55.4850315  75.5563710
  30.0596251  54.5835572  75.8570809  29.3187253  55.7314011  75.2048527
  37.2534573  63.4268055  77.1551211  36.8098428  62.6404434  76.8372115
  37.9151787  63.6147206  76.4895102  32.0121695  64.9563857  71.6811889
  32.5629120  64.8280920  70.9088883  31.1733171  65.2558746  71.3306782
  39.3515812  63.7070855  75.1832612  39.3334287  64.5279736  74.6912881
  40.2735732  63.5824930  75.4082753  35.8088866  61.2214984  76.0256120
  36.3417203  60.4603273  75.7955428  35.2802947  60.9288636  76.7680275
  38.9758561  46.3275050  71.5549762  38.6322830  47.2176692  71.4788873
  39.3437523  46.1376708  70.6919347  27.0444411  58.6508581  64.3738364
  27.8819633  59.0605589  64.1572072  27.2222679  57.7108023  64.3438558
  38.9408843  56.3183661  60.0622197  38.4255467  57.0888266  60.3010585
  38.6686152  55.6448798  60.6855259  36.5255954  51.1633362  65.1207436
  35.6697551  50.7740213  64.9413074  36.9382906  51.2425323  64.2607221
  38.0555101  48.6979706  69.5198995  37.5519897  48.6609841  68.7066801
  38.3485708  49.6072448  69.5795652  34.2997987  48.7818435  68.5265177
  35.1650984  48.5861244  68.1671067  34.3675496  48.5528787  69.4534534
  43.9143118  59.0716016  61.9975371  43.1372560  58.7327176  61.5530533
  44.5934598  59.0768639  61.3230336  38.7295147  54.1910754  61.8881979
  38.4245282  54.5056903  62.7392122  39.6825589  54.2692173  61.9309312
  37.1741578  60.3500977  63.5374932  36.6462940  59.6153736  63.2248170
  36.6729081  61.1275653  63.2914901  42.1534424  58.5449997  68.6541979
  41.4958099  59.2349259  68.7422107  42.9574824  58.9346429  68.9975965
  31.9060306  51.0120643  65.8981544  32.4804058  50.7895825  65.1654737
  32.4931288  51.0809338  66.6510145  40.9639883  56.8994370  66.7045921
  41.4771765  57.5324362  67.2067630  41.6141107  56.2995566  66.3389281
  32.2329893  53.0425104  59.9177429  31.3967205  53.3799791  60.2386704
  32.0934663  52.9074084  58.9804566  34.2082974  47.8861892  64.6256613
  33.5547386  47.5710909  64.0013228  34.1663448  47.2637633  65.3516436
  35.3194179  58.1681187  56.5409906  34.4121240  57.9370441  56.7401055
  35.8165211  57.3718806  56.7283887  38.2262257  66.8778694  59.4606592
  37.5523956  67.1810391  60.0691550  38.6128079  67.6807775  59.1112049
  37.4420714  54.3743826  68.9504261  36.5243275  54.5958773  68.7925949
  37.8580858  54.4490136  68.0915968  38.2255762  55.7735241  64.0806941
  38.9727581  56.2856639  63.7714063  38.4947351  55.4519294  64.9411335
  36.4982412  58.2693782  61.0633896  35.5893631  57.9852815  61.1606365
  36.5277496  58.6892861  60.2037202  41.7301679  61.8800372  64.8325063
  41.2764007  61.0391281  64.8890254  41.0995646  62.5161770  65.1699843
  40.6734599  52.8092358  66.0625731  39.9357356  52.2969744  66.3935973
  40.9261373  52.3692739  65.2509008  40.1734619  63.7176868  65.7674881
  40.4657593  64.2781925  65.0487247  40.6833239  64.0105429  66.5228040
  40.7746226  45.5868610  66.6567500  41.0805103  44.7265973  66.3693415
  41.4998831  46.1786230  66.4566494  27.0670582  55.9899296  65.0449098
  26.8694982  55.3968657  64.3200164  26.5117246  55.6851506  65.7625037
  35.0467306  55.8822403  67.1643691  35.1015916  54.9296239  67.0886168
  34.2358508  56.0381842  67.6484989  36.1958500  59.8102526  58.4021974
  35.7577930  59.0938385  57.9427612  36.9368941  60.0378641  57.8407066
  32.9859666  54.4999462  64.9234070  32.1727532  54.7993633  65.3299262
  33.4818660  54.1055151  65.6408552  35.1368244  64.4957219  66.8568335
  35.0944423  64.7218066  65.9276867  36.0530943  64.2620594  67.0054136
  38.5833878  54.9641287  73.7548964  38.9383265  55.1912760  74.6143429
  39.2306009  55.2959664  73.1326219  44.3131615  58.0859723  64.4598293
  44.1749513  58.2761319  63.5319482  43.9567833  58.8479106  64.9166344
  32.4773741  52.0717818  70.5395305  33.1173120  51.9306577  69.8418268
  31.6451271  51.7852331  70.1633907  44.3400994  60.1536250  69.4709564
  44.7737501  60.0611539  70.3192618  45.0532575  60.1293750  68.8329580
  33.2534045  61.3720248  66.6530297  34.0474643  60.8770568  66.4512872
  32.5425737  60.8438111  66.2898003  38.0728889  63.7538344  71.0042665
  38.1265911  64.3229280  71.7720381  37.2043670  63.9240229  70.6396702
  29.5616808  55.5163330  62.7290050  28.6314396  55.4547786  62.9460012
  29.6574280  54.9939283  61.9326691  29.4802357  52.0418143  65.3168292
  29.7409174  52.9563476  65.2077452  30.3019529  51.5742585  65.4664904
  30.9527283  53.4555900  72.4867116  31.6250336  53.2473262  71.8379765
  30.1257069  53.2577986  72.0472348  45.2016544  60.1959950  72.0042450
  45.3952434  61.1005761  72.2501725  45.1017162  59.7367369  72.8381035
  36.8552855  50.0817841  74.5032777  36.2080770  50.7807791  74.4097253
  37.6253870  50.5153985  74.8709025  40.2631652  60.3466693  77.5783330
  40.1117159  60.1177245  76.6613414  40.2536332  61.3037295  77.5914675
  37.0316989  57.9198606  72.5629597  37.9609049  58.0709766  72.3898564
  36.6108019  58.0082627  71.7078243  35.8305321  61.9449270  70.3328134
  35.6916406  61.5768055  71.2054072  35.0419917  62.4596910  70.1612092
  36.4253473  67.0458367  61.6753671  36.6005228  66.5746410  62.4899294
  35.7386261  67.6724133  61.9034932  37.3810536  61.3230873  67.7216972
  37.0460368  61.2831643  68.6174622  36.8814481  60.6575589  67.2487382
  31.3554780  56.7298503  73.2469553  31.2174578  55.9978742  73.8481092
  32.2659703  56.6407403  72.9653741  40.3169727  58.6686907  57.9954032
  39.6998898  57.9433736  57.8987084  39.8486216  59.4296268  57.6521106
  33.9837080  56.4418462  72.7353233  34.6936699  55.8011655  72.6939851
  33.9406389  56.6931357  73.6579414  41.9723859  63.3785816  75.6559812
  41.9136405  62.6945036  74.9890395  42.3743377  64.1204806  75.2040438
  32.6966014  53.4283680  74.5548872  32.1603371  52.9774419  75.2070469
  32.1082723  53.5629589  73.8119337  30.9914558  70.1947730  68.4493531
  31.2311156  70.8266254  69.1272550  30.1483754  69.8435770  68.7358890
  32.1068273  52.8872332  57.1175336  31.2297740  52.7661132  56.7537583
  32.5826026  52.0958410  56.8654225  41.9741266  61.3425400  73.8873792
  41.0868045  61.0051321  74.0100191  42.5439817  60.6108431  74.1242557
  23.6270413  57.6749491  67.2116843  24.3141453  57.3611221  66.6237859
  23.4718542  58.5790856  66.9384095  28.4305136  52.5639688  71.6401867
  28.3463324  51.9565358  70.9052277  27.6087842  53.0548706  71.6411363
  35.5042420  66.0026852  70.8535035  35.4312591  66.8081823  71.3654340
  35.0619813  66.2018818  70.0283056  35.2932199  65.2398622  64.3637857
  34.5099721  65.7820302  64.4576081  35.9924945  65.7572602  64.7632098
  38.6028849  51.0493251  67.0072062  39.0997549  50.2963214  66.6873132
  37.8315831  51.0857568  66.4415271  46.4558607  56.7533617  68.6490353
  46.4448483  57.6358332  68.2784287  45.5875986  56.4005168  68.4544891
  37.9641103  65.9013686  73.0093194  38.6769075  66.5361151  72.9369095
  37.4731132  65.9977552  72.1933196  39.6858630  59.8064939  64.5810485
  38.7514909  59.9266401  64.4115190  39.8635299  58.9037405  64.3170495
  35.1863818  53.1910634  66.7343747  34.8161606  52.6381675  67.4224652
  35.6822911  52.5868768  66.1818747  43.0731182  55.6482258  65.1160520
  43.5391634  56.4810250  65.0420822  43.5238682  55.1827240  65.8205778
  33.0153017  63.6508129  73.8298765  33.7162476  64.2844612  73.9828159
  32.5448132  63.9922861  73.0694404  41.1407413  61.9926079  62.1146672
  41.4167257  61.8782674  63.0240546  40.2711911  61.5943564  62.0758845
  41.0447844  48.0162845  69.1551421  40.1310924  48.2467072  69.3233628
  41.4740946  48.1001289  70.0065453  40.8154303  56.2052737  71.6551315
  40.1625753  56.4528644  71.0003768  41.1934683  55.3916875  71.3213792
  37.7761477  66.2412430  65.7579485  37.9583871  65.4234086  66.2207237
  38.5994463  66.4580122  65.3204375  38.1103642  65.1680615  63.0194534
  38.6391409  64.6573070  62.4064696  38.3731862  64.8523145  63.8840067
  36.8641876  56.9472548  78.1417352  36.1882513  56.8466677  78.8119727
  37.6869510  56.7911762  78.6053349  28.6120735  63.1844485  70.7629867
  29.1974172  62.4388172  70.8957771  28.4145573  63.4948441  71.6466531
  31.4659390  66.2195732  65.7792310  30.7969765  66.7041860  65.2956350
  31.3272260  66.4664952  66.6935688  23.2038390  55.7550085  69.4834310
  23.2422489  55.2213675  70.2771428  22.6978682  55.2285290  68.8645288
  35.6064659  68.2539475  72.3774968  36.1582967  68.4171097  73.1424053
  35.9470852  68.8443913  71.7054993  30.5829152  50.6014625  72.9796853
  30.6470478  51.4629456  72.5674250  30.5196272  49.9888627  72.2469211
  30.0581424  52.6737758  76.6269887  30.6853463  52.2914835  77.2407411
  29.2009343  52.4551960  76.9925579  40.4575533  63.0800733  78.2323622
  41.0015437  63.6930691  77.7378577  39.8762378  63.6380311  78.7490635
  26.8346967  54.4814187  62.5588242  27.1300408  53.5724865  62.5055295
  25.9335003  54.4601926  62.2369244  38.7433046  66.2021451  69.3638650
  38.6184185  65.4011191  68.8549596  39.4012137  66.6967644  68.8752620
  30.3641214  52.5570183  68.5415790  29.6427800  53.1706151  68.4023264
  31.1534470  53.0927948  68.4632436  40.8067954  64.0030471  70.9918200
  39.8598290  63.8835822  70.9196527  41.1550727  63.1152969  71.0744462
  33.1667528  49.8924610  74.8156442  33.6901930  50.1386907  75.5782751
  32.9479861  50.7244645  74.3959579  28.5634809  52.1628285  62.6827567
  28.2347515  51.2825663  62.5002673  28.9174179  52.1075953  63.5703956
  37.8114388  63.7983187  67.1922552  37.6639350  62.8699895  67.3730122
  38.6367881  63.8203278  66.7079628  31.6776632  52.4501254  63.0503045
  32.0172704  52.9787176  62.3281653  32.1248752  52.7881660  63.8261611
  41.4148509  64.6211746  68.2787425  42.3395057  64.4154607  68.1411876
  41.2463813  64.3728147  69.1876767  34.3720073  50.8338305  72.5006113
  34.0316893  50.0346118  72.9026792  33.6659079  51.1340016  71.9282946
  35.0236545  47.9187617  70.9533436  35.8462614  47.4448096  70.8312326
  35.2674608  48.6978101  71.4532122  33.6644779  50.9475876  61.2496337
  34.3853142  51.3257129  60.7460054  33.0410083  51.6664753  61.3531315
  37.8075902  51.6521025  62.1854670  38.0239516  52.5345663  61.8843498
  37.3269969  51.2607238  61.4560312  32.5475123  54.6106738  68.7625414
  32.4019704  54.9247041  69.6549696  32.0700327  55.2291638  68.2096313
  34.4071506  51.6009286  68.8106304  34.3933075  50.7050379  68.4738602
  35.1243934  51.6079950  69.4444590  36.2597637  52.0346626  70.8559431
  36.0015415  52.9563697  70.8543762  35.7282677  51.6377061  71.5459895
  41.2043826  65.1397413  63.6349517  41.3780703  64.5743836  62.8823369
  41.6972717  65.9398308  63.4529007  27.0220786  57.1512083  71.7013075
  26.4774254  57.9271890  71.8333350  27.9000135  57.4982887  71.5432197
  33.8108402  50.4823666  64.0793874  33.9324313  49.5540313  64.2784761
  33.5210445  50.4962352  63.1672189  36.6799593  48.1678577  67.2160594
  36.7021289  48.2317910  66.2612573  37.0967652  47.3283085  67.4101100
  47.0583217  57.9033836  65.2539816  47.5014363  57.1541162  64.8558940
  46.1809727  57.8943973  64.8713548  42.1918998  64.4564178  60.7346415
  42.8869903  65.0770871  60.9533730  42.5342148  63.6059529  61.0098793
  27.8086807  56.2781979  74.5943232  27.0668543  56.4264614  75.1807863
  27.4879552  56.5390244  73.7309982  44.0910421  61.9063883  62.2633746
  44.6161745  62.2451156  61.5383066  44.0032774  60.9710899  62.0796880
  35.7530470  65.8197957  74.3923622  36.0617596  65.5747104  75.2646322
  36.5505952  66.0244595  73.9042493  35.7751082  67.9735867  66.6228999
  35.3356072  67.4812245  67.3161856  36.5259199  67.4308834  66.3821074
  28.2543421  64.1647408  66.6253627  29.0801441  63.8651179  66.2452270
  27.9037473  63.3955030  67.0743416  33.2224954  63.5173876  68.6951301
  32.6004963  62.8544581  68.3953528  33.8929821  63.5435008  68.0124948
  26.4552026  62.0833734  67.5842561  25.6183934  61.6555908  67.4026562
  26.4275672  62.2766177  68.5213352  33.2949482  51.9955664  78.2883807
  33.3437637  52.8717787  77.9061576  33.8371996  51.4533057  77.7155450
  43.7804327  62.5396787  77.5684944  42.9899871  62.5220926  77.0289443
  43.5437682  63.0785081  78.3233980  43.9002202  59.3889253  74.8817672
  43.9500207  59.2239261  75.8233195  43.7916126  58.5216512  74.4915553
  32.7838461  62.0677799  62.1709761  32.9326581  62.7513263  61.5176434
  33.5904905  62.0482889  62.6859217  41.1905965  55.3720181  76.1976979
  42.0915828  55.2326646  75.9060977  41.2653939  55.5374636  77.1375156
  35.5248770  52.7487036  75.0430165  34.6552080  53.0420602  74.7712754
  35.7608251  53.3327481  75.7637429  45.4020399  61.8086195  75.1259694
  45.1105208  62.1716175  75.9623155  44.7892531  61.0953203  74.9473026
  46.6016082  59.3739075  67.6462264  47.4362973  59.8128879  67.8099824
  46.7375210  58.8977728  66.8270510  43.6507587  56.9318810  73.5939752
  44.1261709  57.1246456  72.7858603  42.7273153  56.9877995  73.3483135
  30.5391094  58.0942977  63.1770830  30.2937136  57.1905307  63.3751040
  30.7087009  58.0960127  62.2350308  38.2287804  48.9666653  72.5595586
  38.7469748  49.7027680  72.2342074  37.8742937  49.2730646  73.3942345
  29.8086742  53.8271334  60.6756991  29.1155987  53.9015689  60.0197027
  29.5638494  53.0631678  61.1978508  38.4800398  45.3866936  68.0796482
  38.7602152  44.7190125  68.7056909  39.2651005  45.5796031  67.5671146
  36.2833867  64.5625930  59.6421508  35.7107834  65.1816117  59.1891980
  36.8566660  65.1125291  60.1761430  42.3509256  53.8084570  71.8268057
  43.3026679  53.9082667  71.8480281  42.1812707  53.0162838  72.3366142
  40.3723636  50.8940153  72.0127458  39.7773568  51.1745166  71.3173947
  40.0873333  51.3834054  72.7844199  39.5031126  64.8463080  60.7730091
  40.4361800  64.7808641  60.9762966  39.4154339  65.6819347  60.3144623
  42.1319143  64.1628950  57.7334038  42.0532775  63.8288814  58.6269796
  42.9528810  64.6550718  57.7325511  44.8297334  57.0290689  70.9410357
  44.7973654  56.0906690  71.1270041  45.4397958  57.1074726  70.2076182
  36.6680665  55.8986742  56.9837561  37.6139770  55.7692950  57.0525979
  36.2894910  55.1601404  57.4606989  44.9791823  53.8201733  70.9868640
  44.4630871  53.0360189  70.7998569  45.8631771  53.4920449  71.1515160
  42.6402550  47.5642748  66.9464453  42.4427371  47.2557837  67.8307785
  43.2502255  48.2904387  67.0762383  50.6473884  58.0906696  70.0816394
  51.3777273  57.8291984  70.6424097  50.0380830  57.3535418  70.1218462
  48.7289181  56.2314559  70.6790845  48.0022345  56.0970524  70.0707337
  48.3136468  56.5391387  71.4847563  36.5519358  59.9504488  78.4438218
  37.4722367  60.1283087  78.6378264  36.5168941  59.0060534  78.2917917
  34.8523582  53.8236719  56.9192446  33.9455038  53.5269831  56.9955160
  35.1299563  53.5266537  56.0526732  25.7701523  55.1443082  67.3691493
  25.4504307  54.2908390  67.0765867  25.2234951  55.3591660  68.1249460
  29.5481430  57.8605523  71.0860999  29.7667440  58.7922631  71.1049033
  29.9607204  57.5013497  71.8715803  36.4685648  48.3673608  63.0736688
  35.6586376  48.0220693  63.4491934  37.1570065  48.0581152  63.6624299
  38.3976196  47.4451655  64.6960984  38.9507235  47.8647109  65.3551007
  38.6346283  46.5187403  64.7383940  34.4209296  53.4338729  80.4763748
  34.3206022  54.3833086  80.4075839  34.2030838  53.1056968  79.6039818
  33.6222367  50.6823654  57.0604425  34.4841531  51.0078552  57.3200243
  33.8072711  49.8955150  56.5477491  25.6389783  58.7645994  69.3384614
  24.9453254  58.3499946  68.8254569  26.3862774  58.8066530  68.7418033
  41.7755003  49.5552180  64.2039648  41.1953672  50.2136984  63.8217701
  41.5090936  48.7329525  63.7927066  40.2258570  48.9557238  66.4060969
  40.7258348  49.0673773  65.5975288  40.8694178  48.6518291  67.0461777
  34.2840566  56.8635868  79.2928810  33.8007647  57.6636228  79.4992699
  34.3701505  56.8743813  78.3396254  27.5526525  58.6964247  67.2150629
  27.5297213  58.7951935  66.2632512  27.8627162  59.5429398  67.5367795
  30.2113903  60.7540402  71.3297243  31.1657157  60.7224345  71.2627175
  30.0126427  60.2931026  72.1447469  30.8013285  59.3241518  73.8968041
  31.6206174  59.8185597  73.9202878  31.0750093  58.4073487  73.8685609
  40.5579881  51.7152271  63.2595997  39.6705736  52.0001921  63.0416191
  40.9733870  51.5546034  62.4123274  43.9094418  51.7398792  66.9750336
  44.6854808  52.2295244  67.2474953  43.1842552  52.1656846  67.4322205
  46.3466976  52.4526411  68.0324277  46.9411467  52.2122147  67.3217585
  46.4193560  51.7333542  68.6597813  28.5664132  66.2960022  68.3467441
  28.4318600  65.5360423  67.7805439  28.1496194  67.0200922  67.8796230
  39.7023095  61.4796945  57.3544017  40.4058945  61.6846948  57.9701672
  38.9785744  62.0473707  57.6193100  40.5320905  57.2306807  63.4746287
  40.4756107  57.6875358  62.6353919  41.0849248  56.4697491  63.2969130
  44.3425711  53.0196539  64.2996406  44.0862645  52.6193174  65.1304614
  43.7178579  53.7340332  64.1746545  48.6538049  55.7592612  66.8067698
  48.0937607  55.8285801  67.5799260  48.0481552  55.5833596  66.0867194
  31.7233258  67.1929339  68.5585884  31.6065642  68.1374771  68.4564574
  30.9025704  66.8902900  68.9471683  41.6109792  61.9179475  59.4042477
  42.4455396  61.4860673  59.2219952  41.4494135  61.7461488  60.3319371
  41.2655684  58.4211588  60.7698816  41.2104488  58.2555859  59.8287260
  40.6401740  59.1287621  60.9261006  26.0548199  53.6579652  74.5960238
  26.7007063  53.1478606  75.0847463  25.8465351  54.3948334  75.1703663
  38.5801592  60.7260500  80.0952379  39.4492751  60.9001152  79.7339014
  38.1008343  61.5454917  79.9728108  34.5751810  47.9219697  60.3484134
  34.5630480  48.8661537  60.5052405  35.4675232  47.7389842  60.0543596
  32.7487772  67.8457601  71.7741812  33.6515019  67.8781211  72.0908307
  32.5225142  66.9158052  71.7888148  34.5041374  66.5988587  68.4351891
  33.5537005  66.5990449  68.3216263  34.8073860  65.8521322  67.9187926
  38.3903929  44.5162474  64.6030071  37.6236325  43.9620960  64.7486754
  38.8014634  44.5884342  65.4644223  30.3945690  50.8047269  78.6935252
  31.2577152  50.4484074  78.9038577  29.8211101  50.4661164  79.3810657
  50.2394067  72.4349126  69.4997653  50.8772477  72.3155873  68.7960994
  50.1214910  73.3829970  69.5585606  47.0483774  72.3876554  69.4359178
  46.7102285  72.2717619  68.5479713  47.9173542  71.9867719  69.4160184
  42.9070589  74.2412030  65.4256069  42.3435454  74.1501967  64.6572357
  42.7922984  73.4211935  65.9058562  40.4535021  75.7363222  68.2640290
  41.2456313  75.3954046  67.8486589  40.6931671  75.8458197  69.1842443
  48.4870148  77.9082998  60.7370534  47.8358128  78.4937078  60.3504548
  49.2814511  78.4389193  60.7965571  42.4125775  74.9972135  61.1357668
  43.1856651  74.4501122  60.9970544  42.7651174  75.8616384  61.3472130
  45.1767025  73.7025366  70.9325927  45.7730597  73.4781388  70.2182890
  45.2341996  72.9610111  71.5351375  44.7492053  71.1564801  58.7676118
  45.0017574  70.6346322  58.0059581  43.8116612  70.9930947  58.8702802
  49.7935336  70.1600580  66.5750861  50.5798425  69.7420003  66.2241279
  50.0574040  71.0646672  66.7432510  49.9645413  75.5973430  61.2739518
  49.3291246  75.6708056  61.9860423  49.6342820  76.1867029  60.5958598
  55.1943763  70.0975813  67.4783840  55.9268935  69.5275030  67.7121669
  54.4383119  69.7097413  67.9190346  44.4688342  73.0592907  60.9700493
  44.3524600  72.3837811  61.6381578  44.5790602  72.5725281  60.1532646
  46.8119883  72.5203054  64.6747182  46.4478090  71.9933675  65.3860104
  47.6686999  72.1301523  64.5013668  52.7169183  63.8097387  71.9378449
  52.3852508  64.6792798  71.7139664  52.1214797  63.4933671  72.6172479
  46.4525370  67.5492954  59.6708531  46.6199772  68.4173190  60.0379002
  46.2622539  67.7120236  58.7469820  42.6613184  72.4623730  67.3711066
  41.7363681  72.3299944  67.5788758  42.9097598  73.2417949  67.8681008
  52.6097847  68.5292473  69.0171799  51.7014724  68.4607881  68.7230560
  52.5585442  69.0064418  69.8453624  46.4314591  70.0050611  60.6555198
  46.3114216  70.4507662  61.4940678  45.7367179  70.3535929  60.0968736
  40.0221995  72.1057003  68.2054855  40.1514377  72.3591482  69.1194267
  39.3419447  72.6984711  67.8859510  44.1921483  82.7754253  64.3045329
  44.1145512  83.7262078  64.3833810  43.5883126  82.4300126  64.9620255
  54.4759493  66.7308911  70.7949673  53.8333873  67.0241445  70.1489467
  53.9714422  66.6161832  71.6002869  52.1299657  70.4772085  61.4835532
  53.0417513  70.7099471  61.3083229  51.6209304  71.0609129  60.9210610
  46.7671494  69.8369319  72.4930381  47.6132690  70.2608733  72.6365030
  46.7070132  69.1802944  73.1868944  49.4735631  66.6530121  69.7325393
  48.6120111  66.9511374  70.0242130  49.4998066  66.8700520  68.8006425
  46.2897201  75.1972311  66.1399198  46.7535546  75.4760014  65.3503821
  46.0253999  74.2955756  65.9572289  43.1821282  74.7443793  69.0778962
  43.7522639  75.1731061  68.4396446  43.7729394  74.4626377  69.7763147
  45.2266087  71.3195464  62.9488764  45.9290130  71.7716507  63.4162690
  44.8946715  70.6779282  63.5768657  38.9691421  69.5779016  68.2505897
  38.1790475  69.8336545  67.7746008  39.4602668  70.3927354  68.3557938
  40.9206166  69.9423595  65.2089374  40.1237330  70.0542290  65.7272869
  40.6931759  70.2810248  64.3430264  37.2529124  69.8309507  70.6820888
  37.5037162  70.7156517  70.9478464  37.7888672  69.6514108  69.9095980
  46.4659852  78.1336406  63.0250869  46.3305526  78.9787942  63.4535717
  47.0069664  78.3355684  62.2616803  39.9189249  75.6511844  63.5978794
  40.4313770  76.4455094  63.7484359  40.5711962  74.9538135  63.5312395
  41.7284134  78.7677601  65.6801547  41.9050762  79.6895565  65.4922531
  42.5240967  78.4536020  66.1095927  41.0136490  70.8142232  75.5563710
  40.8990005  69.9127490  75.8570809  40.1581008  71.0605929  75.2048527
  49.8152315  61.6566968  71.5549762  49.4716585  62.5468610  71.4788873
  50.1831278  61.4668626  70.6919347  37.8838166  73.9800499  64.3738364
  38.7213388  74.3897507  64.1572072  38.0616433  73.0399941  64.3438558
  49.7802598  71.6475579  60.0622197  49.2649221  72.4180184  60.3010585
  49.5079906  70.9740715  60.6855259  47.3649709  66.4925280  65.1207436
  46.5091305  66.1032130  64.9413074  47.7776661  66.5717241  64.2607221
  48.8948856  64.0271623  69.5198995  48.3913651  63.9901758  68.7066801
  49.1879462  64.9364366  69.5795652  45.1391741  64.1110353  68.5265177
  46.0044738  63.9153162  68.1671067  45.2069250  63.8820705  69.4534534
  54.7536872  74.4007934  61.9975371  53.9766315  74.0619093  61.5530533
  55.4328353  74.4060557  61.3230336  49.5688901  69.5202671  61.8881979
  49.2639037  69.8348820  62.7392122  50.5219343  69.5984091  61.9309312
  48.0135333  75.6792895  63.5374932  47.4856694  74.9445654  63.2248170
  47.5122836  76.4567571  63.2914901  42.7454061  66.3412561  65.8981544
  43.3197812  66.1187742  65.1654737  43.3325043  66.4101255  66.6510145
  51.8033638  72.2286288  66.7045921  52.3165519  72.8616280  67.2067630
  52.4534862  71.6287483  66.3389281  43.0723648  68.3717022  59.9177429
  42.2360960  68.7091708  60.2386704  42.9328417  68.2366002  58.9804566
  45.0476728  63.2153810  64.6256613  44.3941141  62.9002827  64.0013228
  45.0057202  62.5929550  65.3516436  46.1587933  73.4973105  56.5409906
  45.2514995  73.2662358  56.7401055  46.6558965  72.7010724  56.7283887
  49.0656012  82.2070612  59.4606592  48.3917711  82.5102309  60.0691550
  49.4521834  83.0099692  59.1112049  48.2814469  69.7035743  68.9504261
  47.3637030  69.9250690  68.7925949  48.6974612  69.7782054  68.0915968
  49.0649516  71.1027159  64.0806941  49.8121335  71.6148556  63.7714063
  49.3341106  70.7811212  64.9411335  47.3376167  73.5985700  61.0633896
  46.4287386  73.3144733  61.1606365  47.3671250  74.0184778  60.2037202
  52.5695434  77.2092289  64.8325063  52.1157761  76.3683199  64.8890254
  51.9389401  77.8453688  65.1699843  51.5128353  68.1384275  66.0625731
  50.7751110  67.6261661  66.3935973  51.7655127  67.6984657  65.2509008
  51.0128373  79.0468786  65.7674881  51.3051348  79.6073843  65.0487247
  51.5226994  79.3397347  66.5228040  51.6139981  60.9160527  66.6567500
  51.9198858  60.0557891  66.3693415  52.3392586  61.5078147  66.4566494
  37.9064337  71.3191214  65.0449098  37.7088737  70.7260575  64.3200164
  37.3511001  71.0143424  65.7625037  45.8861061  71.2114320  67.1643691
  45.9409670  70.2588157  67.0886168  45.0752263  71.3673759  67.6484989
  47.0352254  75.1394443  58.4021974  46.5971684  74.4230302  57.9427612
  47.7762695  75.3670558  57.8407066  43.8253420  69.8291380  64.9234070
  43.0121286  70.1285551  65.3299262  44.3212415  69.4347069  65.6408552
  45.9761998  79.8249137  66.8568335  45.9338177  80.0509983  65.9276867
  46.8924697  79.5912512  67.0054136  55.1525369  73.4151640  64.4598293
  55.0143268  73.6053236  63.5319482  54.7961588  74.1771023  64.9166344
  43.3167495  67.4009736  70.5395305  43.9566875  67.2598495  69.8418268
  42.4845026  67.1144249  70.1633907  44.0927799  76.7012166  66.6530297
  44.8868398  76.2062486  66.4512872  43.3819492  76.1730029  66.2898003
  40.4010563  70.8455248  62.7290050  39.4708151  70.7839703  62.9460012
  40.4968035  70.3231201  61.9326691  40.3196112  67.3710061  65.3168292
  40.5802929  68.2855394  65.2077452  41.1413284  66.9034503  65.4664904
  41.7921037  68.7847818  72.4867116  42.4644090  68.5765180  71.8379765
  40.9650824  68.5869904  72.0472348  47.6946609  65.4109759  74.5032777
  47.0474524  66.1099708  74.4097253  48.4647624  65.8445903  74.8709025
  47.2647227  82.3750284  61.6753671  47.4398983  81.9038328  62.4899294
  46.5780015  83.0016051  61.9034932  48.2204290  76.6522791  67.7216972
  47.8854123  76.6123561  68.6174622  47.7208236  75.9867507  67.2487382
  42.1948534  72.0590421  73.2469553  42.0568332  71.3270660  73.8481092
  43.1053458  71.9699321  72.9653741  51.1563482  73.9978825  57.9954032
  50.5392653  73.2725653  57.8987084  50.6879970  74.7588185  57.6521106
  44.8230835  71.7710380  72.7353233  45.5330453  71.1303572  72.6939851
  44.7800143  72.0223275  73.6579414  43.5359769  68.7575598  74.5548872
  42.9997126  68.3066336  75.2070469  42.9476477  68.8921507  73.8119337
  42.9462028  68.2164249  57.1175336  42.0691494  68.0953050  56.7537583
  43.4219781  67.4250328  56.8654225  34.4664168  73.0041409  67.2116843
  35.1535208  72.6903139  66.6237859  34.3112297  73.9082774  66.9384095
  39.2698890  67.8931606  71.6401867  39.1857079  67.2857275  70.9052277
  38.4481597  68.3840624  71.6411363  46.1325954  80.5690540  64.3637857
  45.3493476  81.1112220  64.4576081  46.8318699  81.0864519  64.7632098
  49.4422604  66.3785169  67.0072062  49.9391304  65.6255131  66.6873132
  48.6709585  66.4149486  66.4415271  50.5252385  75.1356856  64.5810485
  49.5908663  75.2558319  64.4115190  50.7029053  74.2329323  64.3170495
  46.0257573  68.5202552  66.7343747  45.6555360  67.9673593  67.4224652
  46.5216665  67.9160686  66.1818747  53.9124936  70.9774176  65.1160520
  54.3785388  71.8102167  65.0420822  54.3632437  70.5119157  65.8205778
  51.9801167  77.3217997  62.1146672  52.2561011  77.2074592  63.0240546
  51.1105666  76.9235482  62.0758845  51.8841599  63.3454763  69.1551421
  50.9704679  63.5758989  69.3233628  52.3134700  63.4293207  70.0065453
  48.6155231  81.5704348  65.7579485  48.7977626  80.7526004  66.2207237
  49.4388217  81.7872040  65.3204375  48.9497397  80.4972533  63.0194534
  49.4785163  79.9864988  62.4064696  49.2125616  80.1815063  63.8840067
  39.4514489  78.5136402  70.7629867  40.0367926  77.7680090  70.8957771
  39.2539328  78.8240359  71.6466531  42.3053145  81.5487650  65.7792310
  41.6363520  82.0333777  65.2956350  42.1666014  81.7956870  66.6935688
  34.0432144  71.0842002  69.4834310  34.0816244  70.5505593  70.2771428
  33.5372437  70.5577208  68.8645288  41.4222906  65.9306543  72.9796853
  41.4864233  66.7921374  72.5674250  41.3590027  65.3180545  72.2469211
  40.8975179  68.0029675  76.6269887  41.5247218  67.6206753  77.2407411
  40.0403098  67.7843877  76.9925579  37.6740722  69.8106105  62.5588242
  37.9694163  68.9016783  62.5055295  36.7728757  69.7893844  62.2369244
  41.2034969  67.8862101  68.5415790  40.4821554  68.4998069  68.4023264
  41.9928224  68.4219866  68.4632436  44.0061282  65.2216528  74.8156442
  44.5295684  65.4678824  75.5782751  43.7873615  66.0536562  74.3959579
  39.4028563  67.4920202  62.6827567  39.0741269  66.6117581  62.5002673
  39.7567934  67.4367871  63.5703956  48.6508142  79.1275105  67.1922552
  48.5033105  78.1991812  67.3730122  49.4761636  79.1495196  66.7079628
  42.5170386  67.7793172  63.0503045  42.8566459  68.3079093  62.3281653
  42.9642507  68.1173578  63.8261611  45.2113827  66.1630223  72.5006113
  44.8710648  65.3638036  72.9026792  44.5052834  66.4631934  71.9282946
  45.8630299  63.2479535  70.9533436  46.6856368  62.7740013  70.8312326
  46.1068363  64.0270019  71.4532122  44.5038534  66.2767794  61.2496337
  45.2246896  66.6549046  60.7460054  43.8803838  66.9956670  61.3531315
  48.6469656  66.9812943  62.1854670  48.8633271  67.8637580  61.8843498
  48.1663724  66.5899156  61.4560312  43.3868878  69.9398656  68.7625414
  43.2413459  70.2538959  69.6549696  42.9094081  70.5583556  68.2096313
  45.2465261  66.9301204  68.8106304  45.2326829  66.0342297  68.4738602
  45.9637689  66.9371868  69.4444590  47.0991391  67.3638544  70.8559431
  46.8409169  68.2855615  70.8543762  46.5676432  66.9668979  71.5459895
  52.0437580  80.4689331  63.6349517  52.2174458  79.9035754  62.8823369
  52.5366471  81.2690226  63.4529007  37.8614540  72.4804000  71.7013075
  37.3168008  73.2563808  71.8333350  38.7393890  72.8274805  71.5432197
  44.6502157  65.8115584  64.0793874  44.7718068  64.8832230  64.2784761
  44.3604199  65.8254270  63.1672189  47.5193347  63.4970495  67.2160594
  47.5415044  63.5609828  66.2612573  47.9361406  62.6575003  67.4101100
  57.8976971  73.2325754  65.2539816  58.3408117  72.4833079  64.8558940
  57.0203482  73.2235890  64.8713548  53.0312753  79.7856096  60.7346415
  53.7263657  80.4062788  60.9533730  53.3735903  78.9351447  61.0098793
  38.6480562  71.6073896  74.5943232  37.9062298  71.7556532  75.1807863
  38.3273306  71.8682162  73.7309982  54.9304176  77.2355801  62.2633746
  55.4555500  77.5743074  61.5383066  54.8426528  76.3002816  62.0796880
  39.0937176  79.4939325  66.6253627  39.9195195  79.1943097  66.2452270
  38.7431228  78.7246948  67.0743416  44.0618709  78.8465793  68.6951301
  43.4398718  78.1836498  68.3953528  44.7323576  78.8726925  68.0124948
  37.2945781  77.4125652  67.5842561  36.4577689  76.9847826  67.4026562
  37.2669426  77.6058095  68.5213352  43.6232216  77.3969717  62.1709761
  43.7720336  78.0805181  61.5176434  44.4298659  77.3774807  62.6859217
  41.3784849  73.4234894  63.1770830  41.1330891  72.5197224  63.3751040
  41.5480763  73.4252045  62.2350308  49.0681558  64.2958571  72.5595586
  49.5863502  65.0319598  72.2342074  48.7136691  64.6022564  73.3942345
  40.6480496  69.1563252  60.6756991  39.9549741  69.2307607  60.0197027
  40.4032248  68.3923596  61.1978508  49.3194153  60.7158853  68.0796482
  49.5995906  60.0482042  68.7056909  50.1044760  60.9087949  67.5671146
  47.1227621  79.8917847  59.6421508  46.5501588  80.5108034  59.1891980
  47.6960415  80.4417209  60.1761430  51.2117390  66.2232071  72.0127458
  50.6167323  66.5037083  71.3173947  50.9267087  66.7125971  72.7844199
  50.3424881  80.1754997  60.7730091  51.2755554  80.1100559  60.9762966
  50.2548094  81.0111264  60.3144623  52.9712898  79.4920868  57.7334038
  52.8926529  79.1580731  58.6269796  53.7922564  79.9842636  57.7325511
  47.5074420  71.2278660  56.9837561  48.4533524  71.0984868  57.0525979
  47.1288665  70.4893322  57.4606989  53.4796304  62.8934666  66.9464453
  53.2821125  62.5849754  67.8307785  54.0896010  63.6196305  67.0762383
  45.6917337  69.1528636  56.9192446  44.7848792  68.8561749  56.9955160
  45.9693318  68.8558454  56.0526732  36.6095277  70.4735000  67.3691493
  36.2898062  69.6200308  67.0765867  36.0628705  70.6883578  68.1249460
  40.3875185  73.1897441  71.0860999  40.6061194  74.1214549  71.1049033
  40.8000959  72.8305415  71.8715803  47.3079403  63.6965526  63.0736688
  46.4980131  63.3512611  63.4491934  47.9963819  63.3873070  63.6624299
  49.2369951  62.7743573  64.6960984  49.7900989  63.1939026  65.3551007
  49.4740037  61.8479321  64.7383940  44.4616121  66.0115572  57.0604425
  45.3235285  66.3370470  57.3200243  44.6466466  65.2247067  56.5477491
  36.4783537  74.0937911  69.3384614  35.7847009  73.6791864  68.8254569
  37.2256528  74.1358448  68.7418033  52.6148758  64.8844098  64.2039648
  52.0347427  65.5428902  63.8217701  52.3484691  64.0621443  63.7927066
  51.0652324  64.2849156  66.4060969  51.5652103  64.3965690  65.5975288
  51.7087932  63.9810209  67.0461777  38.3920280  74.0256165  67.2150629
  38.3690968  74.1243852  66.2632512  38.7020916  74.8721316  67.5367795
  41.0507658  76.0832320  71.3297243  42.0050911  76.0516262  71.2627175
  40.8520181  75.6222944  72.1447469  51.3973636  67.0444188  63.2595997
  50.5099491  67.3293839  63.0416191  51.8127625  66.8837952  62.4123274
  54.7488172  67.0690709  66.9750336  55.5248562  67.5587162  67.2474953
  54.0236306  67.4948764  67.4322205  57.1860731  67.7818329  68.0324277
  57.7805221  67.5414065  67.3217585  57.2587314  67.0625459  68.6597813
  39.4057886  81.6251940  68.3467441  39.2712354  80.8652340  67.7805439
  38.9889949  82.3492839  67.8796230  50.5416849  76.8088863  57.3544017
  51.2452699  77.0138866  57.9701672  49.8179498  77.3765625  57.6193100
  51.3714660  72.5598724  63.4746287  51.3149861  73.0167276  62.6353919
  51.9243002  71.7989409  63.2969130  55.1819466  68.3488456  64.2996406
  54.9256400  67.9485092  65.1304614  54.5572334  69.0632250  64.1746545
  59.4931803  71.0884529  66.8067698  58.9331361  71.1577719  67.5799260
  58.8875307  70.9125514  66.0867194  52.4503547  77.2471392  59.4042477
  53.2849151  76.8152591  59.2219952  52.2887890  77.0753406  60.3319371
  52.1049439  73.7503506  60.7698816  52.0498243  73.5847777  59.8287260
  51.4795494  74.4579539  60.9261006  36.8941954  68.9871570  74.5960238
  37.5400818  68.4770524  75.0847463  36.6859105  69.7240252  75.1703663
  45.4145564  63.2511615  60.3484134  45.4024234  64.1953455  60.5052405
  46.3068986  63.0681760  60.0543596  49.2297684  59.8454391  64.6030071
  48.4630080  59.2912878  64.7486754  49.6408389  59.9176260  65.4644223
  55.5885808  86.4856719  58.7676118  55.8411328  85.9638240  58.0059581
  54.6510367  86.3222864  58.8702802  57.2919124  82.8784872  59.6708531
  57.4593527  83.7465108  60.0379002  57.1016293  83.0412153  58.7469820
  53.9117402  83.7008940  59.9177429  53.0754714  84.0383626  60.2386704
  53.7722172  83.5657919  58.9804566  55.8870483  78.5445727  64.6256613
  55.2334895  78.2294745  64.0013228  55.8450957  77.9221468  65.3516436
  56.9981688  88.8265023  56.5409906  56.0908749  88.5954276  56.7401055
  57.4952720  88.0302642  56.7283887  51.2404317  86.1747165  62.7290050
  50.3101905  86.1131621  62.9460012  51.3361789  85.6523118  61.9326691
  53.7855782  83.5456167  57.1175336  52.9085249  83.4244968  56.7537583
  54.2613535  82.7542245  56.8654225  48.5134476  85.1398022  62.5588242
  48.8087917  84.2308701  62.5055295  47.6122512  85.1185762  62.2369244
  50.2422318  82.8212120  62.6827567  49.9135024  81.9409499  62.5002673
  50.5961688  82.7659789  63.5703956  55.3432288  81.6059711  61.2496337
  56.0640651  81.9840964  60.7460054  54.7197592  82.3248588  61.3531315
  55.4895911  81.1407502  64.0793874  55.6111822  80.2124148  64.2784761
  55.1997954  81.1546188  63.1672189  51.4874251  84.4855170  60.6756991
  50.7943496  84.5599525  60.0197027  51.2426003  83.7215513  61.1978508
  58.3468174  86.5570578  56.9837561  59.2927279  86.4276786  57.0525979
  57.9682419  85.8185240  57.4606989  56.5311091  84.4820554  56.9192446
  55.6242547  84.1853667  56.9955160  56.8087072  84.1850372  56.0526732
  58.1473157  79.0257444  63.0736688  57.3373885  78.6804529  63.4491934
  58.8357574  78.7164987  63.6624299  55.3009876  81.3407489  57.0604425
  56.1629040  81.6662388  57.3200243  55.4860220  80.5538985  56.5477491
  56.2539319  78.5803532  60.3484134  56.2417989  79.5245372  60.5052405
  57.1462741  78.3973678  60.0543596  60.0691438  75.1746309  64.6030071
  59.3023834  74.6204796  64.7486754  60.4802143  75.2468178  65.4644223
  17.7212805   3.4535495  56.2242960  18.3591215   3.3342243  55.5206300
  17.6033648   4.4016339  56.2830912  14.5302511   3.4062923  56.1604485
  14.1921023   3.2903988  55.2725020  15.3992280   3.0054088  56.1405491
  15.9688886   8.9269368  47.4615841  15.3176866   9.5123448  47.0749854
  16.7633249   9.4575562  47.5210878   9.8944513   6.0158505  47.8602975
  10.6675389   5.4687492  47.7215851  10.2469912   6.8802754  48.0717436
  12.6585762   4.7211735  57.6571234  13.2549335   4.4967758  56.9428197
  12.7160734   3.9796481  58.2596682  17.2754074   1.1786949  53.2996168
  18.0617163   0.7606372  52.9486585  17.5392778   2.0833041  53.4677817
  17.4464151   6.6159799  47.9984825  16.8109984   6.6894426  48.7105730
  17.1161557   7.2053398  47.3203904  22.6762501   1.1162182  54.2029147
  23.4087673   0.5461399  54.4366976  21.9201856   0.7283783  54.6435652
  14.2938621   3.5389424  51.3992489  13.9296828   3.0120045  52.1105411
  15.1505736   3.1487893  51.2258975  16.6919441   7.0296302  58.0619668
  16.3920164   7.9321341  57.9535475  16.3470500   6.7628486  58.9140821
  20.0916584  -0.4521157  55.7417105  19.1833462  -0.5205749  55.4475866
  20.0404180   0.0250788  56.5698931  11.6740220  13.7940623  51.0290636
  11.5964250  14.7448448  51.1079116  11.0701864  13.4486495  51.6865562
  19.6118395   1.4958454  48.2080838  20.5236251   1.7285841  48.0328536
  19.1028042   2.0795498  47.6455917  18.2187977   6.4784273  55.5994420
  17.5896839   6.6429987  54.8970488  17.8313639   6.8925882  56.3705384
  22.0977209   7.4138711  52.9538784  21.4128247   7.7937612  52.4035817
  22.1821058   8.0234037  53.6870731  19.3528140   5.0598670  59.5534127
  19.5645036   5.7030429  58.8768508  19.3057889   4.2260986  59.0856057
  13.7715939   6.2158681  52.8644505  14.2354284   6.4946384  52.0749128
  13.5072737   5.3142125  52.6817596  10.6640020   5.7630162  55.8024268
  11.2341377   6.1917431  55.1641753  11.2548132   5.4812747  56.5008454
  20.4673968   7.9370625  57.7256485  21.2891412   7.5350812  57.4439166
  20.4636371   7.8338859  58.6772600  14.2330572   7.4854668  59.8817195
  14.2975004   7.9475075  60.7175367  13.5241496   6.8552033  60.0099505
  28.5579961   4.2809373  54.0741456  27.8043670   3.7116772  53.9185460
  28.6927503   4.2472038  55.0212091  13.9478589   9.1522776  49.7496175
  13.8124264   9.9974311  50.1781023  14.4888402   9.3542053  48.9862109
   9.2102871   9.7863970  52.4046854   9.3869500  10.7081935  52.2167838
  10.0059705   9.4722389  52.8341233  10.3334187  11.3042144  58.4057196
  10.8841612  11.1759207  57.6334190   9.4945663  11.6037033  58.0552089
  17.6728304  10.0549142  61.9077919  17.6546779  10.8758023  61.4158188
  18.5948224   9.9303217  62.1328060  17.2621336   2.6661949  46.7867504
  16.7467959   3.4366553  47.0255891  16.9898644   1.9927085  47.4100565
  22.2355610   5.4194303  48.7220677  21.4585053   5.0805463  48.2775840
  22.9147091   5.4246927  48.0475643  15.4954071   6.6979264  50.2620239
  14.9675432   5.9632024  49.9493477  14.9941573   7.4753940  50.0160207
  20.4746917   4.8928285  55.3787285  19.8170591   5.5827546  55.4667414
  21.2787316   5.2824717  55.7221272  19.2852376   3.2472657  53.4291227
  19.7984257   3.8802649  53.9312937  19.9353599   2.6473853  53.0634587
  13.6406671   4.5159474  43.2655212  12.7333733   4.2848728  43.4646361
  14.1377703   3.7197094  43.4529194  16.5474750  13.2256982  46.1851898
  15.8736449  13.5288678  46.7936856  16.9340572  14.0286062  45.8357355
  16.5468254   2.1213529  50.8052248  17.2940073   2.6334926  50.4959370
  16.8159844   1.7997581  51.6656642  14.8194904   4.6172069  47.7879202
  13.9106124   4.3331102  47.8851672  14.8489988   5.0371148  46.9282509
  20.0514172   8.2278659  51.5570370  19.5976499   7.3869569  51.6135560
  19.4208138   8.8640057  51.8945150  18.4947111  10.0655155  52.4920188
  18.7870085  10.6260213  51.7732554  19.0045732  10.3583716  53.2473347
  14.5170992   6.1580813  45.1267281  14.0790422   5.4416672  44.6672918
  15.2581433   6.3856928  44.5652372  13.4580736  10.8435507  53.5813641
  13.4156915  11.0696353  52.6522173  14.3743435  10.6098881  53.7299442
  22.6344107   4.4338010  51.1843599  22.4962005   4.6239606  50.2564789
  22.2780326   5.1957393  51.6411651  22.6613486   6.5014537  56.1954871
  23.0949993   6.4089826  57.0437925  23.3745067   6.4772037  55.5574887
  11.5746537   7.7198536  53.3775604  12.3687135   7.2248856  53.1758179
  10.8638229   7.1916399  53.0143309  16.3941381  10.1016631  57.7287972
  16.4478404  10.6707567  58.4965687  15.5256163  10.2718516  57.3642009
  23.5229036   6.5438238  58.7287756  23.7164926   7.4484048  58.9747031
  23.4229654   6.0845657  59.5626341  15.3529481   4.2676893  59.2874903
  16.2821541   4.4188053  59.1143871  14.9320511   4.3560914  58.4323550
  14.1517813   8.2927558  57.0573441  14.0128899   7.9246342  57.9299379
  13.3632409   8.8075197  56.8857399  14.7465965  13.3936654  48.3998978
  14.9217721  12.9224697  49.2144600  14.0598753  14.0202420  48.6280238
  15.7023028   7.6709160  54.4462279  15.3672861   7.6309930  55.3419929
  15.2026974   7.0053876  53.9732689  18.6382220   5.0165195  44.7199338
  18.0211390   4.2912023  44.6232391  18.1698708   5.7774555  44.3766413
  20.2936351   9.7264103  62.3805119  20.2348898   9.0423323  61.7135702
  20.6955870  10.4683093  61.9285745   9.3127050  16.5426017  55.1738838
   9.5523648  17.1744541  55.8517856   8.4696247  16.1914057  55.4604197
  20.2953759   7.6903687  60.6119098  19.4080537   7.3529609  60.7345497
  20.8652310   6.9586718  60.8487864  13.8254912  12.3505139  57.5780342
  13.7525084  13.1560111  58.0899646  13.3832305  12.5497105  56.7528363
  13.6144692  11.5876909  51.0883163  12.8312214  12.1298589  51.1821388
  14.3137437  12.1050889  51.4877404  24.7771099   3.1011904  55.3735660
  24.7660975   3.9836620  55.0029593  23.9088479   2.7483455  55.1790197
  16.2853596  12.2491973  59.7338500  16.9981568  12.8839438  59.6614402
  15.7943624  12.3455839  58.9178502  18.0071122   6.1543226  51.3055792
  17.0727401   6.2744688  51.1360496  18.1847791   5.2515693  51.0415802
  21.3943674   1.9960545  51.8405826  21.8604126   2.8288537  51.7666129
  21.8451174   1.5305527  52.5451085  11.3365509   9.9986417  60.5544071
  12.0374969  10.6322900  60.7073465  10.8660624  10.3401148  59.7939710
  19.4619905   8.3404367  48.8391978  19.7379749   8.2260961  49.7485852
  18.5924404   7.9421851  48.8004151  19.1366795   2.5531024  58.3796621
  18.4838245   2.8006932  57.7249074  19.5147175   1.7395162  58.0459099
  16.0973969  12.5890717  52.4824792  16.2796363  11.7712373  52.9452544
  16.9206955  12.8058410  52.0449682  16.4316134  11.5158902  49.7439840
  16.9603901  11.0051357  49.1310002  16.6944354  11.2001433  50.6085373
   6.9333227   9.5322772  57.4875174   7.5186664   8.7866460  57.6203078
   6.7358066   9.8426728  58.3711838   9.7871882  12.5674019  52.5037616
   9.1182258  13.0520147  52.0201656   9.6484752  12.8143240  53.4180995
  13.9277151  14.6017763  59.1020275  14.4795459  14.7649384  59.8669360
  14.2683344  15.1922201  58.4300299  17.0645538  12.5499738  56.0883957
  16.9396678  11.7489478  55.5794902  17.7224629  13.0445932  55.5997927
  19.1280447  10.3508758  57.7163507  18.1810782  10.2314109  57.6441834
  19.4763220   9.4631256  57.7989768  16.1326880  10.1461475  53.9167859
  15.9851842   9.2178182  54.0975429  16.9580373  10.1681565  53.4324934
  19.7361002  10.9690033  55.0032732  20.6607549  10.7632895  54.8657183
  19.5676305  10.7206434  55.9122073  19.5256318  11.4875701  50.3594823
  19.6993196  10.9222123  49.6068676  20.0185209  12.2876596  50.1774313
  25.3795709   4.2512124  51.9785123  25.8226855   3.5019449  51.5804246
  24.5022219   4.2422260  51.5958855  20.5131490  10.8042465  47.4591722
  21.2082395  11.4249158  47.6779036  20.8554641   9.9537816  47.7344099
  22.4122914   8.2542171  48.9879052  22.9374238   8.5929443  48.2628372
  22.3245266   7.3189186  48.8042187  14.0742962  12.1676244  61.1168929
  14.3830089  11.9225391  61.9891629  14.8718444  12.3722883  60.6287799
  14.0963574  14.3214154  53.3474305  13.6568565  13.8290533  54.0407162
  14.8471691  13.7787122  53.1066381   6.5755913  10.5125695  53.3498934
   7.4013933  10.2129467  52.9697577   6.2249965   9.7433317  53.7988722
  11.5437446   9.8652163  55.4196607  10.9217456   9.2022868  55.1198835
  12.2142313   9.8913295  54.7370255  22.1016820   8.8875074  64.2930250
  21.3112363   8.8699213  63.7534750  21.8650174   9.4263368  65.0479287
  22.2214695   5.7367541  61.6062979  22.2712700   5.5717548  62.5478502
  22.1128618   4.8694800  61.2160860  11.1050953   8.4156086  48.8955068
  11.2539074   9.0991551  48.2421740  11.9117397   8.3961176  49.4104523
  23.7232892   8.1564482  61.8505000  23.4317700   8.5194463  62.6868461
  23.1105023   7.4431490  61.6718332  24.9228574   5.7217362  54.3707571
  25.7575465   6.1607166  54.5345131  25.0587703   5.2456015  53.5515816
  21.9720080   3.2797097  60.3185058  22.4474201   3.4724743  59.5103910
  21.0485645   3.3356283  60.0728442  14.6046359  10.9104217  46.3666815
  14.0320326  11.5294404  45.9137287  15.1779153  11.4603578  46.9006737
  20.6721749   0.1562857  58.5513364  21.6239172   0.2560955  58.5725588
  20.5025199  -0.6358875  59.0611448  17.8243619  11.1941367  47.4975397
  18.7574292  11.1286929  47.7008273  17.7366832  12.0297634  47.0389930
  20.4531635  10.5107237  44.4579345  20.3745267  10.1767101  45.3515103
  21.2741302  11.0029005  44.4570817  23.1509827   3.3768977  57.6655664
  23.1186147   2.4384977  57.8515347  23.7610450   3.4553013  56.9321488
  23.3004315   0.1680020  57.7113947  22.7843364  -0.6161523  57.5243876
  24.1844264  -0.1601263  57.8760466  28.9686376   4.4384983  56.8061700
  29.6989765   4.1770272  57.3669404  28.3593322   3.7013705  56.8463768
  27.0501674   2.5792846  57.4036152  26.3234837   2.4448811  56.7952643
  26.6348960   2.8869675  58.2092870  22.2306910  -1.9122921  53.6995643
  23.0067300  -1.4226469  53.9720259  21.5055044  -1.4864867  54.1567512
  24.6679468  -1.1995302  54.7569583  25.2623959  -1.4399566  54.0462891
  24.7406052  -1.9188171  55.3843119   6.8876624  12.6438309  55.0712748
   6.7531092  11.8838710  54.5050746   6.4708686  13.3679209  54.6041537
  18.0235587   7.8275233  44.0789323  18.7271437   8.0325235  44.6946979
  17.2998236   8.3951995  44.3438407  18.8533397   3.5785094  50.1991593
  18.7968599   4.0353645  49.3599226  19.4061740   2.8175779  50.0214436
  22.6638203  -0.6325174  51.0241713  22.4075138  -1.0328539  51.8549921
  22.0391071   0.0818620  50.8991852  26.9750541   2.1070899  53.5313004
  26.4150099   2.1764088  54.3044566  26.3694045   1.9311884  52.8112501
  10.0445750  13.5407626  55.2831191   9.9278134  14.4853059  55.1809881
   9.2238196  13.2381188  55.6716990  19.9322285   8.2657762  46.1287783
  20.7667888   7.8338960  45.9465258  19.7706627   8.0939776  47.0564678
  19.5868177   4.7689875  47.4944123  19.5316981   4.6034147  46.5532567
  18.9614232   5.4765908  47.6506312  11.0700264  14.1935888  58.4987119
  11.9727511  14.2259498  58.8153614  10.8437634  13.2636339  58.5133455
  12.8253866  12.9466875  55.1597198  11.8749497  12.9468736  55.0461570
  13.1286352  12.1999609  54.6433232  25.8516049  19.8889693  62.1190690
  25.8404690  19.4942491  61.2471194  26.0136688  19.1555765  62.7124462
  18.7747514  22.0841509  54.9885596  19.5668805  21.7432334  54.5731895
  19.0144164  22.1936484  55.9087750  22.5723310  22.6726805  61.0669874
  22.2813176  23.5772435  60.9516541  23.2080294  22.7143332  61.7813944
  23.4979517  20.0503653  57.6571234  24.0943089  19.8259676  56.9428197
  23.5554488  19.3088399  58.2596682  28.1147828  16.5078867  53.2996168
  28.9010917  16.0898290  52.9486585  28.3786532  17.4124959  53.4677817
  33.5156255  16.4454100  54.2029147  34.2481427  15.8753317  54.4366976
  32.7595611  16.0575700  54.6435652  31.0381676  10.1575674  58.6623755
  30.7065000  11.0271085  58.4384970  30.4427289   9.8411958  59.3417786
  24.7737862  13.8971241  46.3953838  24.9412264  14.7651478  46.7624309
  24.5835031  14.0598523  45.4715127  20.9825677  18.8102017  54.0956372
  20.0576173  18.6778231  54.3034064  21.2310090  19.5896236  54.5926315
  30.9310339  14.8770760  55.7417105  30.0227216  14.8086169  55.4475866
  30.8797935  15.3542705  56.5698931  18.3434488  18.4535291  54.9300161
  18.4726869  18.7069769  55.8439573  17.6631939  19.0462999  54.6104817
  25.0051205  16.2960406  63.6852003  24.2284539  16.8554326  63.6754867
  25.6441768  16.7817189  64.2066873  32.7971985  13.0787199  57.5194979
  32.1546366  13.3719732  56.8734774  32.2926914  12.9640119  58.3248176
  30.4512149  16.8250372  48.2080838  31.3630005  17.0577759  48.0328536
  29.9421796  17.4087416  47.6455917  23.2597577  19.1045859  63.2469970
  24.0012261  19.6430903  62.9704793  22.5534562  19.7312148  63.4041521
  25.0883987  16.1847606  59.2175688  25.9345182  16.6087020  59.3610337
  25.0282624  15.5281231  59.9114251  28.2383432  13.8451975  60.8756862
  27.9944364  14.5994035  60.3391137  28.5143363  14.2237322  61.7104109
  27.7948124  13.0008408  56.4570699  26.9332603  13.2989661  56.7487437
  27.8210558  13.2178807  55.5251732  21.5033774  21.0922080  55.8024268
  22.0735131  21.5209348  55.1641753  22.0941886  20.8104665  56.5008454
  21.9958941  16.2585507  64.0485280  21.3657601  16.9401788  64.2820676
  21.8895029  16.1468589  63.1038418  17.2903913  15.9257303  54.9751204
  16.5002967  16.1814832  54.4991314  17.7815161  16.7405641  55.0803244
  19.2418659  16.2901883  51.9334680  18.4449822  16.4020577  52.4518176
  19.0144251  16.6288535  51.0675571  15.5741616  16.1787794  57.4066195
  15.8249655  17.0634804  57.6723770  16.1101165  15.9992395  56.6341286
  24.1907644  11.9764152  64.0030787  24.9317358  12.5771306  63.9235250
  24.4225567  11.2341790  63.4448830  19.3348983  17.1620520  62.2809017
  19.2202498  16.2605777  62.5816116  18.4793500  17.4084216  61.9293833
  26.4140820  25.1038260  63.8796517  25.9704674  24.3174638  63.5617422
  27.0758034  25.2917410  63.2140408  21.1727941  26.6334062  58.4057196
  21.7235367  26.5051125  57.6334190  20.3339417  26.9328951  58.0552089
  24.9695112  22.8985189  62.7501427  25.5023449  22.1373478  62.5200735
  24.4409194  22.6058841  63.4925582  28.1364807   8.0045255  58.2795069
  27.7929077   8.8946897  58.2034179  28.5043770   7.8146913  57.4164654
  16.2050658  20.3278786  51.0983671  17.0425880  20.7375794  50.8817379
  16.3828926  19.3878228  51.0683865  25.6862201  12.8403567  51.8452742
  24.8303798  12.4510418  51.6658381  26.0989153  12.9195528  50.9852528
  27.2161348  10.3749910  56.2444302  26.7126143  10.3380046  55.4312107
  27.5091955  11.2842653  56.3040959  23.4604234  10.4588640  55.2510484
  24.3257230  10.2631449  54.8916373  23.5281743  10.2298992  56.1779841
  33.0749364  20.7486221  48.7220677  32.2978807  20.4097381  48.2775840
  33.7540845  20.7538844  48.0475643  21.0666553  12.6890848  52.6226851
  21.6410305  12.4666030  51.8900044  21.6537535  12.7579543  53.3755452
  21.3936140  14.7195309  46.6422736  20.5573452  15.0569996  46.9632011
  21.2540910  14.5844289  45.7049873  23.3689221   9.5632097  51.3501920
  22.7153633   9.2481114  50.7258535  23.3269695   8.9407837  52.0761743
  26.6026961  16.0514031  55.6749568  25.6849522  16.2728978  55.5171256
  27.0187104  16.1260341  54.8161275  27.3862009  17.4505446  50.8052248
  28.1333828  17.9626843  50.4959370  27.6553598  17.1289499  51.6656642
  29.8340846  14.4862562  52.7871037  29.0963603  13.9739949  53.1181280
  30.0867619  14.0462944  51.9754314  29.9352473   7.2638814  53.3812807
  30.2411350   6.4036178  53.0938722  30.6605078   7.8556435  53.1811800
  16.2276829  17.6669501  51.7694404  16.0301229  17.0738862  51.0445471
  15.6723493  17.3621711  52.4870343  24.2073553  17.5592608  53.8888998
  24.2622163  16.6066444  53.8131474  23.3964755  17.7152047  54.3730296
  22.1465913  16.1769667  51.6479376  21.3333778  16.4763838  52.0544569
  22.6424907  15.7825356  52.3653859  33.4737861  19.7629928  51.1843599
  33.3355760  19.9531524  50.2564789  33.1174080  20.5249310  51.6411651
  21.6379988  13.7488023  57.2640611  22.2779367  13.6076782  56.5663575
  20.8057518  13.4622536  56.8879213  22.4140291  23.0490453  53.3775604
  23.2080890  22.5540773  53.1758179  21.7031984  22.5208316  53.0143309
  18.7223055  17.1933535  49.4535357  17.7920643  17.1317990  49.6705319
  18.8180527  16.6709488  48.6571998  18.6408604  13.7188348  52.0413598
  18.9015421  14.6333681  51.9322759  19.4625776  13.2512790  52.1910211
  20.1133529  15.1326105  59.2112423  20.7856583  14.9243467  58.5625072
  19.2863316  14.9348191  58.7717655  26.0159101  11.7588046  61.2278084
  25.3687016  12.4577996  61.1342560  26.7860117  12.1924190  61.5954332
  29.4237899  22.0236898  64.3028637  29.2723406  21.7947450  63.3858721
  29.4142579  22.9807499  64.3159982  20.5161027  18.4068708  59.9714860
  20.3780824  17.6748947  60.5726399  21.4265950  18.3177608  59.6899048
  23.1443327  18.1188667  59.4598540  23.8542946  17.4781859  59.4185158
  23.1012635  18.3701562  60.3824720  21.8572261  15.1053885  61.2794179
  21.3209618  14.6544624  61.9315775  21.2688970  15.2399794  60.5364643
  20.1520805  31.8717934  55.1738838  20.3917403  32.5036459  55.8517856
  19.3090001  31.5205974  55.4604197  21.2674520  14.5642537  43.8420643
  20.3903986  14.4431337  43.4782889  21.7432273  13.7728615  43.5899531
  12.7876660  19.3519696  53.9362150  13.4747700  19.0381426  53.3483165
  12.6324789  20.2561061  53.6629401  17.5911382  14.2409893  58.3647174
  17.5069571  13.6335562  57.6297583  16.7694089  14.7318911  58.3656670
  27.7635096  12.7263456  53.7317369  28.2603796  11.9733419  53.4118439
  26.9922078  12.7627773  53.1660578  24.3470065  14.8680839  53.4589053
  23.9767853  14.3151880  54.1469959  24.8429157  14.2638973  52.9064053
  32.2337428  17.3252463  51.8405826  32.6997881  18.1580454  51.7666129
  32.6844929  16.8597444  52.5451085  22.1759264  25.3278334  60.5544071
  22.8768723  25.9614817  60.7073465  21.7054379  25.6693066  59.7939710
  30.2054091   9.6933050  55.8796727  29.2917171   9.9237277  56.0478934
  30.6347193   9.7771494  56.7310760  26.0248123  18.6242753  64.8662659
  25.3488760  18.5236882  65.5365034  26.8475756  18.4681967  65.3298656
  17.7726982  24.8614689  57.4875174  18.3580418  24.1158377  57.6203078
  17.5751820  25.1718646  58.3711838  12.3644636  17.4320290  56.2079617
  12.4028736  16.8983880  57.0016735  11.8584929  16.9055495  55.5890594
  19.7435399  12.2784830  59.7042159  19.8076725  13.1399661  59.2919557
  19.6802519  11.6658832  58.9714518  19.2187671  14.3507963  63.3515194
  19.8459710  13.9685040  63.9652718  18.3615590  14.1322165  63.7170886
  15.9953214  16.1584392  49.2833548  16.2906655  15.2495070  49.2300602
  15.0941250  16.1372131  48.9614551  19.5247461  14.2340388  55.2661097
  18.8034047  14.8476356  55.1268570  20.3140717  14.7698153  55.1877743
  22.3273774  11.5694815  61.5401749  22.8508176  11.8157111  62.3028058
  22.1086108  12.4014850  61.1204886  17.7241056  13.8398489  49.4072874
  17.3953762  12.9595868  49.2247979  18.0780426  13.7846158  50.2949263
  20.8382879  14.1271459  49.7748351  21.1778951  14.6557381  49.0526960
  21.2854999  14.4651865  50.5506918  23.5326320  12.5108510  59.2251419
  23.1923140  11.7116323  59.6272099  22.8265326  12.8110221  58.6528252
  24.1842791   9.5957822  57.6778742  25.0068861   9.1218301  57.5557633
  24.4280855  10.3748306  58.1777429  22.8251026  12.6246081  47.9741644
  23.5459388  13.0027334  47.4705361  22.2016330  13.3434958  48.0776622
  26.9682149  13.3291230  48.9099976  27.1845763  14.2115868  48.6088804
  26.4876216  12.9377443  48.1805618  21.7081370  16.2876943  55.4870721
  21.5625951  16.6017246  56.3795002  21.2306574  16.9061843  54.9341620
  23.5677753  13.2779491  55.5351610  23.5539322  12.3820584  55.1983908
  24.2850181  13.2850155  56.1689896  25.4203884  13.7116831  57.5804738
  25.1621662  14.6333902  57.5789068  24.8888924  13.3147266  58.2705202
  16.1827032  18.8282287  58.4258382  15.6380500  19.6042095  58.5578656
  17.0606382  19.1753092  58.2677503  22.9714649  12.1593871  50.8039181
  23.0930560  11.2310518  51.0030068  22.6816691  12.1732557  49.8917496
  25.8405839   9.8448782  53.9405900  25.8627536   9.9088115  52.9857880
  26.2573898   9.0053290  54.1346407  16.9693054  17.9552184  61.3188539
  16.2274790  18.1034819  61.9053169  16.6485798  18.2160449  60.4555288
  17.4149668  25.8417612  53.3498934  18.2407688  25.5421384  52.9697577
  17.0643720  25.0725235  53.7988722  22.3831201  25.1944081  55.4196607
  21.7611210  24.5314786  55.1198835  23.0536068  25.2205213  54.7370255
  15.6158273  23.7603939  54.3087867  14.7790181  23.3326113  54.1271868
  15.5881918  23.9536382  55.2458658  22.4555728  13.6725869  65.0129113
  22.5043884  14.5487992  64.6306883  22.9978243  13.1303262  64.4400756
  33.0608449  21.0659458  61.6062979  33.1106454  20.9009466  62.5478502
  32.9522373  20.1986717  61.2160860  30.3512212  17.0490386  62.9222286
  31.2522074  16.9096851  62.6306283  30.4260186  17.2144841  63.8620463
  24.6855017  14.4257241  61.7675472  23.8158326  14.7190807  61.4958060
  24.9214497  15.0097686  62.4882735  27.3894051  10.6436858  59.2840892
  27.9075995  11.3797885  58.9587381  27.0349184  10.9500851  60.1187651
  18.9692988  15.5041539  47.4002298  18.2762233  15.5785894  46.7442334
  18.7244740  14.7401883  47.9223815  27.6406645   7.0637141  54.8041789
  27.9208399   6.3960330  55.4302215  28.4257252   7.2566236  54.2916453
  29.5329883  12.5710358  58.7372765  28.9379815  12.8515370  58.0419253
  29.2479579  13.0604259  59.5089506  34.1398070  15.4971938  57.7113947
  33.6237118  14.7130394  57.5243876  35.0238018  15.1690654  57.8760466
  31.8008796   9.2412953  53.6709759  31.6033618   8.9328041  54.5553091
  32.4108502   9.9674592  53.8007689  25.7125604  21.6274693  65.1683525
  26.6328614  21.8053292  65.3623571  25.6775187  20.6830739  65.0163224
  14.9307769  16.8213287  54.0936799  14.6110554  15.9678595  53.8011173
  14.3841198  17.0361865  54.8494767  18.7087677  19.5375728  57.8106306
  18.9273687  20.4692836  57.8294340  19.1213451  19.1783702  58.5961110
  25.6291895  10.0443813  49.7981994  24.8192623   9.6990898  50.1737240
  26.3176312   9.7351357  50.3869606  27.5582443   9.1221860  51.4206291
  28.1113482   9.5417314  52.0796314  27.7952529   8.1957608  51.4629247
  23.5815542  15.1108934  67.2009055  23.4812269  16.0603291  67.1321146
  23.3637084  14.7827173  66.3285125  22.7828614  12.3593859  43.7849732
  23.6447778  12.6848757  44.0445549  22.9678958  11.5725355  43.2722798
  14.7996029  20.4416198  56.0629921  14.1059501  20.0270151  55.5499875
  15.5469020  20.4836735  55.4663340  30.9361250  11.2322385  50.9284955
  30.3559919  11.8907189  50.5463007  30.6697183  10.4099730  50.5172373
  29.3864817  10.6327443  53.1306275  29.8864595  10.7443978  52.3220594
  30.0300424  10.3288496  53.7707084  23.4446812  18.5406073  66.0174116
  22.9613894  19.3406433  66.2238005  23.5307751  18.5514017  65.0641560
  16.7132772  20.3734452  53.9395936  16.6903460  20.4722140  52.9877819
  17.0233408  21.2199603  54.2613102  19.3720150  22.4310607  58.0542550
  20.3263403  22.3994550  57.9872482  19.1732673  21.9701231  58.8692776
  19.9619532  21.0011723  60.6213348  20.7812421  21.4955802  60.6448185
  20.2356340  20.0843691  60.5930915  29.7186128  13.3922476  49.9841303
  28.8311983  13.6772126  49.7661498  30.1340117  13.2316239  49.1368580
  33.0700664  13.4168997  53.6995643  33.8461054  13.9065449  53.9720259
  32.3448798  13.8427051  54.1567512  35.5073223  14.1296616  54.7569583
  36.1017714  13.8892352  54.0462891  35.5799807  13.4103746  55.3843119
  17.7270379  27.9730227  55.0712748  17.5924847  27.2130628  54.5050746
  17.3102441  28.6971127  54.6041537  29.6927152  18.9077012  50.1991593
  29.6362353  19.3645563  49.3599226  30.2455494  18.1467696  50.0214436
  33.5031958  14.6966743  51.0241713  33.2468892  14.2963379  51.8549921
  32.8784826  15.4110537  50.8991852  20.8839505  28.8699544  55.2831191
  20.7671889  29.8144976  55.1809881  20.0631951  28.5673105  55.6716990
  15.2154446  15.3349857  61.3205545  15.8613310  14.8248811  61.8092770
  15.0071597  16.0718539  61.8948970  27.7407838  22.4030705  66.8197685
  28.6098998  22.5771357  66.4584320  27.2614590  23.2225122  66.6973415
  23.7358057   9.5989902  47.0729441  23.7236727  10.5431742  47.2297712
  24.6281479   9.4160047  46.7788902  21.9094019  29.5227806  58.4987119
  22.8121265  29.5551416  58.8153614  21.6831389  28.5928257  58.5133455
  27.5510176   6.1932678  51.3275378  26.7842572   5.6391165  51.4732060
  27.9620881   6.2654547  52.1889529  33.3527729  44.4524458  51.0290636
  33.2751759  45.4032283  51.1079116  32.7489373  44.1070331  51.6865562
  39.5746671  36.5766917  61.8442131  39.9830027  36.1349328  61.0996763
  38.8523933  36.0019545  62.0976324  39.0777187  29.1743893  60.8756862
  38.8338118  29.9285953  60.3391137  39.3537117  29.5529240  61.7104109
  35.9118081  38.1438504  59.8817195  35.9762513  38.6058911  60.7175367
  35.2029005  37.5135869  60.0099505  50.2367470  34.9393209  54.0741456
  49.4831179  34.3700607  53.9185460  50.3715012  34.9055873  55.0212091
  32.1133438  25.8898191  66.4110531  31.7200384  25.3364390  67.0858175
  32.9299578  26.2008769  66.8017048  37.2534575  40.4330178  63.8796517
  36.8098429  39.6466556  63.5617422  37.9151788  40.6209328  63.2140408
  39.3515813  40.7132978  61.9077919  39.3334288  41.5341859  61.4158188
  40.2735733  40.5887053  62.1328060  35.8088867  38.2277107  62.7501427
  36.3417204  37.4665395  62.5200735  35.2802948  37.9350759  63.4925582
  38.0728890  40.7600466  57.7287972  38.1265913  41.3291403  58.4965687
  37.2043672  40.9302351  57.3642009  40.2631654  37.3528816  64.3028637
  40.1117160  37.1239367  63.3858721  40.2536333  38.3099417  64.3159982
  41.9723860  40.3847938  62.3805119  41.9136407  39.7007158  61.7135702
  42.3743379  41.1266928  61.9285745  30.9914559  47.2009852  55.1738838
  31.2311157  47.8328376  55.8517856  30.1483756  46.8497892  55.4604197
  41.9741268  38.3487522  60.6119098  41.0868046  38.0113444  60.7345497
  42.5439819  37.6170553  60.8487864  35.5042421  43.0088975  57.5780342
  35.4312593  43.8143946  58.0899646  35.0619814  43.2080940  56.7528363
  37.9641105  42.9075809  59.7338500  38.6769077  43.5423273  59.6614402
  37.4731133  43.0039675  58.9178502  37.7761478  43.2474553  52.4824792
  37.9583872  42.4296209  52.9452544  38.5994464  43.4642245  52.0449682
  36.8641877  33.9534671  64.8662659  36.1882514  33.8528800  65.5365034
  37.6869511  33.7973884  65.3298656  31.4659391  43.2257855  52.5037616
  30.7969767  43.7103982  52.0201656  31.3272261  43.4727075  53.4180995
  35.6064660  45.2601598  59.1020275  36.1582968  45.4233220  59.8669360
  35.9470853  45.8506036  58.4300299  40.4575534  40.0862856  64.9568929
  41.0015438  40.6992814  64.4623884  39.8762379  40.6442434  65.4735942
  38.7433047  43.2083574  56.0883957  38.6184187  42.4073313  55.5794902
  39.4012138  43.7029767  55.5997927  40.8067956  41.0092594  57.7163507
  39.8598291  40.8897945  57.6441834  41.1550729  40.1215092  57.7989768
  41.4148511  41.6273869  55.0032732  42.3395058  41.4216730  54.8657183
  41.2463814  41.3790270  55.9122073  35.7530471  42.8260080  61.1168929
  36.0617598  42.5809226  61.9891629  36.5505953  43.0306718  60.6287799
  35.7751083  44.9797989  53.3474305  35.3356074  44.4874368  54.0407162
  36.5259200  44.4370957  53.1066381  43.7804329  39.5458910  64.2930250
  42.9899872  39.5283048  63.7534750  43.5437683  40.0847203  65.0479287
  43.9002204  36.3951376  61.6062979  43.9500209  36.2301383  62.5478502
  43.7916127  35.5278635  61.2160860  41.1905966  32.3782304  62.9222286
  42.0915829  32.2388769  62.6306283  41.2653941  32.5436759  63.8620463
  45.4020401  38.8148318  61.8505000  45.1105209  39.1778298  62.6868461
  44.7892532  38.1015326  61.6718332  50.6473885  35.0968819  56.8061700
  51.3777274  34.8354107  57.3669404  50.0380831  34.3597541  56.8463768
  36.5519359  36.9566611  65.1683525  37.4722368  37.1345210  65.3623571
  36.5168942  36.0122656  65.0163224  34.2840567  33.8697990  66.0174116
  33.8007649  34.6698350  66.2238005  34.3701506  33.8805935  65.0641560
  28.5664133  43.3022144  55.0712748  28.4318601  42.5422545  54.5050746
  28.1496195  44.0263044  54.6041537  38.5801593  37.7322622  66.8197685
  39.4492753  37.9063275  66.4584320  38.1008344  38.5517039  66.6973415
  32.7487773  44.8519723  58.4987119  33.6515020  44.8843334  58.8153614
  32.5225143  43.9220174  58.5133455  47.5303558  50.5473528  62.1190690
  47.5192199  50.1526326  61.2471194  47.6924197  49.8139601  62.7124462
  44.2510819  53.3310640  61.0669874  43.9600685  54.2356271  60.9516541
  44.8867803  53.3727168  61.7813944  49.2100704  53.0172055  58.0619668
  48.9101427  53.9197094  57.9535475  48.8651764  52.7504239  58.9140821
  40.0221997  49.1119126  54.9300161  40.1514378  49.3653605  55.8439573
  39.3419448  49.7046834  54.6104817  46.6838714  46.9544241  63.6852003
  45.9072048  47.5138161  63.6754867  47.3229277  47.4401024  64.2066873
  44.9385086  49.7629695  63.2469970  45.6799770  50.3014739  62.9704793
  44.2322071  50.3895983  63.4041521  50.4140426  51.9058835  61.8442131
  50.8223782  51.4641246  61.0996763  49.6917687  51.3311463  62.0976324
  46.7671496  46.8431442  59.2175688  47.6132691  47.2670855  59.3610337
  46.7070133  46.1865066  59.9114251  49.9170941  44.5035810  60.8756862
  49.6731873  45.2577871  60.3391137  50.1930872  44.8821158  61.7104109
  43.6746450  46.9169343  64.0485280  43.0445110  47.5985624  64.2820676
  43.5682538  46.8052424  63.1038418  38.9691422  46.5841139  54.9751204
  38.1790476  46.8398667  54.4991314  39.4602670  47.3989477  55.0803244
  40.9206168  46.9485718  51.9334680  40.1237331  47.0604412  52.4518176
  40.6931760  47.2872370  51.0675571  46.7511835  53.4730421  59.8817195
  46.8156268  53.9350829  60.7175367  46.0422759  52.8427786  60.0099505
  37.2529125  46.8371629  57.4066195  37.5037164  47.7218639  57.6723770
  37.7888674  46.6576231  56.6341286  42.9527192  41.2190109  66.4110531
  42.5594138  40.6656307  67.0858175  43.7693333  41.5300687  66.8017048
  45.8695153  42.6347988  64.0030787  46.6104867  43.2355141  63.9235250
  46.1013076  41.8925626  63.4448830  41.0136491  47.8204355  62.2809017
  40.8990007  46.9189612  62.5816116  40.1581009  48.0668052  61.9293833
  48.0928329  55.7622095  63.8796517  47.6492183  54.9758474  63.5617422
  48.7545543  55.9501246  63.2140408  42.8515450  57.2917897  58.4057196
  43.4022876  57.1634960  57.6334190  42.0126926  57.5912786  58.0552089
  50.1909567  56.0424895  61.9077919  50.1728043  56.8633776  61.4158188
  51.1129487  55.9178970  62.1328060  46.6482621  53.5569025  62.7501427
  47.1810958  52.7957313  62.5200735  46.1196703  53.2642677  63.4925582
  37.8838167  50.9862621  51.0983671  38.7213389  51.3959629  50.8817379
  38.0616435  50.0462063  51.0683865  42.7454062  43.3474683  52.6226851
  43.3197814  43.1249865  51.8900044  43.3325044  43.4163378  53.3755452
  51.6139982  37.9222650  53.3812807  51.9198859  37.0620013  53.0938722
  52.3392587  38.5140270  53.1811800  37.9064338  48.3253336  51.7694404
  37.7088738  47.7322697  51.0445471  37.3511002  48.0205547  52.4870343
  49.4227633  47.2995327  60.4794270  49.7777021  47.5266800  61.3388736
  50.0699765  47.6313704  59.8571526  43.3167496  44.4071858  57.2640611
  43.9566876  44.2660617  56.5663575  42.4845027  44.1206372  56.8879213
  48.9122645  56.0892384  57.7287972  48.9659667  56.6583320  58.4965687
  48.0437426  56.2594269  57.3642009  40.4010564  47.8517370  49.4535357
  39.4708152  47.7901826  49.6705319  40.4968036  47.3293323  48.6571998
  40.3196113  44.3772183  52.0413598  40.5802930  45.2917516  51.9322759
  41.1413285  43.9096626  52.1910211  41.7921038  45.7909940  59.2112423
  42.4644092  45.5827302  58.5625072  40.9650825  45.5932026  58.7717655
  51.1025408  52.6820733  64.3028637  50.9510915  52.4531285  63.3858721
  51.0930088  53.6391335  64.3159982  47.8710745  50.2552646  59.2874903
  48.8002805  50.4063806  59.1143871  47.4501775  50.3436667  58.4323550
  46.6699076  54.2803311  57.0573441  46.5310162  53.9122095  57.9299379
  45.8813673  54.7950950  56.8857399  48.2204292  53.6584913  54.4462279
  47.8854124  53.6185683  55.3419929  47.7208237  52.9929629  53.9732689
  42.1948536  49.0652543  59.9714860  42.0568333  48.3332782  60.5726399
  43.1053459  48.9761443  59.6899048  44.8230836  48.7772503  59.4598540
  45.5330455  48.1365695  59.4185158  44.7800144  49.0285397  60.3824720
  52.8117615  55.7139856  62.3805119  52.7530161  55.0299076  61.7135702
  53.2137133  56.4558846  61.9285745  43.5359770  45.7637721  61.2794179
  42.9997127  45.3128459  61.9315775  42.9476479  45.8983629  60.5364643
  41.8308314  62.5301770  55.1738838  42.0704912  63.1620294  55.8517856
  40.9877510  62.1789810  55.4604197  52.8135022  53.6779440  60.6119098
  51.9261801  53.3405362  60.7345497  53.3833573  52.9462471  60.8487864
  34.4664169  50.0103532  53.9362150  35.1535209  49.6965262  53.3483165
  34.3112298  50.9144896  53.6629401  39.2698891  44.8993728  58.3647174
  39.1857080  44.2919398  57.6297583  38.4481598  45.3902747  58.3656670
  46.3436176  58.3380892  57.5780342  46.2706347  59.1435864  58.0899646
  45.9013569  58.5372858  56.7528363  49.4422605  43.3847292  53.7317369
  49.9391305  42.6317254  53.4118439  48.6709587  43.4211608  53.1660578
  48.8034859  58.2367726  59.7338500  49.5162831  58.8715191  59.6614402
  48.3124888  58.3331592  58.9178502  43.8546773  55.9862170  60.5544071
  44.5556232  56.6198653  60.7073465  43.3841888  56.3276901  59.7939710
  47.7035632  49.2826588  64.8662659  47.0276269  49.1820718  65.5365034
  48.5263265  49.1265802  65.3298656  39.4514491  55.5198525  57.4875174
  40.0367927  54.7742213  57.6203078  39.2539329  55.8302482  58.3711838
  34.0432145  48.0904125  56.2079617  34.0816245  47.5567716  57.0016735
  33.5372438  47.5639331  55.5890594  46.4458414  60.5893516  59.1020275
  46.9976722  60.7525137  59.8669360  46.7864608  61.1797954  58.4300299
  41.4222908  42.9368666  59.7042159  41.4864234  43.7983496  59.2919557
  41.3590028  42.3242667  58.9714518  40.8975180  45.0091798  63.3515194
  41.5247219  44.6268875  63.9652718  40.0403099  44.7906000  63.7170886
  51.2969289  55.4154773  64.9568929  51.8409193  56.0284732  64.4623884
  50.7156134  55.9734352  65.4735942  37.6740723  46.8168227  49.2833548
  37.9694164  45.9078906  49.2300602  36.7728759  46.7955967  48.9614551
  41.2034970  44.8924224  55.2661097  40.4821556  45.5060191  55.1268570
  41.9928226  45.4281989  55.1877743  44.0061283  42.2278650  61.5401749
  44.5295685  42.4740947  62.3028058  43.7873617  43.0598685  61.1204886
  42.5170388  44.7855295  49.7748351  42.8566460  45.3141216  49.0526960
  42.9642508  45.1235701  50.5506918  45.2113829  43.1692345  59.2251419
  44.8710649  42.3700158  59.6272099  44.5052835  43.4694056  58.6528252
  43.3868879  46.9460778  55.4870721  43.2413460  47.2601081  56.3795002
  42.9094083  47.5645679  54.9341620  45.2465262  43.9363326  55.5351610
  45.2326831  43.0404420  55.1983908  45.9637690  43.9433990  56.1689896
  47.0991393  44.3700667  57.5804738  46.8409171  45.2917737  57.5789068
  46.5676433  43.9731101  58.2705202  37.8614541  49.4866123  58.4258382
  37.3168009  50.2625931  58.5578656  38.7393891  49.8336927  58.2677503
  38.6480563  48.6136019  61.3188539  37.9062299  48.7618654  61.9053169
  38.3273307  48.8744285  60.4555288  46.5924226  58.1551997  61.1168929
  46.9011352  57.9101144  61.9891629  47.3899708  58.3598636  60.6287799
  39.0937177  56.5001448  53.3498934  39.9195197  56.2005220  52.9697577
  38.7431229  55.7309070  53.7988722  44.0618710  55.8527916  55.4196607
  43.4398719  55.1898621  55.1198835  44.7323577  55.8789048  54.7370255
  37.2945782  54.4187774  54.3087867  36.4577690  53.9909949  54.1271868
  37.2669427  54.6120218  55.2458658  44.1343237  44.3309704  65.0129113
  44.1831393  45.2071827  64.6306883  44.6765752  43.7887097  64.4400756
  54.6198083  54.8750827  64.2930250  53.8293627  54.8574966  63.7534750
  54.3831438  55.4139121  65.0479287  46.3642526  45.0841076  61.7675472
  45.4945835  45.3774643  61.4958060  46.6002006  45.6681521  62.4882735
  40.6480497  46.1625375  47.4002298  39.9549742  46.2369730  46.7442334
  40.4032249  45.3985718  47.9223815  61.4867640  50.4260736  56.8061700
  62.2171028  50.1646025  57.3669404  60.8774585  49.6889458  56.8463768
  59.5682937  48.5668599  57.4036152  58.8416101  48.4324564  56.7952643
  59.1530224  48.8745428  58.2092870  47.3913113  52.2858529  65.1683525
  48.3116123  52.4637128  65.3623571  47.3562696  51.3414574  65.0163224
  36.6095278  47.4797122  54.0936799  36.2898063  46.6262431  53.8011173
  36.0628707  47.6945701  54.8494767  40.3875186  50.1959563  57.8106306
  40.6061196  51.1276671  57.8294340  40.8000960  49.8367538  58.5961110
  45.2603051  45.7692769  67.2009055  45.1599778  46.7187126  67.1321146
  45.0424593  45.4411008  66.3285125  36.4783538  51.1000034  56.0629921
  35.7847010  50.6853987  55.5499875  37.2256529  51.1420570  55.4663340
  45.1234321  49.1989908  66.0174116  44.6401403  49.9990268  66.2238005
  45.2095260  49.2097853  65.0641560  38.3920281  51.0318288  53.9395936
  38.3690969  51.1305975  52.9877819  38.7020917  51.8783438  54.2613102
  41.0507659  53.0894443  58.0542550  42.0050912  53.0578385  57.9872482
  40.8520182  52.6285066  58.8692776  41.6407041  51.6595559  60.6213348
  42.4599930  52.1539637  60.6448185  41.9143849  50.7427527  60.5930915
  39.4057888  58.6314062  55.0712748  39.2712356  57.8714463  54.5050746
  38.9889950  59.3554962  54.6041537  36.8941955  45.9933693  61.3205545
  37.5400819  45.4832647  61.8092770  36.6859106  46.7302374  61.8948970
  49.4195347  53.0614540  66.8197685  50.2886507  53.2355192  66.4584320
  48.9402099  53.8808957  66.6973415  43.5881528  60.1811641  58.4987119
  44.4908774  60.2135251  58.8153614  43.3618898  59.2512092  58.5133455
  41.2339446  43.1401310  65.4180559  42.0970908  42.7838115  65.6283884
  40.6604857  42.8015204  66.1055963  61.0787823  64.7703166  56.2242960
  61.7166233  64.6509913  55.5206300  60.9608666  65.7184010  56.2830912
  57.8877529  64.7230594  56.1604485  57.5496041  64.6071659  55.2725020
  58.7567298  64.3221759  56.1405491  53.7464345  66.5766071  52.1501376
  53.1829210  66.4856007  51.3817663  53.6316740  65.7565975  52.6303868
  58.3697312  65.8765446  62.1190690  58.3585953  65.4818244  61.2471194
  58.5317952  65.1431518  62.7124462  51.2928777  68.0717262  54.9885596
  52.0850069  67.7308087  54.5731895  51.5325427  68.1812237  55.9087750
  59.3263904  70.2437038  47.4615841  58.6751884  70.8291119  47.0749854
  60.1208267  70.7743233  47.5210878  55.0904574  68.6602558  61.0669874
  54.7994440  69.5648188  60.9516541  55.7261558  68.7019085  61.7813944
  56.0160780  66.0379406  57.6571234  56.6124353  65.8135429  56.9428197
  56.0735752  65.2964152  58.2596682  60.8039169  67.9327470  47.9984825
  60.1685002  68.0062097  48.7105730  60.4736575  68.5221069  47.3203904
  63.5562939  56.1451427  58.6623755  63.2246264  57.0146838  58.4384970
  62.9608552  55.8287711  59.3417786  60.0494459  68.3463973  58.0619668
  59.7495182  69.2489012  57.9535475  59.7045518  68.0796156  58.9140821
  50.8615751  64.4411044  54.9300161  50.9908132  64.6945522  55.8439573
  50.1813202  65.0338752  54.6104817  55.0315238  75.1108293  51.0290636
  54.9539268  76.0616119  51.1079116  54.4276882  74.7654166  51.6865562
  57.5232468  62.2836159  63.6852003  56.7465802  62.8430079  63.6754867
  58.1623031  62.7692942  64.2066873  62.9693412  62.8126125  48.2080838
  63.8811269  63.0453512  48.0328536  62.4603060  63.3963169  47.6455917
  55.7778841  65.0921612  63.2469970  56.5193525  65.6306656  62.9704793
  55.0715826  65.7187901  63.4041521  61.2534180  67.2350753  61.8442131
  61.6617536  66.7933163  61.0996763  60.5311442  66.6603380  62.0976324
  57.6065250  62.1723360  59.2175688  58.4526445  62.5962773  59.3610337
  57.5463888  61.5156984  59.9114251  61.5762995  67.7951943  55.5994420
  60.9471857  67.9597658  54.8970488  61.1888657  68.2093553  56.3705384
  65.4552227  68.7306381  52.9538784  64.7703265  69.1105283  52.4035817
  65.5396076  69.3401708  53.6870731  60.7564696  59.8327728  60.8756862
  60.5125627  60.5869788  60.3391137  61.0324626  60.2113075  61.7104109
  62.7103158  66.3766340  59.5534127  62.9220054  67.0198100  58.8768508
  62.6632907  65.5428657  59.0856057  57.1290957  67.5326351  52.8644505
  57.5929302  67.8114054  52.0749128  56.8647755  66.6309796  52.6817596
  54.0215038  67.0797833  55.8024268  54.5916395  67.5085101  55.1641753
  54.6123150  66.7980418  56.5008454  54.5140204  62.2461260  64.0485280
  53.8838865  62.9277541  64.2820676  54.4076292  62.1344342  63.1038418
  63.8248986  69.2538296  57.7256485  64.6466430  68.8518483  57.4439166
  63.8211389  69.1506530  58.6772600  57.5905590  68.8022339  59.8817195
  57.6550022  69.2642746  60.7175367  56.8816514  68.1719704  60.0099505
  48.0922880  62.1663547  57.4066195  48.3430918  63.0510557  57.6723770
  48.6282428  61.9868148  56.6341286  71.9154979  65.5977044  54.0741456
  71.1618688  65.0284442  53.9185460  72.0502520  65.5639709  55.0212091
  57.3053607  70.4690446  49.7496175  57.1699282  71.3141982  50.1781023
  57.8463420  70.6709724  48.9862109  53.7920947  56.5482026  66.4110531
  53.3987893  55.9948225  67.0858175  54.6087087  56.8592605  66.8017048
  52.5677889  71.1031641  52.4046854  52.7444518  72.0249605  52.2167838
  53.3634723  70.7890060  52.8341233  56.7088908  57.9639905  64.0030787
  57.4498621  58.5647059  63.9235250  56.9406831  57.2217543  63.4448830
  51.8530246  63.1496273  62.2809017  51.7383761  62.2481530  62.5816116
  50.9974764  63.3959969  61.9293833  58.9322084  71.0914013  63.8796517
  58.4885938  70.3050392  63.5617422  59.5939297  71.2793163  63.2140408
  53.6909205  72.6209815  58.4057196  54.2416630  72.4926878  57.6334190
  52.8520681  72.9204704  58.0552089  61.0303322  71.3716813  61.9077919
  61.0121797  72.1925694  61.4158188  61.9523242  71.2470888  62.1328060
  57.4876376  68.8860942  62.7501427  58.0204713  68.1249231  62.5200735
  56.9590457  68.5934594  63.4925582  60.6196354  63.9829619  46.7867504
  60.1042977  64.7534224  47.0255891  60.3473662  63.3094756  47.4100565
  65.5930628  66.7361974  48.7220677  64.8160071  66.3973134  48.2775840
  66.2722109  66.7414597  48.0475643  58.8529089  68.0146935  50.2620239
  58.3250450  67.2799694  49.9493477  58.3516591  68.7921611  50.0160207
  63.8321935  66.2095955  55.3787285  63.1745609  66.8995217  55.4667414
  64.6362334  66.5992387  55.7221272  62.6427393  64.5640328  53.4291227
  63.1559275  65.1970320  53.9312937  63.2928617  63.9641524  53.0634587
  59.9049768  74.5424652  46.1851898  59.2311466  74.8456349  46.7936856
  60.2915590  75.3453733  45.8357355  59.1208224  62.0389784  55.6749568
  58.2030786  62.2604731  55.5171256  59.5368368  62.1136094  54.8161275
  59.9043272  63.4381199  50.8052248  60.6515091  63.9502596  50.4959370
  60.1734862  63.1165252  51.6656642  63.4089190  69.5446329  51.5570370
  62.9551517  68.7037239  51.6135560  62.7783156  70.1807728  51.8945150
  61.8522129  71.3822826  52.4920188  62.1445103  71.9427883  51.7732554
  62.3620749  71.6751387  53.2473347  57.8746010  67.4748484  45.1267281
  57.4365440  66.7584343  44.6672918  58.6156451  67.7024598  44.5652372
  56.8155754  72.1603177  53.5813641  56.7731933  72.3864024  52.6522173
  57.7318453  71.9266552  53.7299442  60.2621388  62.6287245  60.4794270
  60.6170776  62.8558718  61.3388736  60.9093519  62.9605622  59.8571526
  65.9919125  65.7505681  51.1843599  65.8537023  65.9407277  50.2564789
  65.6355344  66.5125064  51.6411651  54.1561251  59.7363776  57.2640611
  54.7960630  59.5952535  56.5663575  53.3238782  59.4498289  56.8879213
  66.0188504  67.8182208  56.1954871  66.4525011  67.7257497  57.0437925
  66.7320085  67.7939708  55.5574887  54.9321555  69.0366206  53.3775604
  55.7262153  68.5416526  53.1758179  54.2213247  68.5084069  53.0143309
  59.7516399  71.4184302  57.7287972  59.8053422  71.9875238  58.4965687
  58.8831181  71.5886187  57.3642009  52.6314793  61.1201858  59.2112423
  53.3037846  60.9119220  58.5625072  51.8044579  60.9223944  58.7717655
  66.8804054  67.8605908  58.7287756  67.0739944  68.7651719  58.9747031
  66.7804672  67.4013327  59.5626341  58.5340365  57.7463799  61.2278084
  57.8868280  58.4453749  61.1342560  59.3041380  58.1799943  61.5954332
  61.9419163  68.0112651  64.3028637  61.7904669  67.7823203  63.3858721
  61.9323842  68.9683253  64.3159982  58.7104499  65.5844564  59.2874903
  59.6396559  65.7355723  59.1143871  58.2895529  65.6728585  58.4323550
  57.5092831  69.6095228  57.0573441  57.3703917  69.2414013  57.9299379
  56.7207427  70.1242868  56.8857399  58.1040983  74.7104325  48.3998978
  58.2792739  74.2392368  49.2144600  57.4173771  75.3370091  48.6280238
  59.0598046  68.9876831  54.4462279  58.7247879  68.9477601  55.3419929
  58.5601992  68.3221547  53.9732689  53.0342290  64.3944461  59.9714860
  52.8962088  63.6624700  60.5726399  53.9447213  64.3053361  59.6899048
  61.9957238  66.3332865  44.7199338  61.3786408  65.6079693  44.6232391
  61.5273726  67.0942226  44.3766413  55.6624591  64.1064420  59.4598540
  56.3724209  63.4657613  59.4185158  55.6193899  64.3577315  60.3824720
  63.6511369  71.0431774  62.3805119  63.5923915  70.3590994  61.7135702
  64.0530888  71.7850764  61.9285745  54.3753525  61.0929638  61.2794179
  53.8390882  60.6420377  61.9315775  53.7870233  61.2275547  60.5364643
  52.6702068  77.8593687  55.1738838  52.9098666  78.4912212  55.8517856
  51.8271265  77.5081728  55.4604197  63.6528777  69.0071358  60.6119098
  62.7655555  68.6697279  60.7345497  64.2227328  68.2754389  60.8487864
  50.1092646  60.2285646  58.3647174  50.0250835  59.6211315  57.6297583
  49.2875352  60.7194664  58.3656670  57.1829930  73.6672810  57.5780342
  57.1100101  74.4727781  58.0899646  56.7407323  73.8664776  56.7528363
  56.9719710  72.9044580  51.0883163  56.1887232  73.4466260  51.1821388
  57.6712455  73.4218560  51.4877404  68.1346117  64.4179575  55.3735660
  68.1235993  65.3004290  55.0029593  67.2663497  64.0651126  55.1790197
  59.6428614  73.5659644  59.7338500  60.3556586  74.2007109  59.6614402
  59.1518642  73.6623510  58.9178502  61.3646140  67.4710897  51.3055792
  60.4302419  67.5912359  51.1360496  61.5422809  66.5683363  51.0415802
  64.7518692  63.3128216  51.8405826  65.2179144  64.1456208  51.7666129
  65.2026192  62.8473198  52.5451085  54.6940527  71.3154087  60.5544071
  55.3949987  71.9490570  60.7073465  54.2235642  71.6568819  59.7939710
  62.8194923  69.6572037  48.8391978  63.0954767  69.5428632  49.7485852
  61.9499422  69.2589522  48.8004151  62.4941813  63.8698695  58.3796621
  61.8413263  64.1174602  57.7249074  62.8722193  63.0562833  58.0459099
  59.4548987  73.9058388  52.4824792  59.6371381  73.0880044  52.9452544
  60.2781973  74.1226080  52.0449682  59.7891152  72.8326573  49.7439840
  60.3178919  72.3219028  49.1310002  60.0519372  72.5169103  50.6085373
  58.5429386  64.6118506  64.8662659  57.8670023  64.5112635  65.5365034
  59.3657020  64.4557720  65.3298656  50.2908245  70.8490442  57.4875174
  50.8761682  70.1034130  57.6203078  50.0933084  71.1594399  58.3711838
  53.1446900  73.8841690  52.5037616  52.4757276  74.3687818  52.0201656
  53.0059770  74.1310910  53.4180995  57.2852169  75.9185433  59.1020275
  57.8370477  76.0817055  59.8669360  57.6258362  76.5089871  58.4300299
  52.2616662  58.2660583  59.7042159  52.3257989  59.1275414  59.2919557
  52.1983782  57.6534585  58.9714518  51.7368935  60.3383716  63.3515194
  52.3640973  59.9560793  63.9652718  50.8796854  60.1197918  63.7170886
  62.1363043  70.7446691  64.9568929  62.6802947  71.3576649  64.4623884
  61.5549888  71.3026269  65.4735942  60.4220556  73.8667409  56.0883957
  60.2971696  73.0657149  55.5794902  61.0799647  74.3613602  55.5997927
  62.4855465  71.6676429  57.7163507  61.5385800  71.5481780  57.6441834
  62.8338238  70.7798927  57.7989768  54.8455038  57.5570568  61.5401749
  55.3689440  57.8032864  62.3028058  54.6267371  58.3890603  61.1204886
  59.4901898  71.4629145  53.9167859  59.3426860  70.5345853  54.0975429
  60.3155391  71.4849236  53.4324934  63.0936020  72.2857704  55.0032732
  64.0182567  72.0800565  54.8657183  62.9251323  72.0374105  55.9122073
  56.0507583  58.4984263  59.2251419  55.7104403  57.6992076  59.6272099
  55.3446589  58.7985974  58.6528252  57.9385147  59.6992584  57.5804738
  57.6802925  60.6209655  57.5789068  57.4070188  59.3023019  58.2705202
  62.8831336  72.8043371  50.3594823  63.0568213  72.2389794  49.6068676
  63.3760227  73.6044266  50.1774313  48.7008296  64.8158040  58.4258382
  48.1561764  65.5917848  58.5578656  49.5787646  65.1628845  58.2677503
  68.7370727  65.5679794  51.9785123  69.1801873  64.8187120  51.5804246
  67.8597237  65.5589931  51.5958855  63.8706508  72.1210136  47.4591722
  64.5657413  72.7416828  47.6779036  64.2129659  71.2705487  47.7344099
  49.4874318  63.9427937  61.3188539  48.7456054  64.0910572  61.9053169
  49.1667062  64.2036202  60.4555288  65.7697932  69.5709841  48.9879052
  66.2949256  69.9097114  48.2628372  65.6820284  68.6356857  48.8042187
  57.4317980  73.4843915  61.1168929  57.7405107  73.2393062  61.9891629
  58.2293462  73.6890553  60.6287799  57.4538592  75.6381825  53.3474305
  57.0143583  75.1458203  54.0407162  58.2046709  75.0954792  53.1066381
  49.9330931  71.8293365  53.3498934  50.7588951  71.5297137  52.9697577
  49.5824983  71.0600988  53.7988722  54.9012464  71.1819834  55.4196607
  54.2792474  70.5190539  55.1198835  55.5717331  71.2080966  54.7370255
  48.1339536  69.7479692  54.3087867  47.2971445  69.3201866  54.1271868
  48.1063182  69.9412135  55.2458658  54.9736992  59.6601622  65.0129113
  55.0225147  60.5363745  64.6306883  55.5159506  59.1179015  64.4400756
  65.4591838  70.2042745  64.2930250  64.6687381  70.1866884  63.7534750
  65.2225192  70.7431039  65.0479287  65.5789713  67.0535211  61.6062979
  65.6287718  66.8885219  62.5478502  65.4703636  66.1862470  61.2160860
  54.4625971  69.7323757  48.8955068  54.6114092  70.4159221  48.2421740
  55.2692415  69.7128847  49.4104523  62.8693475  63.0366139  62.9222286
  63.7703338  62.8972604  62.6306283  62.9441450  63.2020594  63.8620463
  57.2036280  60.4132994  61.7675472  56.3339590  60.7066560  61.4958060
  57.4395761  60.9973439  62.4882735  67.0807909  69.4732153  61.8505000
  66.7892718  69.8362133  62.6868461  66.4680041  68.7599161  61.6718332
  68.2803592  67.0385033  54.3707571  69.1150483  67.4774837  54.5345131
  68.4162721  66.5623686  53.5515816  65.3295098  64.5964767  60.3185058
  65.8049219  64.7892414  59.5103910  64.4060663  64.6523953  60.0728442
  57.9621377  72.2271887  46.3666815  57.3895344  72.8462075  45.9137287
  58.5354171  72.7771249  46.9006737  64.0296767  61.4730528  58.5513364
  64.9814190  61.5728625  58.5725588  63.8600217  60.6808796  59.0611448
  62.0511146  58.5586111  58.7372765  61.4561078  58.8391124  58.0419253
  61.7660843  59.0480012  59.5089506  61.1818637  72.5109038  47.4975397
  62.1149310  72.4454599  47.7008273  61.0941849  73.3465304  47.0389930
  63.8106653  71.8274908  44.4579345  63.7320285  71.4934772  45.3515103
  64.6316320  72.3196676  44.4570817  66.5084845  64.6936647  57.6655664
  66.4761165  63.7552648  57.8515347  67.1185468  64.7720684  56.9321488
  66.6579333  61.4847691  57.7113947  66.1418382  60.7006147  57.5243876
  67.5419282  61.1566407  57.8760466  72.3261394  65.7552654  56.8061700
  73.0564783  65.4937942  57.3669404  71.7168340  65.0181376  56.8463768
  70.4076691  63.8960517  57.4036152  69.6809855  63.7616482  56.7952643
  69.9923978  64.2037345  58.2092870  58.2306868  67.6150446  65.1683525
  59.1509877  67.7929045  65.3623571  58.1956451  66.6706492  65.0163224
  51.2268940  65.5251481  57.8106306  51.4454950  66.4568589  57.8294340
  51.6394714  65.1659455  58.5961110  56.0996806  61.0984687  67.2009055
  55.9993533  62.0479044  67.1321146  55.8818348  60.7702926  66.3285125
  47.3177293  66.4291952  56.0629921  46.6240764  66.0145904  55.5499875
  48.0650284  66.4712488  55.4663340  55.9628076  64.5281826  66.0174116
  55.4795158  65.3282186  66.2238005  56.0489015  64.5389771  65.0641560
  49.2314035  66.3610205  53.9395936  49.2084724  66.4597893  52.9877819
  49.5414672  67.2075356  54.2613102  51.8901413  68.4186360  58.0542550
  52.8444667  68.3870303  57.9872482  51.6913937  67.9576984  58.8692776
  52.4800795  66.9887476  60.6213348  53.2993684  67.4831555  60.6448185
  52.7537603  66.0719445  60.5930915  50.2451642  73.9605980  55.0712748
  50.1106110  73.2006381  54.5050746  49.8283704  74.6846880  54.6041537
  61.3810605  69.1442903  44.0789323  62.0846455  69.3492906  44.6946979
  60.6573254  69.7119665  44.3438407  62.2108415  64.8952765  50.1991593
  62.1543617  65.3521316  49.3599226  62.7636758  64.1343449  50.0214436
  70.3325559  63.4238570  53.5313004  69.7725117  63.4931759  54.3044566
  69.7269063  63.2479554  52.8112501  53.4020768  74.8575297  55.2831191
  53.2853152  75.8020729  55.1809881  52.5813214  74.5548858  55.6716990
  63.2897303  69.5825433  46.1287783  64.1242906  69.1506631  45.9465258
  63.1281645  69.4107446  47.0564678  62.9443195  66.0857546  47.4944123
  62.8891999  65.9201817  46.5532567  62.3189250  66.7933579  47.6506312
  47.7335710  61.3225610  61.3205545  48.3794573  60.8124564  61.8092770
  47.5252861  62.0594292  61.8948970  60.2589102  68.3906458  66.8197685
  61.1280262  68.5647110  66.4584320  59.7795853  69.2100875  66.6973415
  54.4275282  75.5103559  58.4987119  55.3302529  75.5427169  58.8153614
  54.2012652  74.5804010  58.5133455  56.1828884  74.2634545  55.1597198
  55.2324515  74.2636407  55.0461570  56.4861370  73.5167280  54.6433232
  52.0733201  58.4693227  65.4180559  52.9364662  58.1130032  65.6283884
  51.4998611  58.1307122  66.1055963  68.7271284  80.0522512  56.1604485
  68.3889795  79.9363576  55.2725020  69.5961052  79.6513677  56.1405491
  64.5858100  81.9057988  52.1501376  64.0222965  81.8147925  51.3817663
  64.4710495  81.0857893  52.6303868  62.1322532  83.4009180  54.9885596
  62.9243823  83.0600004  54.5731895  62.3719182  83.5104155  55.9087750
  64.0913285  82.6618093  47.8602975  64.8644161  82.1147080  47.7215851
  64.4438684  83.5262342  48.0717436  66.8554535  81.3671324  57.6571234
  67.4518107  81.1427346  56.9428197  66.9129506  80.6256069  58.2596682
  66.4279563  78.8210759  45.4921425  66.6805084  78.2992280  44.7304888
  65.4904122  78.6576905  45.5948109  71.4722846  77.8246538  53.2996168
  72.2585935  77.4065961  52.9486585  71.7361550  78.7292630  53.4677817
  66.1475852  80.7238865  47.6945800  66.0312110  80.0483769  48.3626884
  66.2578112  80.2371239  46.8777953  68.4907393  80.1849012  51.3992489
  68.1265600  79.6579633  52.1105411  69.3474509  79.7947481  51.2258975
  74.3956694  71.4743345  58.6623755  74.0640018  72.3438756  58.4384970
  73.8002307  71.1579629  59.3417786  68.1312880  75.2138912  46.3953838
  68.2987282  76.0819148  46.7624309  67.9410049  75.3766194  45.4715127
  64.3400695  80.1269688  54.0956372  63.4151191  79.9945902  54.3034064
  64.5885108  80.9063907  54.5926315  74.2885357  76.1938431  55.7417105
  73.3802234  76.1253839  55.4475866  74.2372953  76.6710376  56.5698931
  68.1102101  77.6696569  47.3800504  67.9901726  78.1153620  48.2185985
  67.4154689  78.0181887  46.8214043  61.7009506  79.7702961  54.9300161
  61.8301887  80.0237440  55.8439573  61.0206957  80.3630669  54.6104817
  76.1547003  74.3954869  57.5194979  75.5121384  74.6887403  56.8734774
  75.6501932  74.2807790  58.3248176  68.4459005  77.5015277  59.2175688
  69.2920200  77.9254691  59.3610337  68.3857642  76.8448902  59.9114251
  71.1523142  74.3176079  56.4570699  70.2907621  74.6157332  56.7487437
  71.1785576  74.5346477  55.5251732  64.8608792  82.4089751  55.8024268
  65.4310149  82.8377019  55.1641753  65.4516904  82.1272335  56.5008454
  66.9053597  78.9841422  49.6734070  67.6077641  79.4362465  50.1407997
  66.5734226  78.3425240  50.3013963  60.6478931  77.2424974  54.9751204
  59.8577985  77.4982503  54.4991314  61.1390179  78.0573312  55.0803244
  62.5993677  77.6069553  51.9334680  61.8024840  77.7188248  52.4518176
  62.3719269  77.9456206  51.0675571  58.9316634  77.4955465  57.4066195
  59.1824673  78.3802475  57.6723770  59.4676183  77.3160066  56.6341286
  61.5976759  83.3157802  50.3224100  62.1101280  84.1101052  50.4729665
  62.2499472  82.6184093  50.2557702  62.6924000  78.4788190  62.2809017
  62.5777516  77.5773448  62.5816116  61.8368518  78.7251887  61.9293833
  71.4939825  69.3212926  58.2795069  71.1504095  70.2114568  58.2034179
  71.8618788  69.1314584  57.4164654  59.5625676  81.6446456  51.0983671
  60.4000898  82.0543465  50.8817379  59.7403944  80.7045899  51.0683865
  69.0437219  74.1571238  51.8452742  68.1878815  73.7678088  51.6658381
  69.4564171  74.2363199  50.9852528  70.5736366  71.6917581  56.2444302
  70.0701161  71.6547716  55.4312107  70.8666973  72.6010324  56.3040959
  66.8179252  71.7756311  55.2510484  67.6832248  71.5799120  54.8916373
  66.8856761  71.5466663  56.1779841  71.2476411  77.1848629  48.6127285
  70.9426547  77.4994778  49.4637428  72.2006853  77.2630049  48.6554618
  64.4241571  74.0058519  52.6226851  64.9985323  73.7833700  51.8900044
  65.0112553  74.0747213  53.3755452  64.7511158  76.0362980  46.6422736
  63.9148470  76.3737666  46.9632011  64.6115928  75.9011960  45.7049873
  66.7264238  70.8799768  51.3501920  66.0728651  70.5648785  50.7258535
  66.6844713  70.2575508  52.0761743  67.8375443  81.1619063  43.2655212
  66.9302505  80.9308316  43.4646361  68.3346475  80.3656682  43.4529194
  69.9601979  77.3681701  55.6749568  69.0424540  77.5896648  55.5171256
  70.3762122  77.4428012  54.8161275  70.7437027  78.7673117  50.8052248
  71.4908846  79.2794514  50.4959370  71.0128616  78.4457170  51.6656642
  73.1915864  75.8030233  52.7871037  72.4538621  75.2907619  53.1181280
  73.4442637  75.3630615  51.9754314  73.2927491  68.5806485  53.3812807
  73.5986368  67.7203849  53.0938722  74.0180096  69.1724105  53.1811800
  59.5851847  78.9837172  51.7694404  59.3876247  78.3906532  51.0445471
  59.0298511  78.6789382  52.4870343  67.5648571  78.8760278  53.8888998
  67.6197181  77.9234115  53.8131474  66.7539773  79.0319717  54.3730296
  65.5040931  77.4937338  51.6479376  64.6908796  77.7931509  52.0544569
  65.9999925  77.0993027  52.3653859  64.9955005  75.0655694  57.2640611
  65.6354385  74.9244453  56.5663575  64.1632536  74.7790207  56.8879213
  62.0798073  78.5101206  49.4535357  61.1495661  78.4485661  49.6705319
  62.1755545  77.9877158  48.6571998  61.9983622  75.0356019  52.0413598
  62.2590439  75.9501352  51.9322759  62.8200794  74.5680461  52.1910211
  63.4708547  76.4493776  59.2112423  64.1431601  76.2411138  58.5625072
  62.6438334  76.2515862  58.7717655  69.3734119  73.0755717  61.2278084
  68.7262034  73.7745666  61.1342560  70.1435135  73.5091861  61.5954332
  63.8736044  79.7236379  59.9714860  63.7355842  78.9916617  60.5726399
  64.7840968  79.6345279  59.6899048  66.5018345  79.4356338  59.4598540
  67.2117964  78.7949530  59.4185158  66.4587653  79.6869233  60.3824720
  65.2147279  76.4221556  61.2794179  64.6784636  75.9712294  61.9315775
  64.6263988  76.5567465  60.5364643  64.6249538  75.8810207  43.8420643
  63.7479004  75.7599008  43.4782889  65.1007291  75.0896286  43.5899531
  56.1451678  80.6687367  53.9362150  56.8322718  80.3549097  53.3483165
  55.9899807  81.5728732  53.6629401  60.9486400  75.5577564  58.3647174
  60.8644589  74.9503233  57.6297583  60.1269107  76.0486582  58.3656670
  71.1210114  74.0431127  53.7317369  71.6178814  73.2901089  53.4118439
  70.3497096  74.0795444  53.1660578  67.7045083  76.1848510  53.4589053
  67.3342871  75.6319550  54.1469959  68.2004175  75.5806644  52.9064053
  73.5629109  71.0100721  55.8796727  72.6492189  71.2404947  56.0478934
  73.9922210  71.0939165  56.7310760  61.1302000  86.1782360  57.4875174
  61.7155436  85.4326048  57.6203078  60.9326838  86.4886317  58.3711838
  55.7219654  78.7487960  56.2079617  55.7603754  78.2151551  57.0016735
  55.2159947  78.2223166  55.5890594  63.1010417  73.5952501  59.7042159
  63.1651743  74.4567332  59.2919557  63.0377537  72.9826503  58.9714518
  62.5762689  75.6675633  63.3515194  63.2034728  75.2852711  63.9652718
  61.7190608  75.4489835  63.7170886  59.3528232  77.4752063  49.2833548
  59.6481673  76.5662741  49.2300602  58.4516268  77.4539802  48.9614551
  62.8822479  75.5508059  55.2661097  62.1609065  76.1644027  55.1268570
  63.6715735  76.0865824  55.1877743  65.6848792  72.8862486  61.5401749
  66.2083194  73.1324782  62.3028058  65.4661126  73.7182520  61.1204886
  61.0816074  75.1566160  49.4072874  60.7528780  74.2763539  49.2247979
  61.4355444  75.1013829  50.2949263  64.1957897  75.4439130  49.7748351
  64.5353969  75.9725051  49.0526960  64.6430017  75.7819536  50.5506918
  66.8901337  73.8276181  59.2251419  66.5498158  73.0283994  59.6272099
  66.1840344  74.1277892  58.6528252  67.5417809  70.9125493  57.6778742
  68.3643879  70.4385971  57.5557633  67.7855873  71.6915977  58.1777429
  66.1826044  73.9413752  47.9741644  66.9034406  74.3195004  47.4705361
  65.5591348  74.6602628  48.0776622  70.3257167  74.6458901  48.9099976
  70.5420781  75.5283538  48.6088804  69.8451234  74.2545114  48.1805618
  65.0656388  77.6044614  55.4870721  64.9200969  77.9184917  56.3795002
  64.5881592  78.2229514  54.9341620  66.9252771  74.5947162  55.5351610
  66.9114340  73.6988255  55.1983908  67.6425199  74.6017825  56.1689896
  68.7778902  75.0284502  57.5804738  68.5196679  75.9501573  57.5789068
  68.2463942  74.6314936  58.2705202  59.5402050  80.1449958  58.4258382
  58.9955518  80.9209766  58.5578656  60.4181400  80.4920763  58.2677503
  66.3289667  73.4761542  50.8039181  66.4505578  72.5478188  51.0030068
  66.0391709  73.4900228  49.8917496  69.1980857  71.1616452  53.9405900
  69.2202554  71.2255786  52.9857880  69.6148916  70.3220961  54.1346407
  60.3268072  79.2719854  61.3188539  59.5849808  79.4202490  61.9053169
  60.0060816  79.5328120  60.4555288  58.9733291  85.0771610  54.3087867
  58.1365199  84.6493784  54.1271868  58.9456936  85.2704053  55.2458658
  63.0572359  81.0880852  49.9016137  62.8118401  80.1843182  50.0996347
  63.2268273  81.0898003  48.9595615  70.7469069  71.9604529  59.2840892
  71.2651013  72.6965556  58.9587381  70.3924201  72.2668522  60.1187651
  62.3268006  76.8209210  47.4002298  61.6337251  76.8953565  46.7442334
  62.0819758  76.0569554  47.9223815  70.9981663  68.3804811  54.8041789
  71.2783417  67.7128000  55.4302215  71.7832270  68.5733907  54.2916453
  72.8904901  73.8878028  58.7372765  72.2954833  74.1683041  58.0419253
  72.6054597  74.3771929  59.5089506  69.1861930  78.8924618  43.7082868
  70.1321035  78.7630826  43.7771286  68.8076175  78.1539280  44.1852296
  75.1583814  70.5580624  53.6709759  74.9608636  70.2495712  54.5553091
  75.7683520  71.2842263  53.8007689  67.3704847  76.8174594  43.6437753
  66.4636302  76.5207707  43.7200466  67.6480828  76.5204412  42.7772039
  58.2882787  78.1380958  54.0936799  57.9685572  77.2846266  53.8011173
  57.7416216  78.3529536  54.8494767  62.0662695  80.8543399  57.8106306
  62.2848705  81.7860507  57.8294340  62.4788469  80.4951373  58.5961110
  68.9866913  71.3611484  49.7981994  68.1767641  71.0158569  50.1737240
  69.6751330  71.0519028  50.3869606  70.9157461  70.4389531  51.4206291
  71.4688500  70.8584984  52.0796314  71.1527547  69.5125279  51.4629247
  66.1403632  73.6761530  43.7849732  67.0022796  74.0016428  44.0445549
  66.3253976  72.8893025  43.2722798  58.1571047  81.7583869  56.0629921
  57.4634519  81.3437822  55.5499875  58.9044038  81.8004406  55.4663340
  74.2936268  72.5490056  50.9284955  73.7134937  73.2074860  50.5463007
  74.0272201  71.7267401  50.5172373  72.7439834  71.9495114  53.1306275
  73.2439613  72.0611648  52.3220594  73.3875442  71.6456167  53.7707084
  60.0707790  81.6902123  53.9395936  60.0478478  81.7889810  52.9877819
  60.3808426  82.5367274  54.2613102  62.7295168  83.7478278  58.0542550
  63.6838421  83.7162220  57.9872482  62.5307691  83.2868902  58.8692776
  73.0761146  74.7090146  49.9841303  72.1887001  74.9939797  49.7661498
  73.4915135  74.5483910  49.1368580  76.4275682  74.7336667  53.6995643
  77.2036072  75.2233120  53.9720259  75.7023816  75.1594722  54.1567512
  58.5729464  76.6517528  61.3205545  59.2188328  76.1416482  61.8092770
  58.3646615  77.3886210  61.8948970  67.0933075  70.9157573  47.0729441
  67.0811744  71.8599412  47.2297712  67.9856497  70.7327718  46.7788902
  70.9085194  67.5100349  51.3275378  70.1417590  66.9558836  51.4732060
  71.3195899  67.5822218  52.1889529  28.5606561  -4.2110464  42.9488267
  29.1984971  -4.3303717  42.2451607  28.4427404  -3.2629620  43.0076219
  25.3696267  -4.2583036  42.8849791  25.0314779  -4.3741972  41.9970326
  26.2386035  -4.6591871  42.8650798  25.8516050  -3.1048185  48.8435997
  25.8404691  -3.4995386  47.9716501  26.0136690  -3.8382112  49.4369768
  26.8082642   1.2623408  34.1861147  26.1570621   1.8477488  33.7995161
  27.6027004   1.7929603  34.2456185  20.7338269  -1.6487455  34.5848282
  21.5069145  -2.1958468  34.4461157  21.0863668  -0.7843206  34.7962743
  22.5723311  -0.3211073  47.7915181  22.2813177   0.5834558  47.6761847
  23.2080296  -0.2794545  48.5059250  23.4979518  -2.9434224  44.3816541
  24.0943090  -3.1678202  43.6673504  23.5554490  -3.6849479  44.9841988
  28.2857907  -1.0486160  34.7230132  27.6503740  -0.9751534  35.4351036
  27.9555313  -0.4592561  34.0449211  25.1332376  -4.1256536  38.1237796
  24.7690583  -4.6525915  38.8350717  25.9899492  -4.5158067  37.9504281
  27.5313196  -0.6349657  44.7864975  27.2313920   0.2675382  44.6780782
  27.1864256  -0.9017474  45.6386128  22.5133976   6.1294663  37.7535942
  22.4358006   7.0802488  37.8324423  21.9095620   5.7840536  38.4110869
  28.7352918  -1.7462878  48.5687438  29.1436274  -2.1880467  47.8242070
  28.0130179  -2.3210250  48.8221631  29.0581733  -1.1861687  42.3239727
  28.4290595  -1.0215973  41.6215794  28.6707395  -0.7720078  43.0950691
  32.9370964  -0.2507249  39.6784090  32.2522003   0.1291652  39.1281124
  33.0214814   0.3588077  40.4116038  30.1921896  -2.6047290  46.2779434
  30.4038791  -1.9615530  45.6013815  30.1451644  -3.4384974  45.8101364
  24.6109694  -1.4487279  39.5889812  25.0748040  -1.1699576  38.7994434
  24.3466493  -2.3503834  39.4062902  21.5033776  -1.9015797  42.5269575
  22.0735133  -1.4728529  41.8887059  22.0941887  -2.1833213  43.2253761
  31.3067724   0.2724665  44.4501791  32.1285168  -0.1295147  44.1684473
  31.3030127   0.1692899  45.4017907  25.0724327  -0.1791291  46.6062502
  25.1368760   0.2829116  47.4420674  24.3635251  -0.8093927  46.7344812
  24.7872345   1.4876816  36.4741482  24.6518020   2.3328352  36.9026330
  25.3282158   1.6896094  35.7107416  20.0496627   2.1218010  39.1292160
  20.2263256   3.0435975  38.9413144  20.8453461   1.8076430  39.5586540
  26.4140822   2.1100383  50.6041824  25.9704676   1.3236761  50.2862729
  27.0758035   2.2979533  49.9385715  21.1727943   3.6396184  45.1302503
  21.7235368   3.5113247  44.3579497  20.3339419   3.9391073  44.7797395
  28.5122060   2.3903182  48.6323225  28.4940535   3.2112064  48.1403495
  29.4341980   2.2657258  48.8573367  24.9695114  -0.0952688  49.4746734
  25.5023451  -0.8564400  49.2446042  24.4409195  -0.3879036  50.2170888
  28.1015091  -4.9984011  33.5112811  27.5861715  -4.2279406  33.7501198
  27.8292400  -5.6718875  34.1345872  33.0749366  -2.2451656  35.4465984
  32.2978808  -2.5840497  35.0021146  33.7540847  -2.2399033  34.7720949
  26.3347826  -0.9666696  36.9865546  25.8069188  -1.7013936  36.6738783
  25.8335329  -0.1892019  36.7405514  31.3140672  -2.7717675  42.1032592
  30.6564347  -2.0818414  42.1912721  32.1181072  -2.3821243  42.4466578
  30.1246131  -4.4173302  40.1536534  30.6378013  -3.7843311  40.6558244
  30.7747355  -5.0172107  39.7879894  24.4800427  -3.1486485  29.9900519
  23.5727488  -3.3797232  30.1891668  24.9771459  -3.9448866  30.1774500
  27.3868505   5.5611022  32.9097205  26.7130204   5.8642719  33.5182163
  27.7734327   6.3640102  32.5602662  27.3862010  -5.5432431  37.5297555
  28.1333829  -5.0311034  37.2204677  27.6553599  -5.8648378  38.3901948
  25.6588660  -3.0473890  34.5124509  24.7499879  -3.3314858  34.6096979
  25.6883744  -2.6274812  33.6527816  30.8907927   0.5632699  38.2815676
  30.4370255  -0.2776391  38.3380867  30.2601894   1.1994097  38.6190457
  29.3340867   2.4009196  39.2165495  29.6263841   2.9614253  38.4977860
  29.8439487   2.6937757  39.9718654  25.3564748  -1.5065147  31.8512587
  24.9184178  -2.2229288  31.3918225  26.0975189  -1.2789032  31.2897679
  24.2974492   3.1789547  40.3058948  24.2550671   3.4050393  39.3767480
  25.2137191   2.9452921  40.4544749  27.7440126  -6.3526386  47.2039577
  28.0989513  -6.1254912  48.0634043  28.3912257  -6.0208009  46.5816832
  33.4737863  -3.2307950  37.9088906  33.3355761  -3.0406354  36.9810095
  33.1174081  -2.4688567  38.3656957  33.5007242  -1.1631423  42.9200178
  33.9343749  -1.2556134  43.7683232  34.2138823  -1.1873922  42.2820194
  22.4140293   0.0552576  40.1020911  23.2080891  -0.4397104  39.9003485
  21.7031985  -0.4729561  39.7388616  27.2335137   2.4370671  44.4533278
  27.2872159   3.0061608  45.2210994  26.3649919   2.6072556  44.0887315
  34.3622792  -1.1207722  45.4533063  34.5558682  -0.2161912  45.6992338
  34.2623410  -1.5800303  46.2871648  29.4237900  -0.9700979  51.0273944
  29.2723407  -1.1990428  50.1104027  29.4142580  -0.0130378  51.0405289
  26.1923237  -3.3969067  46.0120210  27.1215297  -3.2457907  45.8389177
  25.7714267  -3.3085046  45.1568857  24.9911569   0.6281598  43.7818748
  24.8522654   0.2600382  44.6544686  24.2026165   1.1429237  43.6102705
  25.5859721   5.7290694  35.1244284  25.7611476   5.2578737  35.9389907
  24.8992509   6.3556460  35.3525545  26.5416784   0.0063201  41.1707585
  26.2066616  -0.0336030  42.0665235  26.0420729  -0.6592084  40.6977996
  29.4775975  -2.6480765  31.4444645  28.8605146  -3.3733937  31.3477698
  29.0092464  -1.8871405  31.1011719  31.1330107   2.0618143  49.1050425
  31.0742653   1.3777363  48.4381008  31.5349626   2.8037133  48.6531051
  20.1520806   8.8780057  41.8984144  20.3917404   9.5098581  42.5763163
  19.3090002   8.5268097  42.1849504  31.1347514   0.0257727  47.3364405
  30.2474293  -0.3116351  47.4590804  31.7046065  -0.7059242  47.5733170
  24.6648668   4.6859180  44.3025648  24.5918839   5.4914151  44.8144953
  24.2226061   4.8851145  43.4773670  24.4538447   3.9230950  37.8128470
  23.6705969   4.4652630  37.9066694  25.1531193   4.4404929  38.2122711
  27.1247351   4.5846014  46.4583807  27.8375324   5.2193478  46.3859708
  26.6337380   4.6809880  45.6423809  28.8464878  -1.5102734  38.0301099
  27.9121157  -1.3901271  37.8605803  29.0241547  -2.4130267  37.7661108
  22.1759265   2.3340457  47.2789378  22.8768724   2.9676940  47.4318772
  21.7054380   2.6755189  46.5185017  30.3013661   0.6758407  35.5637285
  30.5773505   0.5615001  36.4731159  29.4318159   0.2775892  35.5249458
  29.9760551  -5.1114936  45.1041928  29.3232001  -4.8639028  44.4494381
  30.3540931  -5.9250797  44.7704405  26.9367725   4.9244758  39.2070098
  27.1190119   4.1066414  39.6697851  27.7600711   5.1412450  38.7694988
  27.2709890   3.8512943  36.4685147  27.7997657   3.3405397  35.8555309
  27.5338110   3.5355473  37.3330680  26.0248124  -4.3695124  51.5907965
  25.3488761  -4.4700995  52.2610340  26.8475758  -4.5255911  52.0543962
  17.7726983   1.8676812  44.2120480  18.3580420   1.1220500  44.3448385
  17.5751821   2.1780769  45.0957144  24.7670907   6.9371803  45.8265581
  25.3189215   7.1003424  46.5914666  25.1077100   7.5276241  45.1545606
  29.6181781   1.7633060  51.6814236  30.1621685   2.3763019  51.1869190
  29.0368626   2.3212639  52.1981249  27.9039294   4.8853778  42.8129263
  27.7790433   4.0843518  42.3040209  28.5618385   5.3799972  42.3243233
  29.9674202   2.6862799  44.4408813  29.0204538   2.5668150  44.3687140
  30.3156975   1.7985297  44.5235075  26.9720636   2.4815515  40.6413166
  26.8245598   1.5532222  40.8220736  27.7974129   2.5035605  40.1570241
  30.5754758   3.3044074  41.7278038  31.5001305   3.0986935  41.5902490
  30.4070061   3.0560475  42.6367380  30.3650074   3.8229741  37.0840130
  30.5386951   3.2576163  36.3313982  30.8578965   4.6230636  36.9019620
  31.3525246   3.1396505  34.1837028  32.0476151   3.7603198  34.4024343
  31.6948396   2.2891857  34.4589406  33.2516669   0.5896211  35.7124359
  33.7767993   0.9283484  34.9873679  33.1639022  -0.3456774  35.5287494
  24.9136718   4.5030285  47.8414236  25.2223844   4.2579431  48.7136935
  25.7112200   4.7076923  47.3533106  24.9357330   6.6568194  40.0719612
  24.4962320   6.1644573  40.7652469  25.6865447   6.1141162  39.8311687
  17.4149669   2.8479735  40.0744240  18.2407689   2.5483507  39.6942884
  17.0643721   2.0787357  40.5234029  22.3831202   2.2006203  42.1441914
  21.7611212   1.5376908  41.8444142  23.0536069   2.2267335  41.4615562
  32.9410575   1.2229115  51.0175557  32.1506119   1.2053253  50.4780056
  32.7043930   1.7617408  51.7724593  33.0608450  -1.9278419  48.3308285
  33.1106455  -2.0928412  49.2723808  32.9522374  -2.7951160  47.9406166
  21.9444709   0.7510127  35.6200374  22.0932830   1.4345591  34.9667047
  22.7511153   0.7315217  36.1349830  34.5626647   0.4918522  48.5750307
  34.2711456   0.8548503  49.4113768  33.9498779  -0.2214469  48.3963639
  35.7622330  -1.9428598  41.0952877  36.5969221  -1.5038794  41.2590438
  35.8981458  -2.4189945  40.2761123  32.8113836  -4.3848863  47.0430365
  33.2867957  -4.1921217  46.2349216  31.8879401  -4.3289677  46.7973749
  25.4440115   3.2458257  33.0912122  24.8714082   3.8648444  32.6382594
  26.0172908   3.7957619  33.6252044  28.6637374   3.5295407  34.2220704
  29.5968048   3.4640969  34.4253580  28.5760587   4.3651674  33.7635237
  31.2925391   2.8461278  31.1824652  31.2139023   2.5121141  32.0760410
  32.1135058   3.3383045  31.1816124  25.7125606  -1.3663184  51.8928831
  26.6328615  -1.1884585  52.0868878  25.6775189  -2.3107139  51.7408531
  17.7270380   4.9792349  41.7958055  17.5924848   4.2192750  41.2296053
  17.3102442   5.7033249  41.3286844  28.8629343   0.1629273  30.8034630
  29.5665193   0.3679275  31.4192286  28.1391992   0.7306035  31.0683713
  29.6927153  -4.0860866  36.9236900  29.6362355  -3.6292314  36.0844533
  30.2455496  -4.8470181  36.7459743  20.8839506   5.8761666  42.0076497
  20.7671890   6.8207099  41.9055188  20.0631952   5.5735228  42.3962296
  30.7716040   0.6011802  32.8533090  31.6061644   0.1693001  32.6710565
  30.6100383   0.4293816  33.7809984  30.4261933  -2.8956085  34.2189429
  30.3710736  -3.0611813  33.2777873  29.8007988  -2.1880052  34.3751619
  27.7407840  -0.5907173  53.5442992  28.6098999  -0.4166520  53.1829627
  27.2614591   0.2287244  53.4218721  21.9094020   6.5289928  45.2232426
  22.8121267   6.5613539  45.5398921  21.6831390   5.5990379  45.2378761
  23.6647622   5.2820915  41.8842504  22.7143253   5.2822776  41.7706877
  23.9680108   4.5353649  41.3678539  39.4000315  11.1181453  42.9488267
  40.0378725  10.9988201  42.2451607  39.2821158  12.0662297  43.0076219
  36.2090022  11.0708881  42.8849791  35.8708533  10.9549946  41.9970326
  37.0779790  10.6700046  42.8650798  32.0676837  12.9244358  38.8746682
  31.5041703  12.8334295  38.1062970  31.9529232  12.1044262  39.3549175
  36.6909805  12.2243733  48.8435997  36.6798445  11.8296531  47.9716501
  36.8530444  11.4909806  49.4369768  31.5732023  13.6804463  34.5848282
  32.3462899  13.1333450  34.4461157  31.9257422  14.5448712  34.7962743
  33.4117066  15.0080845  47.7915181  33.1206932  15.9126476  47.6761847
  34.0474050  15.0497372  48.5059250  34.3373273  12.3857693  44.3816541
  34.9336845  12.1613716  43.6673504  34.3948244  11.6442439  44.9841988
  33.9098301   9.8397129  32.2166732  34.1623822   9.3178650  31.4550195
  32.9722860   9.6763274  32.3193415  38.9541584   8.8432907  40.0241475
  39.7404673   8.4252330  39.6731892  39.2180288   9.7478999  40.1923123
  39.1251661  14.2805757  34.7230132  38.4897494  14.3540384  35.4351036
  38.7949068  14.8699356  34.0449211  44.3550011   8.7808140  40.9274453
  45.0875183   8.2107357  41.1612283  43.5989367   8.3929741  41.3680959
  33.6294590  11.7425235  34.4191106  33.5130848  11.0670138  35.0872191
  33.7396850  11.2557609  33.6023260  35.9726131  11.2035382  38.1237796
  35.6084338  10.6766003  38.8350717  36.8293247  10.8133851  37.9504281
  41.8775431   2.4929714  45.3869062  41.5458756   3.3625125  45.1630277
  41.2821045   2.1765998  46.0663092  35.6131618   6.2325281  33.1199144
  35.7806020   7.1005518  33.4869615  35.4228787   6.3952563  32.1960434
  31.8219432  11.1456057  40.8201679  30.8969929  11.0132271  41.0279371
  32.0703846  11.9250276  41.3171621  41.7704095   7.2124801  42.4662412
  40.8620972   7.1440209  42.1721173  41.7191690   7.6896746  43.2944237
  35.5920839   8.6882939  34.1045811  35.4720464   9.1339990  34.9431291
  34.8973427   9.0368257  33.5459349  29.1828243  10.7889331  41.6545468
  29.3120625  11.0423810  42.5684880  28.5025695  11.3817039  41.3350123
  35.8444960   8.6314446  50.4097309  35.0678295   9.1908366  50.4000174
  36.4835524   9.1171229  50.9312179  43.6365741   5.4141239  44.2440286
  42.9940121   5.7073772  43.5980080  43.1320670   5.2994159  45.0493483
  41.2905905   9.1604412  34.9326145  42.2023761   9.3931799  34.7573843
  40.7815552   9.7441456  34.3701224  34.0991333  11.4399900  49.9715276
  34.8406017  11.9784943  49.6950100  33.3928318  12.0666188  50.1286828
  39.5746672  13.5829040  48.5687438  39.9830028  13.1411451  47.8242070
  38.8523934  13.0081668  48.8221631  35.9277742   8.5201647  45.9420995
  36.7738938   8.9441060  46.0855644  35.8676380   7.8635271  46.6359558
  39.0777188   6.1806015  47.6002168  38.8338120   6.9348076  47.0636444
  39.3537118   6.5591363  48.4349415  41.0315651  12.7244627  46.2779434
  41.2432546  13.3676387  45.6013815  40.9845399  11.8906944  45.8101364
  38.6341880   5.3362448  43.1816006  37.7726359   5.6343702  43.4732744
  38.6604314   5.5532847  42.2497039  35.4503449  13.8804639  39.5889812
  35.9141794  14.1592342  38.7994434  35.1860247  12.9788083  39.4062902
  32.3427530  13.4276120  42.5269575  32.9128887  13.8563389  41.8887059
  32.9335642  13.1458705  43.2253761  34.3872335  10.0027791  36.3979377
  35.0896378  10.4548835  36.8653303  34.0552963   9.3611610  37.0259270
  32.8352697   8.5939548  50.7730586  32.2051357   9.2755829  51.0065983
  32.7288784   8.4822629  49.8283724  28.1297669   8.2611344  41.6996510
  27.3396723   8.5168872  41.2236621  28.6208916   9.0759682  41.8048551
  30.0812414   8.6255923  38.6579987  29.2843578   8.7374617  39.1763483
  29.8538007   8.9642575  37.7920878  35.9118082  15.1500626  46.6062502
  35.9762514  15.6121033  47.4420674  35.2029006  14.5197991  46.7344812
  26.4135372   8.5141834  44.1311501  26.6643410   9.3988844  44.3969077
  26.9494920   8.3346436  43.3586593  50.2367472  11.9455331  40.7986763
  49.4831180  11.3762729  40.6430767  50.3715013  11.9117996  41.7457397
  32.1133439   2.8960314  53.1355837  31.7200385   2.3426512  53.8103481
  32.9299580   3.2070892  53.5262355  35.0301400   4.3118193  50.7276094
  35.7711114   4.9125346  50.6480556  35.2619323   3.5695830  50.1694136
  30.1742738   9.4974560  49.0054324  30.0596253   8.5959817  49.3061422
  29.3187256   9.7438257  48.6539140  37.2534576  17.4392300  50.6041824
  36.8098430  16.6528679  50.2862729  37.9151790  17.6271451  49.9385715
  39.3515814  17.7195100  48.6323225  39.3334289  18.5403981  48.1403495
  40.2735734  17.5949175  48.8573367  35.8088868  15.2339230  49.4746734
  36.3417205  14.4727518  49.2446042  35.2802949  14.9412881  50.2170888
  38.9758563   0.3399296  45.0040376  38.6322833   1.2300937  44.9279486
  39.3437526   0.1500953  44.1409961  27.0444414  12.6632826  37.8228978
  27.8819636  13.0729834  37.6062685  27.2222681  11.7232268  37.7929172
  38.9408846  10.3307907  33.5112811  38.4255469  11.1012511  33.7501198
  38.6686154   9.6573043  34.1345872  36.5255957   5.1757607  38.5698049
  35.6697553   4.7864458  38.3903688  36.9382909   5.2549568  37.7097835
  38.0555104   2.7103951  42.9689609  37.5519899   2.6734086  42.1557414
  38.3485710   3.6196693  43.0286265  34.2997989   2.7942680  41.9755790
  35.1650986   2.5985489  41.6161680  34.3675498   2.5653032  42.9025147
  43.9143120  13.0840261  35.4465984  43.1372563  12.7451421  35.0021146
  44.5934601  13.0892884  34.7720949  38.7295149   8.2034999  35.3372592
  38.4245285   8.5181148  36.1882735  39.6825591   8.2816419  35.3799925
  37.1741581  14.3625222  36.9865546  36.6462942  13.6277982  36.6738783
  36.6729084  15.1399898  36.7405514  42.1534427  12.5574243  42.1032592
  41.4958101  13.2473504  42.1912721  42.9574826  12.9470675  42.4466578
  31.9060309   5.0244888  39.3472157  32.4804060   4.8020070  38.6145350
  32.4931291   5.0933583  40.1000759  40.9639886  10.9118615  40.1536534
  41.4771767  11.5448607  40.6558244  41.6141110  10.3119811  39.7879894
  32.2329896   7.0549349  33.3668043  31.3967208   7.3924036  33.6877317
  32.0934665   6.9198329  32.4295180  34.2082976   1.8986137  38.0747227
  33.5547389   1.5835154  37.4503841  34.1663450   1.2761878  38.8007050
  35.3194181  12.1805432  29.9900519  34.4121243  11.9494686  30.1891668
  35.8165213  11.3843052  30.1774500  37.4420717   8.3868071  42.3994874
  36.5243278   8.6083018  42.2416562  37.8580860   8.4614381  41.5406582
  38.2255764   9.7859487  37.5297555  38.9727583  10.2980884  37.2204677
  38.4947354   9.4643539  38.3901948  36.4982415  12.2818027  34.5124509
  35.5893634  11.9977060  34.6096979  36.5277498  12.7017106  33.6527816
  40.6734602   6.8216603  39.5116344  39.9357358   6.3093989  39.8426586
  40.9261375   6.3816984  38.6999621  40.7746229  -0.4007145  40.1058113
  41.0805106  -1.2609782  39.8184028  41.4998834   0.1910475  39.9057107
  27.0670585  10.0023541  38.4939711  26.8694985   9.4092902  37.7690778
  26.5117249   9.6975752  39.2115650  35.0467309   9.8946648  40.6134304
  35.1015918   8.9420484  40.5376781  34.2358511  10.0506087  41.0975603
  36.1958502  13.8226771  31.8512587  35.7577932  13.1062630  31.3918225
  36.9368943  14.0502886  31.2897679  32.9859669   8.5123708  38.3724683
  32.1727534   8.8117878  38.7789875  33.4818663   8.1179396  39.0899165
  38.5833880   8.9765532  47.2039577  38.9383268   9.2037005  48.0634043
  39.2306011   9.3083909  46.5816832  44.3131617  12.0983968  37.9088906
  44.1749516  12.2885564  36.9810095  43.9567836  12.8603351  38.3656957
  32.4773743   6.0842063  43.9885918  33.1173123   5.9430822  43.2908881
  31.6451274   5.7976576  43.6124520  44.3400997  14.1660495  42.9200178
  44.7737503  14.0735784  43.7683232  45.0532577  14.1417995  42.2820194
  29.5616811   9.5287575  36.1780663  28.6314399   9.4672031  36.3950625
  29.6574283   9.0063528  35.3817304  29.4802360   6.0542388  38.7658905
  29.7409177   6.9687721  38.6568065  30.3019532   5.5866831  38.9155518
  30.9527285   7.4680145  45.9357729  31.6250338   7.2597507  45.2870378
  30.1257072   7.2702231  45.4962962  36.8552857   4.0942086  47.9523390
  36.2080772   4.7932036  47.8587867  37.6253872   4.5278230  48.3199638
  40.2631655  14.3590938  51.0273944  40.1117161  14.1301490  50.1104027
  40.2536334  15.3161540  51.0405289  37.0316991  11.9322851  46.0120210
  37.9609051  12.0834011  45.8389177  36.6108021  12.0206872  45.1568857
  31.3554782  10.7422748  46.6960167  31.2174580  10.0102987  47.2971706
  32.2659706  10.6531648  46.4144354  40.3169730  12.6811153  31.4444645
  39.6998901  11.9557981  31.3477698  39.8486218  13.4420513  31.1011719
  33.9837083  10.4542708  46.1843846  34.6936701   9.8135900  46.1430465
  33.9406391  10.7055602  47.1070027  41.9723862  17.3910061  49.1050425
  41.9136408  16.7069281  48.4381008  42.3743380  18.1329051  48.6531051
  32.6966017   7.4407925  48.0039486  32.1603374   6.9898664  48.6561082
  32.1082725   7.5753834  47.2609950  32.1068276   6.8996577  30.5665949
  31.2297742   6.7785378  30.2028196  32.5826029   6.1082655  30.3144838
  23.6270416  11.6873737  40.6607456  24.3141456  11.3735467  40.0728472
  23.4718545  12.5915101  40.3874708  28.4305138   6.5763933  45.0892480
  28.3463327   5.9689603  44.3542890  27.6087845   7.0672951  45.0901977
  38.6028852   5.0617497  40.4562675  39.0997552   4.3087459  40.1363745
  37.8315834   5.0981813  39.8905885  46.4558609  10.7657862  42.0980967
  46.4448486  11.6482578  41.7274900  45.5875989  10.4129413  41.9035504
  39.6858633  13.8189184  38.0301099  38.7514911  13.9390646  37.8605803
  39.8635301  12.9161651  37.7661108  35.1863821   7.2034880  40.1834360
  34.8161608   6.6505920  40.8715265  35.6822913   6.5993013  39.6309360
  43.0731184   9.6606503  38.5651133  43.5391636  10.4934495  38.4911435
  43.5238685   9.1951485  39.2696391  41.0447847   2.0287090  42.6042034
  40.1310927   2.2591317  42.7724241  41.4740948   2.1125534  43.4556066
  40.8154305  10.2176982  45.1041928  40.1625756  10.4652890  44.4494381
  41.1934685   9.4041120  44.7704405  36.8641878  10.9596793  51.5907965
  36.1882515  10.8590923  52.2610340  37.6869512  10.8036007  52.0543962
  23.2038392   9.7674330  42.9324924  23.2422492   9.2337921  43.7262042
  22.6978685   9.2409535  42.3135901  30.5829154   4.6138870  46.4287466
  30.6470481   5.4753701  46.0164864  30.5196275   4.0012872  45.6959824
  30.0581427   6.6862003  50.0760500  30.6853466   6.3039080  50.6898024
  29.2009346   6.4676205  50.4416193  26.8346970   8.4938432  36.0078855
  27.1300411   7.5849111  35.9545909  25.9335005   8.4726172  35.6859857
  30.3641217   6.5694429  41.9906404  29.6427802   7.1830396  41.8513877
  31.1534472   7.1052193  41.9123050  33.1667530   3.9048855  48.2647055
  33.6901932   4.1511152  49.0273365  32.9479864   4.7368890  47.8450193
  28.5634811   6.1752530  36.1318180  28.2347517   5.2949909  35.9493286
  28.9174182   6.1200198  37.0194569  31.6776634   6.4625500  36.4993658
  32.0172707   6.9911421  35.7772266  32.1248755   6.8005906  37.2752224
  34.3720075   4.8462550  45.9496726  34.0316896   4.0470363  46.3517406
  33.6659082   5.1464261  45.3773559  35.0236547   1.9311863  44.4024049
  35.8462616   1.4572341  44.2802939  35.2674611   2.7102346  44.9022735
  33.6644782   4.9600121  34.6986951  34.3853144   5.3381374  34.1950667
  33.0410086   5.6788998  34.8021929  37.8075904   5.6645270  35.6345283
  38.0239519   6.5469908  35.3334111  37.3269972   5.2731484  34.9050925
  32.5475126   8.6230983  42.2116028  32.4019707   8.9371286  43.1040309
  32.0700329   9.2415884  41.6586926  34.4071509   5.6133531  42.2596917
  34.3933078   4.7174625  41.9229215  35.1243937   5.6204195  42.8935203
  36.2597639   6.0470872  44.3050045  36.0015417   6.9687942  44.3034375
  35.7282680   5.6501306  44.9950509  27.0220788  11.1636328  45.1503689
  26.4774256  11.9396136  45.2823963  27.9000138  11.5107132  44.9922810
  33.8108405   4.4947912  37.5284487  33.9324316   3.5664558  37.7275375
  33.5210447   4.5086598  36.6162803  36.6799595   2.1802822  40.6651207
  36.7021292   2.2442155  39.7103187  37.0967654   1.3407331  40.8591713
  47.0583219  11.9158082  38.7030430  47.5014365  11.1665407  38.3049553
  46.1809730  11.9068218  38.3204162  27.8086810  10.2906224  48.0433846
  27.0668546  10.4388859  48.6298476  27.4879554  10.5514490  47.1800595
  44.0910424  15.9188129  35.7124359  44.6161748  16.2575401  34.9873679
  44.0032776  14.9835144  35.5287494  33.2949484   6.0079909  51.7374420
  33.3437640   6.8842032  51.3552189  33.8371998   5.4657302  51.1646063
  43.7804330  16.5521032  51.0175557  42.9899874  16.5345171  50.4780056
  43.5437684  17.0909326  51.7724593  43.9002205  13.4013499  48.3308285
  43.9500210  13.2363506  49.2723808  43.7916128  12.5340758  47.9406166
  41.1905967   9.3844427  49.6467592  42.0915830   9.2450891  49.3551590
  41.2653942   9.5498881  50.5865770  35.5248773   6.7611281  48.4920778
  34.6552082   7.0544847  48.2203367  35.7608253   7.3451726  49.2128042
  46.6016084  13.3863320  41.0952877  47.4362975  13.8253124  41.2590438
  46.7375213  12.9101973  40.2761123  43.6507590  10.9443055  47.0430365
  44.1261712  11.1370701  46.2349216  42.7273155  11.0002241  46.7973749
  30.5391097  12.1067222  36.6261443  30.2937139  11.2029552  36.8241653
  30.7087011  12.1084372  35.6840921  38.2287806   2.9790898  46.0086199
  38.7469750   3.7151925  45.6832687  37.8742939   3.2854892  46.8432958
  29.8086744   7.8395580  34.1247605  29.1155989   7.9139934  33.4687641
  29.5638496   7.0755923  34.6469122  38.4800401  -0.6008819  41.5287095
  38.7602154  -1.2685630  42.1547522  39.2651008  -0.4079724  41.0161759
  42.3509259   7.8208815  45.2758671  43.3026682   7.9206912  45.2970895
  42.1812709   7.0287083  45.7856755  40.3723638   4.9064398  45.4618071
  39.7773571   5.1869411  44.7664560  40.0873335   5.3958299  46.2334813
  44.8297337  11.0414935  44.3900970  44.7973657  10.1030935  44.5760654
  45.4397960  11.1198971  43.6566795  36.6680668   9.9110987  30.4328174
  37.6139772   9.7817196  30.5016592  36.2894913   9.1725649  30.9097602
  44.9791825   7.8325978  44.4359253  44.4630874   7.0484435  44.2489182
  45.8631774   7.5044695  44.6005773  42.6402552   1.5766994  40.3955066
  42.4427373   1.2682082  41.2798398  43.2502258   2.3028632  40.5252996
  50.6473887  12.1030941  43.5307007  51.3777275  11.8416229  44.0914710
  50.0380832  11.3659663  43.5709075  48.7289184  10.2438804  44.1281458
  48.0022347  10.1094769  43.5197950  48.3136471  10.5515633  44.9338176
  36.5519360  13.9628734  51.8928831  37.4722370  14.1407333  52.0868878
  36.5168943  13.0184779  51.7408531  34.8523585   7.8360964  30.3683059
  33.9455040   7.5394077  30.4445773  35.1299566   7.5390782  29.5017346
  25.7701525   9.1567327  40.8182106  25.4504310   8.3032635  40.5256480
  25.2234953   9.3715905  41.5740073  29.5481433  11.8729768  44.5351612
  29.7667443  12.8046876  44.5539646  29.9607207  11.5137743  45.3206416
  36.4685651   2.3797854  36.5227301  35.6586379   2.0344939  36.8982547
  37.1570067   2.0705397  37.1114912  38.3976199   1.4575900  38.1451597
  38.9507237   1.8771354  38.8041621  38.6346285   0.5311649  38.1874553
  34.4209298   7.4462974  53.9254361  34.3206025   8.3957331  53.8566452
  34.2030840   7.1181213  53.0530431  33.6222369   4.6947899  30.5095039
  34.4841533   5.0202797  30.7690856  33.8072714   3.9079395  29.9968104
  25.6389785  12.7770239  42.7875227  24.9453257  12.3624192  42.2745182
  26.3862776  12.8190775  42.1908646  41.7755006   3.5676426  37.6530262
  41.1953675   4.2261230  37.2708314  41.5090939   2.7453770  37.2417679
  40.2258572   2.9681483  39.8551582  40.7258351   3.0798018  39.0465901
  40.8694180   2.6642536  40.4952390  34.2840568  10.8760113  52.7419423
  33.8007650  11.6760473  52.9483312  34.3701507  10.8868058  51.7886867
  27.5526528  12.7088493  40.6641242  27.5297216  12.8076180  39.7123125
  27.8627164  13.5553643  40.9858408  30.8013288  13.3365764  47.3458654
  31.6206177  13.8309842  47.3693492  31.0750095  12.4197732  47.3176222
  40.5579884   5.7276516  36.7086610  39.6705739   6.0126167  36.4906805
  40.9733873   5.5670279  35.8613887  43.9094420   5.7523037  40.4240949
  44.6854810   6.2419489  40.6965566  43.1842554   6.1781091  40.8812819
  46.3466979   6.4650656  41.4814890  46.9411469   6.2246392  40.7708198
  46.4193562   5.7457787  42.1088426  39.7023097  15.4921191  30.8034630
  40.4058948  15.6971193  31.4192286  38.9785746  16.0597953  31.0683713
  40.5320908  11.2431052  36.9236900  40.4756109  11.6999603  36.0844533
  41.0849250  10.4821736  36.7459743  44.3425714   7.0320784  37.7487020
  44.0862648   6.6317419  38.5795227  43.7178582   7.7464578  37.6237159
  48.6538051   9.7716857  40.2558311  48.0937609   9.8410046  41.0289873
  48.0481555   9.5957842  39.5357807  41.2655687  12.4335833  34.2189429
  41.2104491  12.2680105  33.2777873  40.6401742  13.1411866  34.3751619
  26.0548202   7.6703897  48.0450851  26.7007066   7.1602851  48.5338077
  25.8465353   8.4072579  48.6194277  38.5801594  14.7384745  53.5442992
  39.4492754  14.9125397  53.1829627  38.1008346  15.5579162  53.4218721
  34.5751812   1.9343942  33.7974748  34.5630482   2.8785782  33.9543019
  35.4675234   1.7514088  33.5034209  38.3903932  -1.4713281  38.0520684
  37.6236328  -2.0254795  38.1977367  38.8014637  -1.3991412  38.9134836
  30.3945693   4.8171515  52.1425866  31.2577155   4.4608319  52.3529190
  29.8211104   4.4785409  52.8301270  45.8695155  19.6410110  50.7276094
  46.6104868  20.2417263  50.6480556  46.1013078  18.8987748  50.1694136
  51.6139983  14.9284772  40.1058113  51.9198860  14.0682136  39.8184028
  52.3392588  15.5202393  39.9057107  49.3194155  14.7283099  41.5287095
  49.5995909  14.0606288  42.1547522  50.1044762  14.9212194  41.0161759
  53.4796307  16.9058911  40.3955066  53.2821128  16.5973999  41.2798398
  54.0896012  17.6320550  40.5252996  52.6148760  18.8968343  37.6530262
  52.0347429  19.5553147  37.2708314  52.3484693  18.0745688  37.2417679
  45.4145567  17.2635860  33.7974748  45.4024237  18.2077700  33.9543019
  46.3068989  17.0806005  33.5034209  49.2297686  13.8578636  38.0520684
  48.4630082  13.3037123  38.1977367  49.6408391  13.9300505  38.9134836
  66.0337520  39.4391976  40.9274453  66.7662692  38.8691192  41.1612283
  65.2776876  39.0513576  41.3680959  63.5562940  33.1513550  45.3869062
  63.2246265  34.0208961  45.1630277  62.9608554  32.8349834  46.0663092
  63.4491604  37.8708636  42.4662412  62.5408481  37.8024044  42.1721173
  63.3979199  38.3480581  43.2944237  57.5232469  39.2898282  50.4097309
  56.7465804  39.8492202  50.4000174  58.1623033  39.7755064  50.9312179
  65.3153250  36.0725074  44.2440286  64.6727630  36.3657607  43.5980080
  64.8108179  35.9577995  45.0493483  62.9693414  39.8188248  34.9326145
  63.8811270  40.0515634  34.7573843  62.4603061  40.4025292  34.3701224
  65.4552228  45.7368504  39.6784090  64.7703266  46.1167405  39.1281124
  65.5396077  46.3463830  40.4116038  60.7564697  36.8389850  47.6002168
  60.5125629  37.5931911  47.0636444  61.0324627  37.2175198  48.4349415
  71.9154981  42.6039167  40.7986763  71.1618689  42.0346565  40.6430767
  72.0502522  42.5701831  41.7457397  56.7088909  34.9702028  50.7276094
  57.4498623  35.5709181  50.6480556  56.9406832  34.2279666  50.1694136
  60.6196355  40.9891742  33.5112811  60.1042978  41.7596347  33.7501198
  60.3473663  40.3156878  34.1345872  65.5930629  43.7424097  35.4465984
  64.8160072  43.4035256  35.0021146  66.2722110  43.7476720  34.7720949
  63.8321936  43.2158078  42.1032592  63.1745610  43.9057339  42.1912721
  64.6362335  43.6054510  42.4466578  62.6427395  41.5702451  40.1536534
  63.1559276  42.2032442  40.6558244  63.2928619  40.9703646  39.7879894
  60.2621389  39.6349367  47.2039577  60.6170777  39.8620841  48.0634043
  60.9093520  39.9667744  46.5816832  65.9919126  42.7567803  37.9088906
  65.8537025  42.9469399  36.9810095  65.6355345  43.5187186  38.3656957
  66.0188506  44.8244330  42.9200178  66.4525012  44.7319619  43.7683232
  66.7320086  44.8001831  42.2820194  59.7516401  48.4246424  44.4533278
  59.8053423  48.9937361  45.2210994  58.8831182  48.5948309  44.0887315
  66.8804055  44.8668031  45.4533063  67.0739945  45.7713841  45.6992338
  66.7804673  44.4075450  46.2871648  58.5340366  34.7525922  47.9523390
  57.8868281  35.4515871  47.8587867  59.3041381  35.1862065  48.3199638
  61.9419164  45.0174774  51.0273944  61.7904670  44.7885325  50.1104027
  61.9323843  45.9745375  51.0405289  61.9957239  43.3394988  31.4444645
  61.3786410  42.6141816  31.3477698  61.5273727  44.1004348  31.1011719
  68.1346118  41.4241698  42.0980967  68.1235995  42.3066413  41.7274900
  67.2663498  41.0713248  41.9035504  64.7518693  40.3190339  38.5651133
  65.2179145  41.1518330  38.4911435  65.2026194  39.8535320  39.2696391
  62.7235356  32.6870926  42.6042034  61.8098436  32.9175152  42.7724241
  63.1528457  32.7709370  43.4556066  63.0936021  49.2919827  41.7278038
  64.0182568  49.0862688  41.5902490  62.9251324  49.0436228  42.6367380
  62.8831337  49.8105494  37.0840130  63.0568215  49.2451916  36.3313982
  63.3760228  50.6106389  36.9019620  68.7370728  42.5741917  38.7030430
  69.1801874  41.8249242  38.3049553  67.8597239  42.5652053  38.3204162
  63.8706510  49.1272258  34.1837028  64.5657414  49.7478951  34.4024343
  64.2129660  48.2767610  34.4589406  65.7697933  46.5771964  35.7124359
  66.2949257  46.9159237  34.9873679  65.6820285  45.6418979  35.5287494
  54.9736993  36.6663744  51.7374420  55.0225149  37.5425867  51.3552189
  55.5159507  36.1241137  51.1646063  62.8693476  40.0428262  49.6467592
  63.7703339  39.9034727  49.3551590  62.9441451  40.2082717  50.5865770
  67.0807911  46.4794275  48.5750307  66.7892719  46.8424256  49.4113768
  66.4680042  45.7661284  48.3963639  68.2803593  44.0447155  41.0952877
  69.1150484  44.4836959  41.2590438  68.4162722  43.5685808  40.2761123
  64.0296768  38.4792650  45.2758671  64.9814191  38.5790748  45.2970895
  63.8600218  37.6870919  45.7856755  62.0511147  35.5648233  45.4618071
  61.4561080  35.8453246  44.7664560  61.7660844  36.0542134  46.2334813
  63.8106655  48.8337031  31.1824652  63.7320286  48.4996894  32.0760410
  64.6316321  49.3258798  31.1816124  66.5084846  41.6998770  44.3900970
  66.4761166  40.7614771  44.5760654  67.1185469  41.7782807  43.6566795
  58.3468177  40.5694823  30.4328174  59.2927281  40.4401031  30.5016592
  57.9682422  39.8309485  30.9097602  66.6579334  38.4909813  44.4359253
  66.1418383  37.7068270  44.2489182  67.5419283  38.1628530  44.6005773
  64.3190061  32.2350829  40.3955066  64.1214882  31.9265917  41.2798398
  64.9289767  32.9612468  40.5252996  72.3261396  42.7614777  43.5307007
  73.0564784  42.5000065  44.0914710  71.7168341  42.0243499  43.5709075
  70.4076693  40.9022639  44.1281458  69.6809856  40.7678604  43.5197950
  69.9923980  41.2099468  44.9338176  60.0763708  32.1159736  38.1451597
  60.6294746  32.5355189  38.8041621  60.3133794  31.1895484  38.1874553
  56.0996807  38.1046809  53.9254361  55.9993534  39.0541166  53.8566452
  55.8818349  37.7765048  53.0530431  63.4542515  34.2260261  37.6530262
  62.8741184  34.8845065  37.2708314  63.1878448  33.4037606  37.2417679
  61.9046081  33.6265319  39.8551582  62.4045860  33.7381853  39.0465901
  62.5481689  33.3226371  40.4952390  65.5881929  36.4106872  40.4240949
  66.3642319  36.9003325  40.6965566  64.8630063  36.8364926  40.8812819
  68.0254488  37.1234491  41.4814890  68.6198978  36.8830227  40.7708198
  68.0981071  36.4041622  42.1088426  61.3810606  46.1505026  30.8034630
  62.0846457  46.3555028  31.4192286  60.6573255  46.7181788  31.0683713
  62.2108417  41.9014887  36.9236900  62.1543618  42.3583439  36.0844533
  62.7636759  41.1405572  36.7459743  66.0213223  37.6904619  37.7487020
  65.7650157  37.2901255  38.5795227  65.3966091  38.4048413  37.6237159
  70.3325560  40.4300692  40.2558311  69.7725118  40.4993882  41.0289873
  69.7269064  40.2541677  39.5357807  63.2897304  46.5887555  32.8533090
  64.1242908  46.1568754  32.6710565  63.1281647  46.4169569  33.7809984
  62.9443196  43.0919668  34.2189429  62.8892000  42.9263940  33.2777873
  62.3189251  43.7995701  34.3751619  71.9181579  57.1057206  42.9488267
  72.5559989  56.9863954  42.2451607  71.8002422  58.0538050  43.0076219
  68.7271285  57.0584634  42.8849791  68.3889797  56.9425699  41.9970326
  69.5961053  56.6575799  42.8650798  69.2091068  58.2119486  48.8435997
  69.1979709  57.8172284  47.9716501  69.3711708  57.4785559  49.4369768
  70.1657660  62.5791078  34.1861147  69.5145639  63.1645159  33.7995161
  70.9602022  63.1097273  34.2456185  64.0913287  59.6680216  34.5848282
  64.8644163  59.1209203  34.4461157  64.4438686  60.5324465  34.7962743
  65.9298329  60.9956598  47.7915181  65.6388195  61.9002229  47.6761847
  66.5655314  61.0373126  48.5059250  66.8554536  58.3733446  44.3816541
  67.4518108  58.1489469  43.6673504  66.9129508  57.6318192  44.9841988
  66.4279565  55.8272882  32.2166732  66.6805085  55.3054403  31.4550195
  65.4904124  55.6639027  32.3193415  71.4722847  54.8308660  40.0241475
  72.2585937  54.4128083  39.6731892  71.7361552  55.7354752  40.1923123
  71.6432925  60.2681510  34.7230132  71.0078758  60.3416137  35.4351036
  71.3130331  60.8575109  34.0449211  76.8731274  54.7683893  40.9274453
  77.6056446  54.1983110  41.1612283  76.1170630  54.3805494  41.3680959
  66.1475853  57.7300988  34.4191106  66.0312111  57.0545891  35.0872191
  66.2578113  57.2433362  33.6023260  68.4907394  57.1911135  38.1237796
  68.1265601  56.6641756  38.8350717  69.3474510  56.8009604  37.9504281
  74.3956695  48.4805467  45.3869062  74.0640020  49.3500878  45.1630277
  73.8002308  48.1641751  46.0663092  68.1312881  52.2201035  33.1199144
  68.2987284  53.0881271  33.4869615  67.9410050  52.3828316  32.1960434
  70.8888214  60.6818013  44.7864975  70.5888937  61.5843052  44.6780782
  70.5439274  60.4150197  45.6386128  74.2885358  53.2000554  42.4662412
  73.3802236  53.1315962  42.1721173  74.2372954  53.6772499  43.2944237
  68.1102102  54.6758692  34.1045811  67.9901727  55.1215743  34.9431291
  67.4154690  55.0244010  33.5459349  65.8708994  67.4462334  37.7535942
  65.7933024  68.3970159  37.8324423  65.2670638  67.1008206  38.4110869
  68.3626224  54.6190199  50.4097309  67.5859558  55.1784119  50.4000174
  69.0016787  55.1046982  50.9312179  76.1547005  51.4016992  44.2440286
  75.5121385  51.6949525  43.5980080  75.6501933  51.2869912  45.0493483
  73.8087168  55.1480165  34.9326145  74.7205024  55.3807552  34.7573843
  73.2996815  55.7317209  34.3701224  66.6172596  57.4275653  49.9715276
  67.3587281  57.9660697  49.6950100  65.9109582  58.0541941  50.1286828
  72.0927936  59.5704793  48.5687438  72.5011292  59.1287204  47.8242070
  71.3705197  58.9957421  48.8221631  68.4459006  54.5077400  45.9420995
  69.2920201  54.9316813  46.0855644  68.3857644  53.8511024  46.6359558
  72.4156751  60.1305984  42.3239727  71.7865613  60.2951698  41.6215794
  72.0282413  60.5447593  43.0950691  76.2945982  61.0660421  39.6784090
  75.6097021  61.4459323  39.1281124  76.3789832  61.6755748  40.4116038
  71.5958451  52.1681768  47.6002168  71.3519383  52.9223829  47.0636444
  71.8718382  52.5467116  48.4349415  73.5496914  58.7120381  46.2779434
  73.7613809  59.3552140  45.6013815  73.5026662  57.8782697  45.8101364
  71.1523143  51.3238201  43.1816006  70.2907622  51.6219455  43.4732744
  71.1785578  51.5408600  42.2497039  67.9684712  59.8680392  39.5889812
  68.4323058  60.1468095  38.7994434  67.7041511  58.9663836  39.4062902
  64.8608793  59.4151873  42.5269575  65.4310151  59.8439142  41.8887059
  65.4516905  59.1334458  43.2253761  66.9053598  55.9903544  36.3979377
  67.6077642  56.4424588  36.8653303  66.5734227  55.3487363  37.0259270
  65.3533960  54.5815301  50.7730586  64.7232621  55.2631582  51.0065983
  65.2470048  54.4698382  49.8283724  74.6642742  61.5892336  44.4501791
  75.4860186  61.1872523  44.1684473  74.6605145  61.4860570  45.4017907
  68.4299345  61.1376379  46.6062502  68.4943778  61.5996786  47.4420674
  67.7210269  60.5073744  46.7344812  82.7548735  57.9331084  40.7986763
  82.0012443  57.3638482  40.6430767  82.8896276  57.8993749  41.7457397
  68.1447363  62.8044487  36.4741482  68.0093038  63.6496022  36.9026330
  68.6857176  63.0063764  35.7107416  67.5482664  50.2993946  50.7276094
  68.2892377  50.9001099  50.6480556  67.7800587  49.5571583  50.1694136
  69.7715839  63.4268053  50.6041824  69.3279694  62.6404432  50.2862729
  70.4333053  63.6147204  49.9385715  64.5302961  64.9563855  45.1302503
  65.0810386  64.8280918  44.3579497  63.6914437  65.2558744  44.7797395
  71.8697078  63.7070853  48.6323225  71.8515553  64.5279734  48.1403495
  72.7916998  63.5824928  48.8573367  68.3270132  61.2214983  49.4746734
  68.8598468  60.4603271  49.2446042  67.7984213  60.9288634  50.2170888
  71.4939827  46.3275049  45.0040376  71.1504096  47.2176690  44.9279486
  71.8618789  46.1376706  44.1409961  71.4590109  56.3183660  33.5112811
  70.9436733  57.0888264  33.7501198  71.1867418  55.6448796  34.1345872
  69.0437220  51.1633360  38.5698049  68.1878817  50.7740211  38.3903688
  69.4564172  51.2425321  37.7097835  70.5736367  48.6979704  42.9689609
  70.0701163  48.6609839  42.1557414  70.8666974  49.6072446  43.0286265
  66.8179253  48.7818433  41.9755790  67.6832250  48.5861242  41.6161680
  66.8856762  48.5528785  42.9025147  76.4324384  59.0716014  35.4465984
  75.6553826  58.7327174  35.0021146  77.1115864  59.0768638  34.7720949
  71.2476413  54.1910752  35.3372592  70.9426548  54.5056901  36.1882735
  72.2006855  54.2692172  35.3799925  69.6922844  60.3500975  36.9865546
  69.1644206  59.6153735  36.6738783  69.1910347  61.1275651  36.7405514
  74.6715690  58.5449996  42.1032592  74.0139365  59.2349257  42.1912721
  75.4756090  58.9346428  42.4466578  64.4241572  51.0120641  39.3472157
  64.9985324  50.7895823  38.6145350  65.0112554  51.0809336  40.1000759
  73.4821149  56.8994368  40.1536534  73.9953031  57.5324360  40.6558244
  74.1322373  56.2995564  39.7879894  64.7511159  53.0425102  33.3668043
  63.9148471  53.3799789  33.6877317  64.6115929  52.9074082  32.4295180
  66.7264240  47.8861890  38.0747227  66.0728652  47.5710907  37.4503841
  66.6844714  47.2637631  38.8007050  67.8375445  58.1681185  29.9900519
  66.9302506  57.9370439  30.1891668  68.3346477  57.3718805  30.1774500
  70.7443523  66.8778693  32.9097205  70.0705222  67.1810389  33.5182163
  71.1309345  67.6807773  32.5602662  69.9601980  54.3743824  42.3994874
  69.0424541  54.5958771  42.2416562  70.3762124  54.4490134  41.5406582
  70.7437028  55.7735240  37.5297555  71.4908847  56.2856637  37.2204677
  71.0128617  55.4519292  38.3901948  69.0163678  58.2693780  34.5124509
  68.1074897  57.9852813  34.6096979  69.0458762  58.6892859  33.6527816
  74.2482945  61.8800370  38.2815676  73.7945273  61.0391280  38.3380867
  73.6176912  62.5161768  38.6190457  73.1915865  52.8092356  39.5116344
  72.4538622  52.2969742  39.8426586  73.4442639  52.3692737  38.6999621
  72.6915885  63.7176866  39.2165495  72.9838859  64.2781924  38.4977860
  73.2014505  64.0105427  39.9718654  73.2927492  45.5868608  40.1058113
  73.5986369  44.7265971  39.8184028  74.0180097  46.1786228  39.9057107
  67.5648572  55.8822401  40.6134304  67.6197182  54.9296237  40.5376781
  66.7539774  56.0381840  41.0975603  68.7139766  59.8102524  31.8512587
  68.2759196  59.0938383  31.3918225  69.4550207  60.0378639  31.2897679
  65.5040932  54.4999461  38.3724683  64.6908798  54.7993631  38.7789875
  65.9999926  54.1055149  39.0899165  67.6549510  64.4957218  40.3058948
  67.6125689  64.7218064  39.3767480  68.5712209  64.2620592  40.4544749
  71.1015144  54.9641285  47.2039577  71.4564531  55.1912758  48.0634043
  71.7487275  55.2959662  46.5816832  76.8312881  58.0859721  37.9088906
  76.6930779  58.2761317  36.9810095  76.4749099  58.8479104  38.3656957
  76.8582260  60.1536248  42.9200178  77.2918767  60.0611537  43.7683232
  77.5713841  60.1293748  42.2820194  65.7715311  61.3720247  40.1020911
  66.5655909  60.8770567  39.9003485  65.0607003  60.8438110  39.7388616
  70.5910155  63.7538342  44.4533278  70.6447177  64.3229278  45.2210994
  69.7224936  63.9240227  44.0887315  77.7197810  60.1959949  45.4533063
  77.9133700  61.1005759  45.6992338  77.6198428  59.7367368  46.2871648
  69.3734120  50.0817839  47.9523390  68.7262036  50.7807789  47.8587867
  70.1435136  50.5153983  48.3199638  72.7812918  60.3466691  51.0273944
  72.6298425  60.1177243  50.1104027  72.7717598  61.3037293  51.0405289
  69.5498255  57.9198604  46.0120210  70.4790315  58.0709764  45.8389177
  69.1289285  58.0082625  45.1568857  68.3486587  61.9449269  43.7818748
  68.2097672  61.5768053  44.6544686  67.5601183  62.4596908  43.6102705
  68.9434739  67.0458365  35.1244284  69.1186494  66.5746408  35.9389907
  68.2567527  67.6724131  35.3525545  69.8991802  61.3230871  41.1707585
  69.5641634  61.2831641  42.0665235  69.3995747  60.6575587  40.6977996
  72.8350993  58.6686906  31.4444645  72.2180164  57.9433734  31.3477698
  72.3667482  59.4296266  31.1011719  66.5018346  56.4418461  46.1843846
  67.2117965  55.8011653  46.1430465  66.4587655  56.6931355  47.1070027
  74.4905125  63.3785814  49.1050425  74.4317671  62.6945034  48.4381008
  74.8924643  64.1204804  48.6531051  63.5095824  70.1947728  41.8984144
  63.7492422  70.8266252  42.5763163  62.6665020  69.8435768  42.1849504
  64.6249539  52.8872330  30.5665949  63.7479006  52.7661131  30.2028196
  65.1007292  52.0958408  30.3144838  74.4922532  61.3425398  47.3364405
  73.6049311  61.0051320  47.4590804  75.0621083  60.6108429  47.5733170
  68.0223686  66.0026850  44.3025648  67.9493857  66.8081822  44.8144953
  67.5801079  66.2018816  43.4773670  67.8113465  65.2398620  37.8128470
  67.0280987  65.7820300  37.9066694  68.5106211  65.7572600  38.2122711
  71.1210115  51.0493250  40.4562675  71.6178815  50.2963212  40.1363745
  70.3497097  51.0857566  39.8905885  78.9739873  56.7533615  42.0980967
  78.9629749  57.6358331  41.7274900  78.1057252  56.4005166  41.9035504
  70.4822369  65.9013684  46.4583807  71.1950341  66.5361149  46.3859708
  69.9912398  65.9977550  45.6423809  72.2039896  59.8064937  38.0301099
  71.2696175  59.9266399  37.8605803  72.3816565  58.9037404  37.7661108
  67.7045084  53.1910633  40.1834360  67.3342872  52.6381673  40.8715265
  68.2004177  52.5868766  39.6309360  75.5912448  55.6482256  38.5651133
  76.0572900  56.4810248  38.4911435  76.0419948  55.1827238  39.2696391
  65.5334283  63.6508128  47.2789378  66.2343742  64.2844611  47.4318772
  65.0629398  63.9922859  46.5185017  73.6588679  61.9926077  35.5637285
  73.9348523  61.8782672  36.4731159  72.7893177  61.5943562  35.5249458
  73.5629110  48.0162843  42.6042034  72.6492190  48.2467070  42.7724241
  73.9922212  48.1001287  43.4556066  73.3335569  56.2052735  45.1041928
  72.6807019  56.4528643  44.4494381  73.7115949  55.3916873  44.7704405
  70.2942743  66.2412428  39.2070098  70.4765137  65.4234084  39.6697851
  71.1175729  66.4580121  38.7694988  70.6284908  65.1680613  36.4685147
  71.1572675  64.6573068  35.8555309  70.8913128  64.8523144  37.3330680
  69.3823142  56.9472546  51.5907965  68.7063779  56.8466676  52.2610340
  70.2050776  56.7911760  52.0543962  61.1302001  63.1844483  44.2120480
  61.7155438  62.4388171  44.3448385  60.9326839  63.4948439  45.0957144
  63.9840656  66.2195730  39.2282923  63.3151031  66.7041858  38.7446963
  63.8453526  66.4664951  40.1426301  68.1245925  68.2539474  45.8265581
  68.6764233  68.4171095  46.5914666  68.4652118  68.8443911  45.1545606
  72.9756799  63.0800731  51.6814236  73.5196703  63.6930689  51.1869190
  72.3943644  63.6380310  52.1981249  71.2614312  66.2021449  42.8129263
  71.1365451  65.4011189  42.3040209  71.9193403  66.6967643  42.3243233
  73.3249220  64.0030469  44.4408813  72.3779556  63.8835820  44.3687140
  73.6731993  63.1152967  44.5235075  61.0816075  52.1628283  36.1318180
  60.7528781  51.2825662  35.9493286  61.4355445  52.1075951  37.0194569
  70.3295654  63.7983185  40.6413166  70.1820616  62.8699893  40.8220736
  71.1549147  63.8203276  40.1570241  64.1957898  52.4501253  36.4993658
  64.5353970  52.9787174  35.7772266  64.6430018  52.7881659  37.2752224
  73.9329775  64.6211744  41.7278038  74.8576323  64.4154606  41.5902490
  73.7645079  64.3728145  42.6367380  66.8901339  50.8338303  45.9496726
  66.5498159  50.0346116  46.3517406  66.1840345  51.1340014  45.3773559
  67.5417811  47.9187616  44.4024049  68.3643880  47.4448094  44.2802939
  67.7855874  48.6978099  44.9022735  66.1826045  50.9475874  34.6986951
  66.9034408  51.3257127  34.1950667  65.5591349  51.6664751  34.8021929
  70.3257168  51.6521023  35.6345283  70.5420782  52.5345661  35.3334111
  69.8451235  51.2607237  34.9050925  65.0656389  54.6106736  42.2116028
  64.9200970  54.9247039  43.1040309  64.5881593  55.2291637  41.6586926
  66.9252772  51.6009284  42.2596917  66.9114341  50.7050378  41.9229215
  67.6425200  51.6079948  42.8935203  68.7778903  52.0346625  44.3050045
  68.5196681  52.9563695  44.3034375  68.2463943  51.6377059  44.9950509
  73.7225092  65.1397412  37.0840130  73.8961969  64.5743834  36.3313982
  74.2153983  65.9398307  36.9019620  66.3289668  50.4823665  37.5284487
  66.4505579  49.5540311  37.7275375  66.0391711  50.4962351  36.6162803
  69.1980859  48.1678575  40.6651207  69.2202555  48.2317908  39.7103187
  69.6148918  47.3283084  40.8591713  79.5764483  57.9033835  38.7030430
  80.0195629  57.1541160  38.3049553  78.6990993  57.8943971  38.3204162
  74.7100264  64.4564176  34.1837028  75.4051169  65.0770869  34.4024343
  75.0523414  63.6059527  34.4589406  76.6091687  61.9063882  35.7124359
  77.1343011  62.2451154  34.9873679  76.5214040  60.9710897  35.5287494
  68.2711736  65.8197955  47.8414236  68.5798862  65.5747102  48.7136935
  69.0687218  66.0244594  47.3533106  68.2932348  67.9735865  40.0719612
  67.8537338  67.4812244  40.7652469  69.0440465  67.4308833  39.8311687
  65.7406220  63.5173874  42.1441914  65.1186229  62.8544579  41.8444142
  66.4111087  63.5435006  41.4615562  76.2985593  62.5396785  51.0175557
  75.5081137  62.5220924  50.4780056  76.0618948  63.0785079  51.7724593
  76.4183468  59.3889252  48.3308285  76.4681473  59.2239259  49.2723808
  76.3097392  58.5216511  47.9406166  65.3019727  62.0677797  35.6200374
  65.4507847  62.7513262  34.9667047  66.1086171  62.0482887  36.1349830
  73.7087231  55.3720180  49.6467592  74.6097094  55.2326645  49.3551590
  73.7835205  55.5374634  50.5865770  68.0430036  52.7487034  48.4920778
  67.1733346  53.0420600  48.2203367  68.2789516  53.3327479  49.2128042
  77.9201665  61.8086193  48.5750307  77.6286474  62.1716174  49.4113768
  77.3073797  61.0953201  48.3963639  79.1197348  59.3739073  41.0952877
  79.9544239  59.8128877  41.2590438  79.2556476  58.8977726  40.2761123
  76.1688853  56.9318808  47.0430365  76.6442975  57.1246454  46.2349216
  75.2454419  56.9877994  46.7973749  70.7469070  48.9666651  46.0086199
  71.2651014  49.7027678  45.6832687  70.3924203  49.2730645  46.8432958
  62.3268008  53.8271333  34.1247605  61.6337253  53.9015688  33.4687641
  62.0819760  53.0631676  34.6469122  70.9981664  45.3866934  41.5287095
  71.2783418  44.7190123  42.1547522  71.7832271  45.5796029  41.0161759
  68.8015133  64.5625928  33.0912122  68.2289100  65.1816115  32.6382594
  69.3747926  65.1125289  33.6252044  74.8690522  53.8084568  45.2758671
  75.8207945  53.9082666  45.2970895  74.6993973  53.0162836  45.7856755
  72.8904902  50.8940151  45.4618071  72.2954834  51.1745164  44.7664560
  72.6054599  51.3834052  46.2334813  72.0212392  64.8463078  34.2220704
  72.9543066  64.7808640  34.4253580  71.9335605  65.6819345  33.7635237
  74.6500409  64.1628948  31.1824652  74.5714041  63.8288812  32.0760410
  75.4710076  64.6550716  31.1816124  77.3478600  57.0290688  44.3900970
  77.3154920  56.0906688  44.5760654  77.9579224  57.1074724  43.6566795
  69.1861931  55.8986741  30.4328174  70.1321036  55.7692949  30.5016592
  68.8076176  55.1601402  30.9097602  77.4973089  53.8201731  44.4359253
  76.9812137  53.0360188  44.2489182  78.3813037  53.4920448  44.6005773
  75.1583816  47.5642747  40.3955066  74.9608637  47.2557835  41.2798398
  75.7683521  48.2904385  40.5252996  81.2470447  56.2314557  44.1281458
  80.5203611  56.0970522  43.5197950  80.8317734  56.5391386  44.9338176
  69.0700624  59.9504487  51.8928831  69.9903633  60.1283086  52.0868878
  69.0350207  59.0060532  51.7408531  67.3704848  53.8236717  30.3683059
  66.4636304  53.5269830  30.4445773  67.6480829  53.5266535  29.5017346
  68.9866914  48.3673607  36.5227301  68.1767642  48.0220692  36.8982547
  69.6751331  48.0581150  37.1114912  70.9157462  47.4451653  38.1451597
  71.4688501  47.8647107  38.8041621  71.1527549  46.5187402  38.1874553
  66.9390562  53.4338727  53.9254361  66.8387288  54.3833084  53.8566452
  66.7212104  53.1056966  53.0530431  66.1403633  50.6823652  30.5095039
  67.0022797  51.0078550  30.7690856  66.3253977  49.8955148  29.9968104
  74.2936269  49.5552179  37.6530262  73.7134938  50.2136983  37.2708314
  74.0272202  48.7329523  37.2417679  72.7439836  48.9557236  39.8551582
  73.2439614  49.0673771  39.0465901  73.3875444  48.6518289  40.4952390
  66.8021832  56.8635866  52.7419423  66.3188913  57.6636226  52.9483312
  66.8882771  56.8743811  51.7886867  62.7295169  60.7540401  44.7787857
  63.6838423  60.7224343  44.7117788  62.5307693  60.2931024  45.5938083
  73.0761147  51.7152269  36.7086610  72.1887002  52.0001920  36.4906805
  73.4915136  51.5546032  35.8613887  76.4275684  51.7398790  40.4240949
  77.2036074  52.2295242  40.6965566  75.7023818  52.1656844  40.8812819
  78.8648242  52.4526409  41.4814890  79.4592733  52.2122145  40.7708198
  78.9374826  51.7333540  42.1088426  61.0845398  66.2960020  41.7958055
  60.9499866  65.5360421  41.2296053  60.6677460  67.0200920  41.3286844
  72.2204361  61.4796944  30.8034630  72.9240211  61.6846946  31.4192286
  71.4967010  62.0473706  31.0683713  73.0502171  57.2306805  36.9236900
  72.9937373  57.6875356  36.0844533  73.6030514  56.4697489  36.7459743
  76.8606977  53.0196537  37.7487020  76.6043911  52.6193172  38.5795227
  76.2359845  53.7340331  37.6237159  81.1719315  55.7592610  40.2558311
  80.6118873  55.8285799  41.0289873  80.5662818  55.5833595  39.5357807
  64.2414524  67.1929337  42.0076497  64.1246908  68.1374770  41.9055188
  63.4206970  66.8902899  42.3962296  74.1291058  61.9179473  32.8533090
  74.9636662  61.4860671  32.6710565  73.9675401  61.7461487  33.7809984
  73.7836950  58.4211586  34.2189429  73.7285754  58.2555858  33.2777873
  73.1583006  59.1287619  34.3751619  71.0982858  60.7260498  53.5442992
  71.9674017  60.9001150  53.1829627  70.6189609  61.5454915  53.4218721
  67.0933076  47.9219695  33.7974748  67.0811746  48.8661535  33.9543019
  67.9856498  47.7389841  33.5034209  65.2669038  67.8457599  45.2232426
  66.1696285  67.8781209  45.5398921  65.0406408  66.9158050  45.2378761
  67.0222640  66.5988586  41.8842504  66.0718271  66.5990447  41.7706877
  67.3255126  65.8521320  41.3678539  70.9085195  44.5162472  38.0520684
  70.1417591  43.9620958  38.1977367  71.3195900  44.5884341  38.9134836
  79.5665040  72.3876552  42.8849791  79.2283551  72.2717617  41.9970326
  80.4354808  71.9867717  42.8650798  75.4251855  74.2412028  38.8746682
  74.8616720  74.1501965  38.1062970  75.3104250  73.4211933  39.3549175
  80.0484823  73.5411404  48.8435997  80.0373463  73.1464202  47.9716501
  80.2105462  72.8077476  49.4369768  72.9716287  75.7363220  41.7130903
  73.7637579  75.3954045  41.2977202  73.2112937  75.8458195  42.6333056
  74.9307041  74.9972133  34.5848282  75.7037917  74.4501120  34.4461157
  75.2832440  75.8616383  34.7962743  77.6948291  73.7025364  44.3816541
  78.2911863  73.4781387  43.6673504  77.7523262  72.9610110  44.9841988
  77.2673319  71.1564799  32.2166732  77.5198840  70.6346321  31.4550195
  76.3297878  70.9930945  32.3193415  82.3116602  70.1600578  40.0241475
  83.0979691  69.7420001  39.6731892  82.5755306  71.0646670  40.1923123
  76.9869608  73.0592905  34.4191106  76.8705866  72.3837809  35.0872191
  77.0971868  72.5725279  33.6023260  79.3301149  72.5203052  38.1237796
  78.9659356  71.9933673  38.8350717  80.1868265  72.1301522  37.9504281
  78.9706636  67.5492952  33.1199144  79.1381038  68.4173189  33.4869615
  78.7803805  67.7120234  32.1960434  75.1794450  72.4623728  40.8201679
  74.2544947  72.3299942  41.0279371  75.4278864  73.2417947  41.3171621
  78.9495857  70.0050610  34.1045811  78.8295482  70.4507660  34.9431291
  78.2548445  70.3535927  33.5459349  72.5403261  72.1057001  41.6545468
  72.6695643  72.3591480  42.5684880  71.8600713  72.6984709  41.3350123
  79.2019978  69.9482117  50.4097309  78.4253312  70.5076037  50.4000174
  79.8410541  70.4338900  50.9312179  77.4566351  72.7567570  49.9715276
  78.1981035  73.2952614  49.6950100  76.7503336  73.3833859  50.1286828
  79.2852760  69.8369317  45.9420995  80.1313956  70.2608731  46.0855644
  79.2251398  69.1802942  46.6359558  82.4352206  67.4973686  47.6002168
  82.1913138  68.2515746  47.0636444  82.7112136  67.8759033  48.4349415
  81.9916897  66.6530119  43.1816006  81.1301377  66.9511372  43.4732744
  82.0179332  66.8700518  42.2497039  75.7002548  74.7443791  42.5269575
  76.2703905  75.1731059  41.8887059  76.2910660  74.4626376  43.2253761
  77.7447353  71.3195462  36.3979377  78.4471396  71.7716505  36.8653303
  77.4127981  70.6779281  37.0259270  76.1927714  69.9107218  50.7730586
  75.5626375  70.5923499  51.0065983  76.0863802  69.7990300  49.8283724
  71.4872687  69.5779014  41.6996510  70.6971741  69.8336543  41.2236621
  71.9783934  70.3927352  41.8048551  73.4387432  69.9423594  38.6579987
  72.6418596  70.0542288  39.1763483  73.2113024  70.2810246  37.7920878
  69.7710390  69.8309505  44.1311501  70.0218428  70.7156515  44.3969077
  70.3069938  69.6514106  43.3586593  75.4708457  64.2127984  53.1355837
  75.0775403  63.6594183  53.8103481  76.2874598  64.5238563  53.5262355
  72.4370515  75.6511842  37.0469407  72.9495036  76.4455093  37.1974972
  73.0893228  74.9538133  36.9803009  78.3876418  65.6285863  50.7276094
  79.1286132  66.2293016  50.6480556  78.6194341  64.8863501  50.1694136
  73.5317756  70.8142231  49.0054324  73.4171271  69.9127488  49.3061422
  72.6762274  71.0605927  48.6539140  82.3333581  61.6566966  45.0040376
  81.9897851  62.5468608  44.9279486  82.7012544  61.4668624  44.1409961
  70.4019432  73.9800497  37.8228978  71.2394654  74.3897505  37.6062685
  70.5797699  73.0399939  37.7929172  79.8830975  66.4925278  38.5698049
  79.0272571  66.1032129  38.3903688  80.2957927  66.5717239  37.7097835
  81.4130122  64.0271621  42.9689609  80.9094917  63.9901757  42.1557414
  81.7060728  64.9364364  43.0286265  77.6573007  64.1110351  41.9755790
  78.5226004  63.9153160  41.6161680  77.7250516  63.8820703  42.9025147
  82.0870167  69.5202669  35.3372592  81.7820303  69.8348819  36.1882735
  83.0400609  69.5984089  35.3799925  75.2635326  66.3412559  39.3472157
  75.8379078  66.1187741  38.6145350  75.8506309  66.4101254  40.1000759
  75.5904914  68.3717020  33.3668043  74.7542226  68.7091707  33.6877317
  75.4509683  68.2366000  32.4295180  77.5657994  63.2153808  38.0747227
  76.9122407  62.9002825  37.4503841  77.5238468  62.5929548  38.8007050
  78.6769199  73.4973103  29.9900519  77.7696261  73.2662357  30.1891668
  79.1740231  72.7010722  30.1774500  80.7995735  69.7035742  42.3994874
  79.8818296  69.9250689  42.2416562  81.2155878  69.7782052  41.5406582
  81.5830782  71.1027157  37.5297555  82.3302601  71.6148554  37.2204677
  81.8522372  70.7811210  38.3901948  70.4245603  71.3191212  38.4939711
  70.2270003  70.7260573  37.7690778  69.8692267  71.0143422  39.2115650
  78.4042327  71.2114319  40.6134304  78.4590936  70.2588155  40.5376781
  77.5933529  71.3673758  41.0975603  76.3434686  69.8291378  38.3724683
  75.5302552  70.1285549  38.7789875  76.8393681  69.4347067  39.0899165
  81.9408898  70.2933203  47.2039577  82.2958286  70.5204676  48.0634043
  82.5881029  70.6251580  46.5816832  75.8348761  67.4009734  43.9885918
  76.4748141  67.2598493  43.2908881  75.0026292  67.1144247  43.6124520
  72.9191829  70.8455246  36.1780663  71.9889417  70.7839701  36.3950625
  73.0149301  70.3231199  35.3817304  72.8377378  67.3710059  38.7658905
  73.0984195  68.2855392  38.6568065  73.6594550  66.9034501  38.9155518
  74.3102303  68.7847816  45.9357729  74.9825356  68.5765178  45.2870378
  73.4832090  68.5869902  45.4962962  80.2127875  65.4109757  47.9523390
  79.5655790  66.1099707  47.8587867  80.9828890  65.8445901  48.3199638
  74.7129800  72.0590419  46.6960167  74.5749598  71.3270658  47.2971706
  75.6234724  71.9699319  46.4144354  77.3412101  71.7710378  46.1843846
  78.0511719  71.1303570  46.1430465  77.2981409  72.0223273  47.1070027
  76.0541035  68.7575596  48.0039486  75.5178392  68.3066335  48.6561082
  75.4657743  68.8921505  47.2609950  75.4643294  68.2164248  30.5665949
  74.5872760  68.0953048  30.2028196  75.9401047  67.4250326  30.3144838
  66.9845434  73.0041407  40.6607456  67.6716474  72.6903137  40.0728472
  66.8293563  73.9082772  40.3874708  71.7880156  67.8931604  45.0892480
  71.7038345  67.2857273  44.3542890  70.9662863  68.3840622  45.0901977
  81.9603870  66.3785167  40.4562675  82.4572570  65.6255130  40.1363745
  81.1890851  66.4149484  39.8905885  78.5438839  68.5202550  40.1834360
  78.1736626  67.9673591  40.8715265  79.0397931  67.9160684  39.6309360
  80.2216896  72.2764464  51.5907965  79.5457533  72.1758593  52.2610340
  81.0444530  72.1203678  52.0543962  71.9695755  78.5136400  44.2120480
  72.5549192  77.7680088  44.3448385  71.7720594  78.8240357  45.0957144
  66.5613410  71.0842001  42.9324924  66.5997510  70.5505591  43.7262042
  66.0553703  70.5577206  42.3135901  73.9404172  65.9306541  46.4287466
  74.0045499  66.7921372  46.0164864  73.8771293  65.3180543  45.6959824
  73.4156445  68.0029674  50.0760500  74.0428484  67.6206751  50.6898024
  72.5584364  67.7843876  50.4416193  70.1921988  69.8106103  36.0078855
  70.4875429  68.9016781  35.9545909  69.2910023  69.7893842  35.6859857
  73.7216235  67.8862099  41.9906404  73.0002820  68.4998067  41.8513877
  74.5109490  68.4219864  41.9123050  76.5242548  65.2216526  48.2647055
  77.0476950  65.4678822  49.0273365  76.3054881  66.0536561  47.8450193
  71.9209829  67.4920200  36.1318180  71.5922535  66.6117579  35.9493286
  72.2749200  67.4367869  37.0194569  75.0351652  67.7793170  36.4993658
  75.3747725  68.3079092  35.7772266  75.4823773  68.1173576  37.2752224
  77.7295093  66.1630221  45.9496726  77.3891914  65.3638034  46.3517406
  77.0234100  66.4631932  45.3773559  78.3811565  63.2479533  44.4024049
  79.2037634  62.7740012  44.2802939  78.6249629  64.0270017  44.9022735
  77.0219800  66.2767792  34.6986951  77.7428162  66.6549045  34.1950667
  76.3985104  66.9956669  34.8021929  81.1650922  66.9812941  35.6345283
  81.3814537  67.8637579  35.3334111  80.6844990  66.5899154  34.9050925
  75.9050144  69.9398654  42.2116028  75.7594725  70.2538957  43.1040309
  75.4275347  70.5583554  41.6586926  77.7646527  66.9301202  42.2596917
  77.7508095  66.0342295  41.9229215  78.4818955  66.9371866  42.8935203
  79.6172657  67.3638542  44.3050045  79.3590435  68.2855613  44.3034375
  79.0857698  66.9668977  44.9950509  70.3795806  72.4803998  45.1503689
  69.8349274  73.2563806  45.2823963  71.2575156  72.8274803  44.9922810
  77.1683423  65.8115582  37.5284487  77.2899334  64.8832228  37.7275375
  76.8785465  65.8254268  36.6162803  80.0374613  63.4970493  40.6651207
  80.0596310  63.5609826  39.7103187  80.4542672  62.6575001  40.8591713
  71.1661828  71.6073895  48.0433846  70.4243564  71.7556530  48.6298476
  70.8454572  71.8682160  47.1800595  69.8127047  77.4125650  41.0333174
  68.9758955  76.9847824  40.8517175  69.7850692  77.6058093  41.9703965
  76.6524502  67.3247580  51.7374420  76.7012658  68.2009702  51.3552189
  77.1947016  66.7824973  51.1646063  78.8823791  68.0778952  48.4920778
  78.0127100  68.3712518  48.2203367  79.1183271  68.6619397  49.2128042
  73.8966115  73.4234893  36.6261443  73.6512157  72.5197223  36.8241653
  74.0662029  73.4252043  35.6840921  81.5862824  64.2958569  46.0086199
  82.1044768  65.0319596  45.6832687  81.2317957  64.6022562  46.8432958
  73.1661762  69.1563250  34.1247605  72.4731007  69.2307605  33.4687641
  72.9213514  68.3923594  34.6469122  81.8375419  60.7158852  41.5287095
  82.1177172  60.0482041  42.1547522  82.6226026  60.9087947  41.0161759
  80.0255686  71.2278658  30.4328174  80.9714790  71.0984866  30.5016592
  79.6469931  70.4893320  30.9097602  78.2098603  69.1528635  30.3683059
  77.3030058  68.8561747  30.4445773  78.4874584  68.8558453  29.5017346
  69.1276543  70.4734998  40.8182106  68.8079327  69.6200306  40.5256480
  68.5809971  70.6883576  41.5740073  72.9056451  73.1897439  44.5351612
  73.1242460  74.1214547  44.5539646  73.3182225  72.8305413  45.3206416
  79.8260668  63.6965524  36.5227301  79.0161397  63.3512609  36.8982547
  80.5145085  63.3873068  37.1114912  81.7551217  62.7743571  38.1451597
  82.3082255  63.1939025  38.8041621  81.9921303  61.8479319  38.1874553
  77.7784316  68.7630645  53.9254361  77.6781043  69.7125002  53.8566452
  77.5605858  68.4348884  53.0530431  76.9797387  66.0115570  30.5095039
  77.8416551  66.3370468  30.7690856  77.1647732  65.2247066  29.9968104
  68.9964803  74.0937909  42.7875227  68.3028275  73.6791862  42.2745182
  69.7437794  74.1358446  42.1908646  77.6415586  72.1927784  52.7419423
  77.1582668  72.9928144  52.9483312  77.7276525  72.2035728  51.7886867
  70.9101546  74.0256163  40.6641242  70.8872234  74.1243851  39.7123125
  71.2202182  74.8721314  40.9858408  73.5688924  76.0832318  44.7787857
  74.5232177  76.0516261  44.7117788  73.3701447  75.6222942  45.5938083
  74.1588306  74.6533434  47.3458654  74.9781195  75.1477513  47.3693492
  74.4325113  73.7365402  47.3176222  69.4123220  68.9871568  48.0450851
  70.0582084  68.4770522  48.5338077  69.2040371  69.7240250  48.6194277
  77.9326830  63.2511613  33.7974748  77.9205500  64.1953453  33.9543019
  78.8250252  63.0681758  33.5034209  81.7478950  59.8454389  38.0520684
  80.9811346  59.2912876  38.1977367  82.1589655  59.9176258  38.9134836
  73.7520711  66.1339185  52.1425866  74.6152172  65.7775990  52.3529190
  73.1786122  65.7953080  52.8301270  33.3527732  -1.5351297  24.4781249
  33.2751762  -0.5843472  24.5569730  32.7489376  -1.8805424  25.1356175
  32.0121698  -4.0249776  31.8547809  32.5629124  -4.1532712  31.0824803
  31.1733174  -3.7254887  31.5042702  38.2262261  -2.1034938  19.6342512
  37.5523960  -1.8003241  20.2427469  38.6128083  -1.3005858  19.2847969
  36.4253476  -1.9355265  21.8489591  36.6005232  -2.4067222  22.6635213
  35.7386264  -1.3089499  22.0770852  30.9914562   1.2134097  28.6229451
  31.2311160   1.8452621  29.3008470  30.1483758   0.8622137  28.9094810
  35.5042424  -2.9786780  31.0270955  35.4312595  -2.1731809  31.5390259
  35.0619817  -2.7794814  30.2018976  35.2932203  -3.7415010  24.5373776
  34.5099725  -3.1993330  24.6312001  35.9924948  -3.2241031  24.9368018
  37.9641107  -3.0799946  33.1829114  38.6769079  -2.4452481  33.1105015
  37.4731136  -2.9836080  32.3669115  28.6120739  -5.7969148  30.9365787
  29.1974175  -6.5425460  31.0693691  28.4145577  -5.4865191  31.8202451
  31.4659394  -2.7617900  25.9528229  30.7969769  -2.2771773  25.4692270
  31.3272264  -2.5148680  26.8671608  35.6064662  -0.7274157  32.5510888
  36.1582970  -0.5642535  33.3159973  35.9470856  -0.1369719  31.8790913
  35.7530474  -3.1615675  34.5659542  36.0617600  -3.4066528  35.4382242
  36.5505956  -2.9569037  34.0778412  35.7751086  -1.0077766  26.7964919
  35.3356076  -1.5001387  27.4897775  36.5259203  -1.5504798  26.5556994
  28.2543425  -4.8166225  26.7989547  29.0801445  -5.1162453  26.4188190
  27.9037477  -5.5858602  27.2479336  28.5664136  -2.6853610  28.5203361
  28.4318604  -3.4453209  27.9541359  28.1496198  -1.9612710  28.0532150
  31.7233262  -1.7884293  28.7321804  31.6065646  -0.8438861  28.6300494
  30.9025708  -2.0910732  29.1207603  32.7487776  -1.1356031  31.9477732
  33.6515022  -1.1032421  32.2644227  32.5225146  -2.0655580  31.9624068
  34.5041378  -2.3825045  28.6087811  33.5537009  -2.3823183  28.4952183
  34.8073864  -3.1292310  28.0923846  50.2394071   3.4535494  29.6733573
  50.8772481   3.3342241  28.9696913  50.1214914   4.4016337  29.7321526
  47.0483777   3.4062922  29.6095098  46.7102289   3.2903986  28.7215633
  47.9173546   3.0054087  29.5896104  42.9070593   5.2598398  25.5991989
  42.3435458   5.1688335  24.8308277  42.7922988   4.4398302  26.0794482
  47.5303560   4.5597773  35.5681304  47.5192201   4.1650572  34.6961807
  47.6924200   3.8263846  36.1615075  40.4535025   6.7549590  28.4376209
  41.2456317   6.4140414  28.0222509  40.6931675   6.8644565  29.3578363
  48.4870152   8.9269366  20.9106454  47.8358132   9.5123446  20.5240468
  49.2814515   9.4575561  20.9701491  42.4125779   6.0158503  21.3093588
  43.1856655   5.4687490  21.1706464  42.7651178   6.8802752  21.5208050
  44.2510822   7.3434885  34.5160488  43.9600688   8.2480516  34.4007154
  44.8867806   7.3851413  35.2304557  45.1767028   4.7211734  31.1061847
  45.7730601   4.4967756  30.3918810  45.2342000   3.9796479  31.7087295
  44.7492057   2.1751169  18.9412038  45.0017578   1.6532690  18.1795501
  43.8116616   2.0117314  19.0438722  49.9645417   6.6159798  21.4475438
  49.3291250   6.6894424  22.1596343  49.6342823   7.2053397  20.7694517
  44.4688346   4.0779275  21.1436413  44.3524604   3.4024178  21.8117497
  44.5790605   3.5911649  20.3268566  46.8119886   3.5389422  24.8483102
  46.4478094   3.0120043  25.5596024  47.6687002   3.1487891  24.6749588
  49.2100707   7.0296301  31.5110281  48.9101430   7.9321339  31.4026088
  48.8651766   6.7628484  32.3631434  42.6613188   3.4810098  27.5446986
  41.7363685   3.3486312  27.7524677  42.9097601   4.2604317  28.0416928
  46.4314594   1.0236979  20.8291118  46.3114220   1.4694030  21.6676598
  45.7367183   1.3722297  20.2704656  40.0221999   3.1243371  28.3790775
  40.1514380   3.3777850  29.2930186  39.3419450   3.7171079  28.0595430
  44.1921486  13.7940621  24.4781249  44.1145516  14.7448446  24.5569730
  43.5883130  13.4486494  25.1356175  46.6838716   0.9668486  37.1342616
  45.9072050   1.5262407  37.1245480  47.3229279   1.4525269  37.6557486
  44.9385089   3.7753940  36.6960583  45.6799773   4.3138984  36.4195406
  44.2322074   4.4020229  36.8532135  50.4140428   5.9183080  35.2932744
  50.8223784   5.4765491  34.5487377  49.6917690   5.3435708  35.5466937
  46.7671498   0.8555687  32.6666301  47.6132693   1.2795101  32.8100950
  46.7070136   0.1989311  33.3604864  50.7369243   6.4784271  29.0485033
  50.1078105   6.6429985  28.3461101  50.3494905   6.8925880  29.8195997
  54.6158475   7.4138709  26.4029397  53.9309513   7.7937610  25.8526430
  54.7002324   8.0234035  27.1361345  51.8709406   5.0598668  33.0024740
  52.0826302   5.7030428  32.3259122  51.8239155   4.2260984  32.5346671
  46.2897205   6.2158679  26.3135118  46.7535550   6.4946382  25.5239741
  46.0254003   5.3142124  26.1308209  43.1821286   5.7630161  29.2514882
  43.7522643   6.1917429  28.6132366  43.7729398   5.4812745  29.9499067
  45.2266091   2.3381831  23.1224683  45.9290134   2.7902875  23.5898610
  44.8946719   1.6965650  23.7504577  43.6746452   0.9293588  37.4975893
  43.0445113   1.6109869  37.7311290  43.5682540   0.8176670  36.5529031
  38.9691425   0.5965384  28.4241817  38.1790479   0.8522913  27.9481928
  39.4602672   1.4113722  28.5293858  52.9855234   7.9370623  31.1747098
  53.8072678   7.5350810  30.8929779  52.9817637   7.8338857  32.1263214
  40.9206170   0.9609963  25.3825294  40.1237333   1.0728658  25.9008789
  40.6931762   1.2996615  24.5166184  46.7511838   7.4854666  33.3307808
  46.8156270   7.9475074  34.1665980  46.0422762   6.8552031  33.4590118
  37.2529128   0.8495874  30.8556808  37.5037166   1.7342884  31.1214384
  37.7888676   0.6700476  30.0831900  46.4659855   9.1522774  23.1986789
  46.3305530   9.9974310  23.6271636  47.0069668   9.3542052  22.4352722
  39.9189253   6.6698212  23.7714714  40.4313773   7.4641462  23.9220278
  40.5711966   5.9724502  23.7048315  41.7284137   9.7863968  25.8537467
  41.9050766  10.7081933  25.6658451  42.5240971   9.4722387  26.2831847
  41.0136494   1.8328600  35.7299630  40.8990009   0.9313857  36.0306729
  40.1581012   2.0792297  35.3784447  48.0928332   9.7746340  37.3287131
  47.6492186   8.9882719  37.0108035  48.7545545   9.9625491  36.6631022
  42.8515453  11.3042142  31.8547809  43.4022878  11.1759205  31.0824803
  42.0126929  11.6037031  31.5042702  50.1909570  10.0549140  35.3568532
  50.1728045  10.8758021  34.8648801  51.1129490   9.9303216  35.5818673
  46.6482624   7.5693270  36.1992040  47.1810961   6.8081558  35.9691348
  46.1196705   7.2766922  36.9416195  37.8838170   4.9986866  24.5474284
  38.7213392   5.4083875  24.3307992  38.0616437   4.0586308  24.5174478
  49.7802602   2.6661947  20.2358117  49.2649225   3.4366552  20.4746505
  49.5079910   1.9927083  20.8591179  54.7536876   5.4194302  22.1711291
  53.9766319   5.0805461  21.7266453  55.4328357   5.4246925  21.4966256
  48.0135337   6.6979262  23.7110852  47.4856698   5.9632022  23.3984090
  47.5122839   7.4753939  23.4650821  52.9928183   4.8928283  28.8277899
  52.3351857   5.5827544  28.9158027  53.7968582   5.2824715  29.1711885
  51.8033641   3.2472656  26.8781840  52.3165523   3.8802647  27.3803550
  52.4534865   2.6473851  26.5125200  43.0723651  -0.6096610  20.0913349
  42.2360964  -0.2721924  20.4122624  42.9328421  -0.7447631  19.1540486
  46.1587937   4.5159473  16.7145825  45.2514999   4.2848726  16.9136974
  46.6558969   3.7197092  16.9019807  49.0656016  13.2256980  19.6342512
  48.3917714  13.5288677  20.2427469  49.4521838  14.0286060  19.2847969
  48.2814472   0.7222111  29.1240181  47.3637034   0.9437058  28.9661869
  48.6974616   0.7968422  28.2651888  49.0649520   2.1213527  24.2542861
  49.8121339   2.6334924  23.9449983  49.3341110   1.7997580  25.1147255
  47.3376170   4.6172068  21.2369816  46.4287390   4.3331100  21.3342285
  47.3671254   5.0371146  20.3773122  52.5695438   8.2278657  25.0060983
  52.1157765   7.3869567  25.0626174  51.9389404   8.8640055  25.3435763
  51.0128377  10.0655154  25.9410801  51.3051351  10.6260211  25.2223167
  51.5226998  10.3583715  26.6963960  37.9064341   2.3377582  25.2185018
  37.7088740   1.7446942  24.4936084  37.3511005   2.0329792  25.9360957
  45.8861064   2.2300688  27.3379611  45.9409674   1.2774525  27.2622087
  45.0752266   2.3860127  27.8220909  47.0352258   6.1580811  18.5757894
  46.5971688   5.4416670  18.1163531  47.7762699   6.3856926  18.0142985
  43.8253424   0.8477748  25.0969990  43.0121290   1.1471918  25.5035182
  44.3212418   0.4533437  25.8144472  45.9762002  10.8435505  27.0304254
  45.9338181  11.0696351  26.1012786  46.8924701  10.6098879  27.1790056
  49.4227636   1.3119572  33.9284884  49.7777024   1.5391045  34.7879349
  50.0699767   1.6437949  33.3062139  55.1525373   4.4338008  24.6334213
  55.0143271   4.6239604  23.7055402  54.7961592   5.1957391  25.0902264
  55.1794752   6.5014535  29.6445484  55.6131259   6.4089824  30.4928538
  55.8926333   6.4772036  29.0065500  44.0927803   7.7198534  26.8266217
  44.8868401   7.2248854  26.6248792  43.3819495   7.1916397  26.4633923
  48.9122647  10.1016629  31.1778585  48.9659670  10.6707566  31.9456301
  48.0437429  10.2718514  30.8132622  40.4010566   1.8641616  22.9025970
  39.4708154   1.8026071  23.1195932  40.4968038   1.3417568  22.1062611
  40.3196115  -1.6103572  25.4904212  40.5802933  -0.6958238  25.3813372
  41.1413288  -2.0779129  25.6400824  41.7921041  -0.1965814  32.6603036
  42.4644094  -0.4048452  32.0115685  40.9650827  -0.3943728  32.2208268
  56.0410302   6.5438236  32.1778370  56.2346192   7.4484046  32.4237645
  55.9410920   6.0845655  33.0116955  51.1025411   6.6944979  37.7519250
  50.9510917   6.4655530  36.8349334  51.0930090   7.6515580  37.7650595
  47.8710747   4.2676891  32.7365517  48.8002807   4.4188051  32.5634484
  47.4501777   4.3560912  31.8814163  46.6699079   8.2927556  30.5064054
  46.5310165   7.9246340  31.3789992  45.8813675   8.8075195  30.3348012
  47.2647231  13.3936652  21.8489591  47.4398987  12.9224695  22.6635213
  46.5780019  14.0202418  22.0770852  48.2204294   7.6709158  27.8952892
  47.8854127   7.6309928  28.7910542  47.7208240   7.0053874  27.4223302
  42.1948538   3.0776789  33.4205473  42.0568336   2.3457027  34.0217012
  43.1053461   2.9885689  33.1389661  51.1563486   5.0165193  18.1689952
  50.5392656   4.2912021  18.0723004  50.6879974   5.7774553  17.8257026
  44.8230839   2.7896748  32.9089153  45.5330457   2.1489940  32.8675771
  44.7800147   3.0409643  33.8315334  52.8117617   9.7264101  35.8295732
  52.7530164   9.0423321  35.1626315  53.2137136  10.4683091  35.3776358
  43.5359773  -0.2238034  34.7284792  42.9997130  -0.6747296  35.3806389
  42.9476481  -0.0892125  33.9855257  41.8308316  16.5426015  28.6229451
  42.0704914  17.1744539  29.3008470  40.9877513  16.1914055  28.9094810
  52.8135025   7.6903685  34.0609712  51.9261803   7.3529607  34.1836111
  53.3833576   6.9586716  34.2978477  34.4664172   4.0227777  27.3852763
  35.1535212   3.7089507  26.7973778  34.3112300   4.9269141  27.1120015
  39.2698894  -1.0882027  31.8137787  39.1857083  -1.6956357  31.0788197
  38.4481600  -0.5973008  31.8147283  46.3436178  12.3505137  31.0270955
  46.2706350  13.1560109  31.5390259  45.9013571  12.5497103  30.2018976
  46.1325958  11.5876907  24.5373776  45.3493480  12.1298588  24.6312001
  46.8318703  12.1050887  24.9368018  48.8034862  12.2491971  33.1829114
  49.5162834  12.8839436  33.1105015  48.3124890  12.3455837  32.3669115
  50.5252388   6.1543224  24.7546405  49.5908667   6.2744687  24.5851110
  50.7029057   5.2515691  24.4906415  43.8546775   9.9986415  34.0034684
  44.5556235  10.6322898  34.1564079  43.3841890  10.3401146  33.2430324
  51.9801171   8.3404365  22.2882591  52.2561015   8.2260959  23.1976466
  51.1105670   7.9421850  22.2494765  51.6548061   2.5531022  31.8287235
  51.0019511   2.8006930  31.1739688  52.0328441   1.7395161  31.4949712
  48.6155235  12.5890716  25.9315405  48.7977629  11.7712372  26.3943157
  49.4388221  12.8058408  25.4940295  48.9497400  11.5158901  23.1930454
  49.4785167  11.0051355  22.5800616  49.2125620  11.2001431  24.0575987
  47.7035634   3.2950833  38.3153272  47.0276271   3.1944963  38.9855647
  48.5263268   3.1390047  38.7789269  39.4514493   9.5322770  30.9365787
  40.0367930   8.7866458  31.0693691  39.2539332   9.8426727  31.8202451
  42.3053148  12.5674017  25.9528229  41.6363524  13.0520145  25.4692270
  42.1666018  12.8143238  26.8671608  34.0432148   2.1028370  29.6570230
  34.0816247   1.5691961  30.4507348  33.5372441   1.5763576  29.0381207
  46.4458417  14.6017761  32.5510888  46.9976725  14.7649382  33.3159973
  46.7864610  15.1922199  31.8790913  40.8975183  -0.9783957  36.8005807
  41.5247222  -1.3606879  37.4143331  40.0403102  -1.1969755  37.1661499
  51.2969291   9.4279018  38.4059542  51.8409195  10.0408977  37.9114497
  50.7156136   9.9858597  38.9226555  37.6740725   0.8292472  22.7324162
  37.9694167  -0.0796849  22.6791215  36.7728761   0.8080212  22.4105164
  49.5826804  12.5499736  29.5374570  49.4577944  11.7489476  29.0285515
  50.2405895  13.0445930  29.0488540  41.2034972  -1.0951531  28.7151710
  40.4821558  -0.4815563  28.5759184  41.9928228  -0.5593766  28.6368356
  51.6461713  10.3508757  31.1654120  50.6992048  10.2314108  31.0932447
  51.9944486   9.4631255  31.2480382  39.4028567  -1.4893430  22.8563487
  39.0741273  -2.3696051  22.6738593  39.7567938  -1.5445761  23.7439876
  48.6508146  10.1461473  27.3658472  48.5033108   9.2178180  27.5466042
  49.4761639  10.1681563  26.8815548  42.5170390  -1.2020460  23.2238964
  42.8566463  -0.6734539  22.5017573  42.9642511  -0.8640054  23.9997531
  52.2542268  10.9690031  28.4523345  53.1788815  10.7632893  28.3147796
  52.0857571  10.7206433  29.3612687  43.3868882   0.9585024  28.9361334
  43.2413462   1.2725327  29.8285616  42.9094085   1.5769924  28.3832233
  52.0437584  11.4875699  23.8085437  52.2174461  10.9222121  23.0559289
  52.5366475  12.2876594  23.6264926  37.8614544   3.4990368  31.8748995
  37.3168012   4.2750176  32.0069270  38.7393894   3.8461172  31.7168117
  53.0312756  10.8042463  20.9082335  53.7263661  11.4249156  21.1269649
  53.3735907   9.9537815  21.1834713  38.6480566   2.6260264  34.7679152
  37.9062302   2.7742900  35.3543783  38.3273310   2.8868530  33.9045902
  54.9304180   8.2542169  22.4369666  55.4555504   8.5929442  21.7118986
  54.8426532   7.3189184  22.2532800  46.5924228  12.1676243  34.5659542
  46.9011355  11.9225389  35.4382242  47.3899710  12.3722881  34.0778412
  46.6144840  14.3214152  26.7964919  46.1749831  13.8290531  27.4897775
  47.3652957  13.7787120  26.5556994  39.0937179  10.5125693  26.7989547
  39.9195199  10.2129465  26.4188190  38.7431231   9.7433315  27.2479336
  44.0618712   9.8652161  28.8687220  43.4398722   9.2022866  28.5689448
  44.7323579   9.8913293  28.1860868  37.2945784   8.4312019  27.7578480
  36.4577693   8.0034194  27.5762482  37.2669430   8.6244463  28.6949272
  54.6198086   8.8875072  37.7420864  53.8293629   8.8699211  37.2025363
  54.3831440   9.4263366  38.4969900  54.7395961   5.7367539  35.0553592
  54.7893966   5.5717546  35.9969115  54.6309884   4.8694798  34.6651473
  43.6232219   8.4156085  22.3445681  43.7720340   9.0991549  21.6912354
  44.4298663   8.3961175  22.8595137  56.2414158   8.1564480  35.2995614
  55.9498966   8.5194461  36.1359075  55.6286289   7.4431489  35.1208946
  57.4409840   5.7217360  27.8198184  58.2756731   6.1607164  27.9835744
  57.5768969   5.2456013  27.0006430  54.4901346   3.2797095  33.7675672
  54.9655467   3.4724741  32.9594523  53.5666911   3.3356281  33.5219055
  41.3784852   4.4421262  23.3506750  41.1330894   3.5383592  23.5486960
  41.5480767   4.4438413  22.4086228  40.6480500   0.1749620  20.8492911
  39.9549745   0.2493975  20.1932947  40.4032252  -0.5890037  21.3714428
  47.1227625  10.9104215  19.8157428  46.5501592  11.5294402  19.3627900
  47.6960419  11.4603577  20.3497350  50.3424885  11.1941365  20.9466011
  51.2755558  11.1286927  21.1498886  50.2548098  12.0297632  20.4880543
  52.9712901  10.5107235  17.9069958  52.8926533  10.1767099  18.8005716
  53.7922568  11.0029003  17.9061431  47.5074423   2.2465028  17.1573481
  48.4533528   2.1171236  17.2261899  47.1288668   1.5079690  17.6342909
  47.3913116   6.2982774  38.6174138  48.3116125   6.4761373  38.8114184
  47.3562699   5.3538819  38.4653837  45.6917341   0.1715004  17.0928366
  44.7848796  -0.1251883  17.1691080  45.9693322  -0.1255178  16.2262652
  36.6095281   1.4921368  27.5427413  36.2898065   0.6386676  27.2501787
  36.0628709   1.7069946  28.2985380  40.3875188   4.2083809  31.2596919
  40.6061198   5.1400916  31.2784953  40.8000962   3.8491783  32.0451723
  45.2603054  -0.2182986  40.6499668  45.1599781   0.7311371  40.5811759
  45.0424596  -0.5464747  39.7775738  36.4783541   5.1124279  29.5120534
  35.7847012   4.6978232  28.9990489  37.2256532   5.1544816  28.9153953
  45.1234324   3.2114153  39.4664730  44.6401406   4.0114513  39.6728619
  45.2095263   3.2222098  38.5132174  38.3920283   5.0442533  27.3886549
  38.3690972   5.1430220  26.4368432  38.7020920   5.8907684  27.7103715
  41.0507661   7.1018688  31.5033163  42.0050915   7.0702630  31.4363095
  40.8520185   6.6409312  32.3183389  41.6407043   5.6719804  34.0703961
  42.4599932   6.1663883  34.0938798  41.9143851   4.7551772  34.0421529
  39.4057890  12.6438307  28.5203361  39.2712358  11.8838708  27.9541359
  38.9889952  13.3679207  28.0532150  50.5416853   7.8275231  17.5279937
  51.2452703   8.0325233  18.1437592  49.8179502   8.3951993  17.7929020
  51.3714663   3.5785092  23.6482207  51.3149865   4.0353644  22.8089839
  51.9243006   2.8175777  23.4705049  42.5627016  13.5407624  28.7321804
  42.4459400  14.4853057  28.6300494  41.7419462  13.2381186  29.1207603
  52.4503551   8.2657760  19.5778397  53.2849154   7.8338959  19.3955871
  52.2887893   8.0939774  20.5055291  52.1049443   4.7689873  20.9434736
  52.0498247   4.6034145  20.0023180  51.4795498   5.4765906  21.0996926
  36.8941958   0.0057938  34.7696158  37.5400821  -0.5043108  35.2583383
  36.6859109   0.7426619  35.3439583  49.4195350   7.0738785  40.2688299
  50.2886510   7.2479438  39.9074934  48.9402101   7.8933202  40.1464028
  43.5881530  14.1935886  31.9477732  44.4908777  14.2259497  32.2644227
  43.3618900  13.2636337  31.9624068  45.3435132  12.9466873  28.6087811
  44.3930763  12.9468734  28.4952183  45.6467618  12.1999607  28.0923846
  61.0787826  18.7827411  29.6733573  61.7166236  18.6634159  28.9696913
  60.9608669  19.7308255  29.7321526  57.8877532  18.7354839  29.6095098
  57.5496043  18.6195904  28.7215633  58.7567300  18.3346004  29.5896104
  53.7464348  20.5890316  25.5991989  53.1829213  20.4980253  24.8308277
  53.6316743  19.7690220  26.0794482  51.2928780  22.0841507  28.4376209
  52.0850071  21.7432332  28.0222509  51.5325430  22.1936482  29.3578363
  59.3263906  24.2561283  20.9106454  58.6751886  24.8415364  20.5240468
  60.1208269  24.7867478  20.9701491  53.2519533  21.3450421  21.3093588
  54.0250409  20.7979408  21.1706464  53.6044932  22.2094670  21.5208050
  55.0904576  22.6726803  34.5160488  54.7994442  23.5772434  34.4007154
  55.7261560  22.7143330  35.2304557  56.0160783  20.0503651  31.1061847
  56.6124355  19.8259674  30.3918810  56.0735754  19.3088397  31.7087295
  55.5885811  17.5043087  18.9412038  55.8411332  16.9824608  18.1795501
  54.6510370  17.3409232  19.0438722  60.6329094  16.5078865  26.7486781
  61.4192183  16.0898288  26.3977198  60.8967798  17.4124957  26.9168430
  60.8039171  21.9451715  21.4475438  60.1685004  22.0186342  22.1596343
  60.4736578  22.5345314  20.7694517  66.0337521  16.4454098  27.6519760
  66.7662693  15.8753315  27.8857589  65.2776877  16.0575699  28.0926265
  55.3082100  19.4071193  21.1436413  55.1918358  18.7316096  21.8117497
  55.4184360  18.9203567  20.3268566  57.6513641  18.8681340  24.8483102
  57.2871848  18.3411961  25.5596024  58.5080757  18.4779809  24.6749588
  63.5562942  10.1575672  32.1114369  63.2246266  11.0271083  31.8875583
  62.9608555   9.8411956  32.7908399  57.2919128  13.8971239  19.8444451
  57.4593530  14.7651476  20.2114922  57.1016297  14.0598521  18.9205740
  60.0494461  22.3588218  31.5110281  59.7495184  23.2613257  31.4026088
  59.7045521  22.0920402  32.3631434  53.5006943  18.8102015  27.5446986
  52.5757439  18.6778229  27.7524677  53.7491356  19.5896234  28.0416928
  63.4491605  14.8770759  29.1907719  62.5408482  14.8086167  28.8966480
  63.3979201  15.3542703  30.0189544  57.2708349  16.3528897  20.8291118
  57.1507974  16.7985948  21.6676598  56.5760937  16.7014215  20.2704656
  50.8615754  18.4535289  28.3790775  50.9908135  18.7069768  29.2930186
  50.1813205  19.0462997  28.0595430  55.0315241  29.1232539  24.4781249
  54.9539271  30.0740364  24.5569730  54.4276885  28.7778411  25.1356175
  57.5232471  16.2960404  37.1342616  56.7465805  16.8554324  37.1245480
  58.1623034  16.7817187  37.6557486  65.3153251  13.0787197  30.9685592
  64.6727632  13.3719730  30.3225387  64.8108180  12.9640117  31.7738789
  62.9693415  16.8250370  21.6571452  63.8811271  17.0577757  21.4819149
  62.4603062  17.4087414  21.0946530  61.2534183  21.2474998  35.2932744
  61.6617539  20.8057408  34.5487377  60.5311444  20.6727625  35.5466937
  57.6065253  16.1847605  32.6666301  58.4526448  16.6087018  32.8100950
  57.5463890  15.5281229  33.3604864  61.5762997  21.8076189  29.0485033
  60.9471860  21.9721903  28.3461101  61.1888659  22.2217798  29.8195997
  65.4552229  22.7430626  26.4029397  64.7703267  23.1229528  25.8526430
  65.5396079  23.3525953  27.1361345  60.7564698  13.8451973  34.3247475
  60.5125630  14.5994034  33.7881751  61.0324629  14.2237321  35.1594722
  62.7103161  20.3890585  33.0024740  62.9220056  21.0322345  32.3259122
  62.6632909  19.5552902  32.5346671  60.3129390  13.0008406  29.9061313
  59.4513869  13.2989660  30.1978050  60.3391824  13.2178805  28.9742345
  57.1290959  21.5450597  26.3135118  57.5929305  21.8238300  25.5239741
  56.8647757  20.6434041  26.1308209  54.0215040  21.0922078  29.2514882
  54.5916397  21.5209347  28.6132366  54.6123152  20.8104663  29.9499067
  56.0659845  17.6673749  23.1224683  56.7683889  18.1194793  23.5898610
  55.7340474  17.0257568  23.7504577  54.5140207  16.2585506  37.4975893
  53.8838867  16.9401787  37.7311290  54.4076295  16.1468587  36.5529031
  49.8085179  15.9257302  28.4241817  49.0184233  16.1814830  27.9481928
  50.2996427  16.7405640  28.5293858  63.8248989  23.2662541  31.1747098
  64.6466432  22.8642728  30.8929779  63.8211392  23.1630775  32.1263214
  51.7599925  16.2901881  25.3825294  50.9631088  16.4020575  25.9008789
  51.5325517  16.6288533  24.5166184  48.0922882  16.1787792  30.8556808
  48.3430921  17.0634802  31.1214384  48.6282431  15.9992394  30.0831900
  71.9154982  19.6101289  27.5232069  71.1618690  19.0408687  27.3676074
  72.0502523  19.5763954  28.4702704  57.3053610  24.4814692  23.1986789
  57.1699285  25.3266227  23.6271636  57.8463422  24.6833969  22.4352722
  53.7920949  10.5606272  39.8601144  53.3987895  10.0072470  40.5348788
  54.6087090  10.8716850  40.2507661  50.7583007  21.9990130  23.7714714
  51.2707528  22.7933380  23.9220278  51.4105720  21.3016420  23.7048315
  52.5677892  25.1155886  25.8537467  52.7444520  26.0373851  25.6658451
  53.3634725  24.8014305  26.2831847  56.7088910  11.9764151  37.4521400
  57.4498624  12.5771304  37.3725863  56.9406833  11.2341788  36.8939443
  51.8530248  17.1620518  35.7299630  51.7383764  16.2605775  36.0306729
  50.9974766  17.4084215  35.3784447  53.6909207  26.6334060  31.8547809
  54.2416633  26.5051123  31.0824803  52.8520683  26.9328949  31.5042702
  60.6546073   8.0045254  31.7285682  60.3110343   8.8946895  31.6524793
  61.0225036   7.8146911  30.8655267  48.7231924  20.3278784  24.5474284
  49.5607146  20.7375792  24.3307992  48.9010192  19.3878226  24.5174478
  60.6196356  17.9953865  20.2358117  60.1042980  18.7658469  20.4746505
  60.3473665  17.3219001  20.8591179  58.2043467  12.8403565  25.2943356
  57.3485064  12.4510416  25.1148994  58.6170419  12.9195526  24.4343141
  59.7342614  10.3749909  29.6934915  59.2307409  10.3380044  28.8802721
  60.0273221  11.2842651  29.7531572  55.9785500  10.4588638  28.7001097
  56.8438496  10.2631447  28.3406987  56.0463009  10.2298990  29.6270454
  65.5930630  20.7486219  22.1711291  64.8160073  20.4097379  21.7266453
  66.2722111  20.7538842  21.4966256  60.4082659  15.8680957  22.0617898
  60.1032795  16.1827106  22.9128042  61.3613101  15.9462377  22.1045231
  58.8529091  22.0271180  23.7110852  58.3250453  21.2923940  23.3984090
  58.3516594  22.8045856  23.4650821  63.8321937  20.2220201  28.8277899
  63.1745612  20.9119462  28.9158027  64.6362336  20.6116632  29.1711885
  53.5847819  12.6890846  26.0717464  54.1591571  12.4666028  25.3390657
  54.1718801  12.7579541  26.8246065  62.6427396  18.5764573  26.8781840
  63.1559278  19.2094565  27.3803550  63.2928620  17.9765769  26.5125200
  53.9117406  14.7195307  20.0913349  53.0754718  15.0569994  20.4122624
  53.7722176  14.5844287  19.1540486  55.8870486   9.5632095  24.7992533
  55.2334899   9.2481112  24.1749148  55.8450961   8.9407836  25.5252356
  56.9981691  19.8451390  16.7145825  56.0908753  19.6140644  16.9136974
  57.4952723  19.0489010  16.9019807  59.9049770  28.5548898  19.6342512
  59.2311469  28.8580594  20.2427469  60.2915592  29.3577978  19.2847969
  59.1208227  16.0514029  29.1240181  58.2030788  16.2728976  28.9661869
  59.5368370  16.1260339  28.2651888  59.9043275  17.4505444  24.2542861
  60.6515094  17.9626842  23.9449983  60.1734864  17.1289497  25.1147255
  58.1769925  19.9463985  21.2369816  57.2681144  19.6623018  21.3342285
  58.2065009  20.3663064  20.3773122  63.4089192  23.5570575  25.0060983
  62.9551519  22.7161485  25.0626174  62.7783159  24.1931973  25.3435763
  62.3522112  14.4862561  26.2361651  61.6144869  13.9739947  26.5671893
  62.6048885  14.0462942  25.4244927  61.8522131  25.3947071  25.9410801
  62.1445106  25.9552128  25.2223167  62.3620752  25.6875632  26.6963960
  62.4533739   7.2638813  26.8303420  62.7592616   6.4036176  26.5429335
  63.1786344   7.8556433  26.6302414  48.7458095  17.6669499  25.2185018
  48.5482495  17.0738860  24.4936084  48.1904759  17.3621709  25.9360957
  56.7254819  17.5592606  27.3379611  56.7803429  16.6066442  27.2622087
  55.9146021  17.7152045  27.8220909  57.8746013  21.4872729  18.5757894
  57.4365443  20.7708588  18.1163531  58.6156453  21.7148844  18.0142985
  54.6647179  16.1769666  25.0969990  53.8515044  16.4763836  25.5035182
  55.1606173  15.7825354  25.8144472  56.8155757  26.1727422  27.0304254
  56.7731935  26.3988269  26.1012786  57.7318455  25.9390797  27.1790056
  60.2621390  16.6411490  33.9284884  60.6170778  16.8682963  34.7879349
  60.9093522  16.9729867  33.3062139  65.9919127  19.7629926  24.6334213
  65.8537026  19.9531522  23.7055402  65.6355346  20.5249309  25.0902264
  54.1561254  13.7488021  30.7131225  54.7960633  13.6076780  30.0154188
  53.3238784  13.4622534  30.3369827  66.0188507  21.8306453  29.6445484
  66.4525014  21.7381742  30.4928538  66.7320088  21.8063953  29.0065500
  54.9321557  23.0490451  26.8266217  55.7262156  22.5540772  26.6248792
  54.2213250  22.5208315  26.4633923  59.7516402  25.4308547  31.1778585
  59.8053424  25.9999483  31.9456301  58.8831183  25.6010432  30.8132622
  51.2404321  17.1933533  22.9025970  50.3101909  17.1317989  23.1195932
  51.3361793  16.6709486  22.1062611  51.1589870  13.7188346  25.4904212
  51.4196687  14.6333679  25.3813372  51.9807042  13.2512789  25.6400824
  52.6314795  15.1326103  32.6603036  53.3037849  14.9243465  32.0115685
  51.8044582  14.9348189  32.2208268  66.8804057  21.8730154  32.1778370
  67.0739947  22.7775964  32.4237645  66.7804675  21.4137573  33.0116955
  58.5340367  11.7588044  34.6768697  57.8868282  12.4577994  34.5833173
  59.3041383  12.1924188  35.0444945  58.7104502  19.5968809  32.7365517
  59.6396562  19.7479969  32.5634484  58.2895532  19.6852830  31.8814163
  57.5092833  23.6219473  30.5064054  57.3703919  23.2538258  31.3789992
  56.7207430  24.1367113  30.3348012  58.1040985  28.7228570  21.8489591
  58.2792741  28.2516613  22.6635213  57.4173773  29.3494336  22.0770852
  59.0598049  23.0001076  27.8952892  58.7247881  22.9601846  28.7910542
  58.5601994  22.3345792  27.4223302  53.0342293  18.4068706  33.4205473
  52.8962090  17.6748945  34.0217012  53.9447216  18.3177606  33.1389661
  61.9957240  20.3457110  18.1689952  61.3786411  19.6203939  18.0723004
  61.5273729  21.1066471  17.8257026  55.6624593  18.1188666  32.9089153
  56.3724212  17.4781858  32.8675771  55.6193901  18.3701560  33.8315334
  63.6511372  25.0556019  35.8295732  63.5923918  24.3715239  35.1626315
  64.0530890  25.7975009  35.3776358  54.3753527  15.1053883  34.7284792
  53.8390884  14.6544622  35.3806389  53.7870236  15.2399792  33.9855257
  53.7855786  14.5642535  17.2911256  52.9085252  14.4431336  16.9273503
  54.2613539  13.7728613  17.0390145  63.6528779  23.0195603  34.0609712
  62.7655558  22.6821525  34.1836111  64.2227330  22.2878634  34.2978477
  45.3057926  19.3519695  27.3852763  45.9928966  19.0381425  26.7973778
  45.1506055  20.2561059  27.1120015  50.1092648  14.2409891  31.8137787
  50.0250837  13.6335561  31.0788197  49.2875355  14.7318909  31.8147283
  57.1829933  27.6797055  31.0270955  57.1100104  28.4852027  31.5390259
  56.7407326  27.8789021  30.2018976  56.9719712  26.9168825  24.5373776
  56.1887234  27.4590505  24.6312001  57.6712457  27.4342805  24.9368018
  60.2816362  12.7263455  27.1807982  60.7785062  11.9733417  26.8609052
  59.5103344  12.7627771  26.6151191  68.1346120  18.4303820  28.8226273
  68.1235996  19.3128536  28.4520206  67.2663499  18.0775371  28.6280810
  59.6428616  27.5783889  33.1829114  60.3556588  28.2131354  33.1105015
  59.1518645  27.6747755  32.3669115  61.3646143  21.4835142  24.7546405
  60.4302422  21.6036604  24.5851110  61.5422811  20.5807609  24.4906415
  56.8651331  14.8680838  26.9079666  56.4949119  14.3151878  27.5960572
  57.3610423  14.2638971  26.3554667  64.7518694  17.3252461  25.2896439
  65.2179147  18.1580453  25.2156742  65.2026195  16.8597443  25.9941698
  54.6940530  25.3278333  34.0034684  55.3949989  25.9614816  34.1564079
  54.2235645  25.6693064  33.2430324  62.8194925  23.6696282  22.2882591
  63.0954769  23.5552877  23.1976466  61.9499424  23.2713767  22.2494765
  62.7235357   9.6933048  29.3287341  61.8098437   9.9237275  29.4969548
  63.1528459   9.7771492  30.1801373  62.4941816  17.8822940  31.8287235
  61.8413266  18.1298848  31.1739688  62.8722195  17.0687078  31.4949712
  59.4548989  27.9182633  25.9315405  59.6371384  27.1004289  26.3943157
  60.2781975  28.1350326  25.4940295  59.7891155  26.8450818  23.1930454
  60.3178921  26.3343273  22.5800616  60.0519375  26.5293349  24.0575987
  53.1446903  27.8965935  25.9528229  52.4757278  28.3812063  25.4692270
  53.0059773  28.1435156  26.8671608  44.8825902  17.4320288  29.6570230
  44.9210002  16.8983879  30.4507348  44.3766195  16.9055493  29.0381207
  57.2852171  29.9309679  32.5510888  57.8370479  30.0941300  33.3159973
  57.6258365  30.5214116  31.8790913  52.2616665  12.2784828  33.1532773
  52.3257991  13.1399659  32.7410170  52.1983785  11.6658830  32.4205131
  51.7368937  14.3507961  36.8005807  52.3640976  13.9685038  37.4143331
  50.8796856  14.1322163  37.1661499  48.5134480  16.1584390  22.7324162
  48.8087921  15.2495068  22.6791215  47.6122516  16.1372129  22.4105164
  60.4220559  27.8791654  29.5374570  60.2971698  27.0781394  29.0285515
  61.0799650  28.3737847  29.0488540  52.0428727  14.2340387  28.7151710
  51.3215313  14.8476354  28.5759184  52.8321983  14.7698151  28.6368356
  62.4855467  25.6800674  31.1654120  61.5385803  25.5606025  31.0932447
  62.8338240  24.7923172  31.2480382  54.8455040  11.5694813  34.9892362
  55.3689442  11.8157110  35.7518671  54.6267374  12.4014848  34.5695499
  50.2422322  13.8398488  22.8563487  49.9135028  12.9595867  22.6738593
  50.5961692  13.7846156  23.7439876  59.4901900  25.4753390  27.3658472
  59.3426863  24.5470098  27.5466042  60.3155394  25.4973481  26.8815548
  53.3564145  14.1271457  23.2238964  53.6960217  14.6557379  22.5017573
  53.8036265  14.4651864  23.9997531  63.0936022  26.2981949  28.4523345
  64.0182570  26.0924810  28.3147796  62.9251326  26.0498350  29.3612687
  56.0507586  12.5108508  32.6742033  55.7104406  11.7116321  33.0762712
  55.3446592  12.8110219  32.1018866  56.7024057   9.5957821  31.1269356
  57.5250127   9.1218299  31.0048246  56.9462121  10.3748304  31.6268042
  55.3432292  12.6246079  21.4232257  56.0640654  13.0027332  20.9195974
  54.7197596  13.3434956  21.5267235  59.4863415  13.3291228  22.3590590
  59.7027029  14.2115866  22.0579418  59.0057482  12.9377441  21.6296232
  54.2262636  16.2876941  28.9361334  54.0807217  16.6017244  29.8285616
  53.7487840  16.9061842  28.3832233  56.0859019  13.2779489  28.9842224
  56.0720588  12.3820583  28.6474522  56.8031447  13.2850153  29.6180510
  57.9385150  13.7116829  31.0295351  57.6802928  14.6333900  31.0279682
  57.4070190  13.3147264  31.7195815  62.8831338  26.8167617  23.8085437
  63.0568216  26.2514039  23.0559289  63.3760230  27.6168511  23.6264926
  48.7008298  18.8282286  31.8748995  48.1561766  19.6042094  32.0069270
  49.5787648  19.1753090  31.7168117  55.4895915  12.1593870  24.2529794
  55.6111826  11.2310516  24.4520681  55.1997957  12.1732556  23.3408109
  58.3587105   9.8448780  27.3896514  58.3808802   9.9088113  26.4348493
  58.7755164   9.0053289  27.5837020  68.7370730  19.5804040  25.4275736
  69.1801876  18.8311365  25.0294860  67.8597240  19.5714176  25.0449468
  63.8706511  26.1334381  20.9082335  64.5657416  26.7541074  21.1269649
  64.2129661  25.2829732  21.1834713  65.7697934  23.5834087  22.4369666
  66.2949258  23.9221359  21.7118986  65.6820287  22.6481102  22.2532800
  57.4317983  27.4968160  34.5659542  57.7405109  27.2517307  35.4382242
  58.2293465  27.7014799  34.0778412  57.4538595  29.6506070  26.7964919
  57.0143585  29.1582449  27.4897775  58.2046712  29.1079037  26.5556994
  49.9330934  25.8417611  26.7989547  50.7588954  25.5421383  26.4188190
  49.5824986  25.0725233  27.2479336  54.9012467  25.1944079  28.8687220
  54.2792476  24.5314784  28.5689448  55.5717334  25.2205211  28.1860868
  48.1339539  23.7603937  27.7578480  47.2971447  23.3326111  27.5762482
  48.1063184  23.9536380  28.6949272  54.9736994  13.6725867  38.4619726
  55.0225150  14.5487990  38.0797496  55.5159509  13.1303260  37.8891370
  65.5789715  21.0659457  35.0553592  65.6287720  20.9009464  35.9969115
  65.4703639  20.1986716  34.6651473  54.4625974  23.7448002  22.3445681
  54.6114094  24.4283467  21.6912354  55.2692417  23.7253092  22.8595137
  62.8693478  17.0490385  36.3712899  63.7703340  16.9096849  36.0796897
  62.9441452  17.2144839  37.3111076  57.2036283  14.4257239  35.2166085
  56.3339592  14.7190805  34.9448674  57.4395763  15.0097684  35.9373349
  67.0807912  23.4856398  35.2995614  66.7892720  23.8486379  36.1359075
  66.4680043  22.7723406  35.1208946  68.2803594  21.0509278  27.8198184
  69.1150486  21.4899082  27.9835744  68.4162723  20.5747931  27.0006430
  65.3295100  18.6089013  33.7675672  65.8049222  18.8016659  32.9594523
  64.4060666  18.6648199  33.5219055  52.2178607  19.7713180  23.3506750
  51.9724649  18.8675510  23.5486960  52.3874521  19.7730330  22.4086228
  59.9075317  10.6436856  32.7331506  60.4257261  11.3797883  32.4077994
  59.5530450  10.9500850  33.5678265  51.4874254  15.5041537  20.8492911
  50.7943499  15.5785892  20.1932947  51.2426006  14.7401881  21.3714428
  60.1587911   7.0637139  28.2532402  60.4389665   6.3960328  28.8792829
  60.9438518   7.2566234  27.7407066  57.9621379  26.2396133  19.8157428
  57.3895346  26.8586320  19.3627900  58.5354173  26.7895494  20.3497350
  64.0296769  15.4854773  32.0003977  64.9814192  15.5852870  32.0216201
  63.8600220  14.6933041  32.5102062  62.0511149  12.5710356  32.1863378
  61.4561081  12.8515369  31.4909867  61.7660845  13.0604257  32.9580119
  61.1818639  26.5233283  20.9466011  62.1149312  26.4578844  21.1498886
  61.0941852  27.3589550  20.4880543  63.8106656  25.8399153  17.9069958
  63.7320287  25.5059017  18.8005716  64.6316323  26.3320921  17.9061431
  66.5084847  18.7060892  31.1146277  66.4761167  17.7676893  31.3005961
  67.1185471  18.7844929  30.3812102  58.3468178  17.5756945  17.1573481
  59.2927283  17.4463154  17.2261899  57.9682423  16.8371607  17.6342909
  66.6579336  15.4971936  31.1604560  66.1418384  14.7130393  30.9734489
  67.5419284  15.1690653  31.3251080  64.3190062   9.2412951  27.1200373
  64.1214884   8.9328040  28.0043705  64.9289768   9.9674590  27.2498303
  72.3261397  19.7676899  30.2552314  73.0564785  19.5062187  30.8160017
  71.7168342  19.0305621  30.2954382  70.4076694  17.9084762  30.8526765
  69.6809858  17.7740727  30.2443256  69.9923981  18.2161591  31.6583483
  56.5311095  15.5006922  17.0928366  55.6242550  15.2040035  17.1691080
  56.8087076  15.2036740  16.2262652  47.4489035  16.8213285  27.5427413
  47.1291820  15.9678593  27.2501787  46.9022464  17.0361863  28.2985380
  51.2268943  19.5375726  31.2596919  51.4454953  20.4692834  31.2784953
  51.6394717  19.1783701  32.0451723  58.1473161  10.0443812  23.2472607
  57.3373889   9.6990897  23.6227853  58.8357578   9.7351355  23.8360219
  60.0763709   9.1221858  24.8696904  60.6294748   9.5417312  25.5286927
  60.3133795   8.1957606  24.9119860  56.0996808  15.1108932  40.6499668
  55.9993535  16.0603289  40.5811759  55.8818350  14.7827171  39.7775738
  55.3009880  12.3593857  17.2340345  56.1629044  12.6848755  17.4936163
  55.4860224  11.5725353  16.7213411  47.3177295  20.4416197  29.5120534
  46.6240767  20.0270150  28.9990489  48.0650286  20.4836733  28.9153953
  63.4542516  11.2322384  24.3775568  62.8741185  11.8907188  23.9953621
  63.1878449  10.4099728  23.9662986  61.9046083  10.6327441  26.5796889
  62.4045861  10.7443976  25.7711207  62.5481690  10.3288494  27.2197697
  49.2314038  20.3734451  27.3886549  49.2084726  20.4722138  26.4368432
  49.5414674  21.2199601  27.7103715  62.2367394  13.3922474  23.4331917
  61.3493249  13.6772125  23.2152111  62.6521383  13.2316237  22.5859193
  65.5881930  13.4168995  27.1486256  66.3642320  13.9065447  27.4210873
  64.8630064  13.8427049  27.6058125  68.0254489  14.1296614  28.2060196
  68.6198980  13.8892350  27.4953505  68.0981073  13.4103745  28.8333733
  50.2451645  27.9730225  28.5203361  50.1106113  27.2130626  27.9541359
  49.8283707  28.6971125  28.0532150  61.3810608  23.1567149  17.5279937
  62.0846458  23.3617151  18.1437592  60.6573256  23.7243910  17.7929020
  62.2108418  18.9077010  23.6482207  62.1543619  19.3645561  22.8089839
  62.7636760  18.1467694  23.4705049  66.0213224  14.6966742  24.4732326
  65.7650158  14.2963377  25.3040534  65.3966092  15.4110536  24.3482465
  70.3325562  17.4362815  26.9803618  69.7725120  17.5056004  27.7535180
  69.7269065  17.2603800  26.2603114  53.4020770  28.8699542  28.7321804
  53.2853155  29.8144975  28.6300494  52.5813217  28.5673104  29.1207603
  63.2897305  23.5949678  19.5778397  64.1242909  23.1630876  19.3955871
  63.1281648  23.4231691  20.5055291  62.9443197  20.0981791  20.9434736
  62.8892001  19.9326062  20.0023180  62.3189252  20.8057824  21.0996926
  47.7335712  15.3349855  34.7696158  48.3794576  14.8248809  35.2583383
  47.5252863  16.0718537  35.3439583  56.2539323   9.5989900  20.5220054
  56.2417993  10.5431740  20.6788325  57.1462745   9.4160045  20.2279516
  56.1828887  28.2758790  28.6087811  55.2324518  28.2760652  28.4952183
  56.4861373  27.5291525  28.0923846  60.0691442   6.1932677  24.7765991
  59.3023838   5.6391163  24.9222673  60.4802147   6.2654545  25.6380143
  52.0733203  12.4817473  38.8671172  52.9364665  12.1254277  39.0774497
  51.4998614  12.1431367  39.5546577  71.9181580  34.1119329  29.6733573
  72.5559990  33.9926076  28.9696913  71.8002423  35.0600173  29.7321526
  68.7271286  34.0646757  29.6095098  68.3889798  33.9487822  28.7215633
  69.5961055  33.6637922  29.5896104  64.5858102  35.9182233  25.5991989
  64.0222967  35.8272170  24.8308277  64.4710497  35.0982138  26.0794482
  69.2091069  35.2181609  35.5681304  69.1979710  34.8234407  34.6961807
  69.3711709  34.4847681  36.1615075  62.1322534  37.4133425  28.4376209
  62.9243826  37.0724250  28.0222509  62.3719184  37.5228400  29.3578363
  70.1657661  39.5853201  20.9106454  69.5145641  40.1707282  20.5240468
  70.9602024  40.1159396  20.9701491  64.0913288  36.6742338  21.3093588
  64.8644164  36.1271325  21.1706464  64.4438687  37.5386588  21.5208050
  65.9298331  38.0018721  34.5160488  65.6388197  38.9064351  34.4007154
  66.5655315  38.0435248  35.2304557  66.8554537  35.3795569  31.1061847
  67.4518110  35.1551591  30.3918810  66.9129509  34.6380315  31.7087295
  66.4279566  32.8335004  18.9412038  66.6805086  32.3116526  18.1795501
  65.4904125  32.6701150  19.0438722  71.4722849  31.8370783  26.7486781
  72.2585938  31.4190206  26.3977198  71.7361553  32.7416875  26.9168430
  71.6432926  37.2743633  21.4475438  71.0078759  37.3478260  22.1596343
  71.3130332  37.8637232  20.7694517  76.8731276  31.7746016  27.6519760
  77.6056448  31.2045233  27.8857589  76.1170631  31.3867616  28.0926265
  66.1475855  34.7363110  21.1436413  66.0312113  34.0608014  21.8117497
  66.2578114  34.2495484  20.3268566  68.4907395  34.1973257  24.8483102
  68.1265603  33.6703878  25.5596024  69.3474511  33.8071726  24.6749588
  74.3956696  25.4867590  32.1114369  74.0640021  26.3563001  31.8875583
  73.8002309  25.1703874  32.7908399  68.1312882  29.2263157  19.8444451
  68.2987285  30.0943394  20.2114922  67.9410052  29.3890439  18.9205740
  70.8888216  37.6880136  31.5110281  70.5888939  38.5905175  31.4026088
  70.5439275  37.4212319  32.3631434  64.3400697  34.1393933  27.5446986
  63.4151194  34.0070147  27.7524677  64.5885110  34.9188152  28.0416928
  74.2885359  30.2062676  29.1907719  73.3802237  30.1378085  28.8966480
  74.2372955  30.6834621  30.0189544  68.1102103  31.6820815  20.8291118
  67.9901729  32.1277865  21.6676598  67.4154692  32.0306132  20.2704656
  61.7009508  33.7827206  28.3790775  61.8301889  34.0361685  29.2930186
  61.0206959  34.3754914  28.0595430  65.8708995  44.4524456  24.4781249
  65.7933025  45.4032281  24.5569730  65.2670639  44.1070329  25.1356175
  68.3626225  31.6252322  37.1342616  67.5859559  32.1846242  37.1245480
  69.0016788  32.1109105  37.6557486  76.1547006  28.4079115  30.9685592
  75.5121386  28.7011648  30.3225387  75.6501934  28.2932035  31.7738789
  73.8087169  32.1542288  21.6571452  74.7205026  32.3869675  21.4819149
  73.2996817  32.7379332  21.0946530  66.6172598  34.4337775  36.6960583
  67.3587282  34.9722819  36.4195406  65.9109583  35.0604064  36.8532135
  72.0927937  36.5766916  35.2932744  72.5011293  36.1349326  34.5487377
  71.3705199  36.0019543  35.5466937  68.4459007  31.5139522  32.6666301
  69.2920202  31.9378936  32.8100950  68.3857645  30.8573147  33.3604864
  72.4156752  37.1368106  29.0485033  71.7865614  37.3013820  28.3461101
  72.0282414  37.5509716  29.8195997  76.2945984  38.0722544  26.4029397
  75.6097022  38.4521445  25.8526430  76.3789833  38.6817871  27.1361345
  71.5958453  29.1743891  34.3247475  71.3519384  29.9285951  33.7881751
  71.8718383  29.5529238  35.1594722  73.5496915  35.7182503  33.0024740
  73.7613811  36.3614263  32.3259122  73.5026664  34.8844820  32.5346671
  71.1523144  28.3300324  29.9061313  70.2907623  28.6281577  30.1978050
  71.1785579  28.5470723  28.9742345  67.9684714  36.8742514  26.3135118
  68.4323059  37.1530217  25.5239741  67.7041512  35.9725959  26.1308209
  64.8608795  36.4213996  29.2514882  65.4310152  36.8501264  28.6132366
  65.4516907  36.1396581  29.9499067  66.9053600  32.9965667  23.1224683
  67.6077643  33.4486710  23.5898610  66.5734228  32.3549486  23.7504577
  65.3533961  31.5877423  37.4975893  64.7232622  32.2693704  37.7311290
  65.2470049  31.4760505  36.5529031  60.6478934  31.2549219  28.4241817
  59.8577988  31.5106748  27.9481928  61.1390181  32.0697557  28.5293858
  74.6642743  38.5954459  31.1747098  75.4860187  38.1934646  30.8929779
  74.6605146  38.4922693  32.1263214  62.5993679  31.6193799  25.3825294
  61.8024842  31.7312493  25.9008789  62.3719271  31.9580451  24.5166184
  68.4299347  38.1438502  33.3307808  68.4943779  38.6058909  34.1665980
  67.7210271  37.5135867  33.4590118  58.9316637  31.5079710  30.8556808
  59.1824675  32.3926720  31.1214384  59.4676185  31.3284311  30.0831900
  82.7548736  34.9393207  27.5232069  82.0012445  34.3700605  27.3676074
  82.8896278  34.9055872  28.4702704  68.1447364  39.8106609  23.1986789
  68.0093039  40.6558145  23.6271636  68.6857177  40.0125887  22.4352722
  61.5976762  37.3282047  23.7714714  62.1101282  38.1225298  23.9220278
  62.2499475  36.6308338  23.7048315  63.4071646  40.4447804  25.8537467
  63.5838275  41.3665768  25.6658451  64.2028480  40.1306223  26.2831847
  62.6924003  32.4912436  35.7299630  62.5777518  31.5897693  36.0306729
  61.8368521  32.7376132  35.3784447  69.7715841  40.4330176  37.3287131
  69.3279695  39.6466554  37.0108035  70.4333054  40.6209326  36.6631022
  64.5302962  41.9625977  31.8547809  65.0810387  41.8343041  31.0824803
  63.6914438  42.2620866  31.5042702  71.8697079  40.7132976  35.3568532
  71.8515554  41.5341857  34.8648801  72.7916999  40.5887051  35.5818673
  68.3270133  38.2277105  36.1992040  68.8598470  37.4665393  35.9691348
  67.7984214  37.9350757  36.9416195  71.4939828  23.3337171  31.7285682
  71.1504097  24.2238813  31.6524793  71.8618791  23.1438829  30.8655267
  59.5625679  35.6570702  24.5474284  60.4000901  36.0667710  24.3307992
  59.7403946  34.7170144  24.5174478  71.4590111  33.3245782  20.2358117
  70.9436734  34.0950387  20.4746505  71.1867419  32.6510918  20.8591179
  69.0437222  28.1695483  25.2943356  68.1878818  27.7802333  25.1148994
  69.4564173  28.2487444  24.4343141  70.5736368  25.7041826  29.6934915
  70.0701164  25.6671962  28.8802721  70.8666975  26.6134569  29.7531572
  66.8179254  25.7880556  28.7001097  67.6832251  25.5923365  28.3406987
  66.8856763  25.5590908  29.6270454  76.4324385  36.0778137  22.1711291
  75.6553828  35.7389296  21.7266453  77.1115866  36.0830760  21.4966256
  71.2476414  31.1972874  22.0617898  70.9426549  31.5119024  22.9128042
  72.2006856  31.2754294  22.1045231  69.6922846  37.3563098  23.7110852
  69.1644207  36.6215857  23.3984090  69.1910348  38.1337774  23.4650821
  74.6715692  35.5512118  28.8277899  74.0139366  36.2411380  28.9158027
  75.4756091  35.9408550  29.1711885  64.4241573  28.0182764  26.0717464
  64.9985325  27.7957946  25.3390657  65.0112556  28.0871459  26.8246065
  73.4821150  33.9056491  26.8781840  73.9953032  34.5386483  27.3803550
  74.1322374  33.3057686  26.5125200  64.7511160  30.0487225  20.0913349
  63.9148473  30.3861912  20.4122624  64.6115930  29.9136205  19.1540486
  66.7264241  24.8924013  24.7992533  66.0728653  24.5773030  24.1749148
  66.6844715  24.2699753  25.5252356  67.8375446  35.1743308  16.7145825
  66.9302508  34.9432561  16.9136974  68.3346478  34.3780927  16.9019807
  70.7443525  43.8840815  19.6342512  70.0705223  44.1872512  20.2427469
  71.1309347  44.6869896  19.2847969  69.9601981  31.3805946  29.1240181
  69.0424543  31.6020893  28.9661869  70.3762125  31.4552257  28.2651888
  70.7437029  32.7797362  24.2542861  71.4908848  33.2918759  23.9449983
  71.0128619  32.4581415  25.1147255  69.0163679  35.2755903  21.2369816
  68.1074899  34.9914936  21.3342285  69.0458763  35.6954981  20.3773122
  74.2482947  38.8862492  25.0060983  73.7945274  38.0453402  25.0626174
  73.6176913  39.5223891  25.3435763  73.1915866  29.8154478  26.2361651
  72.4538623  29.3031865  26.5671893  73.4442640  29.3754860  25.4244927
  72.6915886  40.7238989  25.9410801  72.9838860  41.2844046  25.2223167
  73.2014506  41.0167550  26.6963960  73.2927494  22.5930730  26.8303420
  73.5986370  21.7328094  26.5429335  74.0180098  23.1848351  26.6302414
  59.5851850  32.9961417  25.2185018  59.3876249  32.4030778  24.4936084
  59.0298514  32.6913627  25.9360957  67.5648573  32.8884523  27.3379611
  67.6197183  31.9358360  27.2622087  66.7539775  33.0443963  27.8220909
  68.7139767  36.8164647  18.5757894  68.2759197  36.1000505  18.1163531
  69.4550208  37.0440761  18.0142985  65.5040933  31.5061583  25.0969990
  64.6908799  31.8055754  25.5035182  65.9999927  31.1117272  25.8144472
  67.6549511  41.5019340  27.0304254  67.6125690  41.7280186  26.1012786
  68.5712210  41.2682715  27.1790056  71.1015145  31.9703408  33.9284884
  71.4564533  32.1974881  34.7879349  71.7487276  32.3021784  33.3062139
  76.8312882  35.0921844  24.6334213  76.6930780  35.2823440  23.7055402
  76.4749101  35.8541226  25.0902264  64.9955008  29.0779939  30.7131225
  65.6354387  28.9368698  30.0154188  64.1632539  28.7914452  30.3369827
  76.8582261  37.1598371  29.6445484  77.2918768  37.0673660  30.4928538
  77.5713842  37.1355871  29.0065500  65.7715312  38.3782369  26.8266217
  66.5655910  37.8832689  26.6248792  65.0607004  37.8500232  26.4633923
  70.5910156  40.7600465  31.1778585  70.6447179  41.3291401  31.9456301
  69.7224938  40.9302350  30.8132622  62.0798075  32.5225451  22.9025970
  61.1495663  32.4609906  23.1195932  62.1755547  32.0001404  22.1062611
  61.9983624  29.0480264  25.4904212  62.2590442  29.9625597  25.3813372
  62.8200797  28.5804706  25.6400824  77.7197811  37.2022071  32.1778370
  77.9133701  38.1067882  32.4237645  77.6198429  36.7429490  33.0116955
  69.3734122  27.0879962  34.6768697  68.7262037  27.7869911  34.5833173
  70.1435137  27.5216106  35.0444945  72.7812920  37.3528814  37.7519250
  72.6298426  37.1239366  36.8349334  72.7717599  38.3099415  37.7650595
  69.5498256  34.9260727  32.7365517  70.4790316  35.0771886  32.5634484
  69.1289286  35.0144748  31.8814163  68.3486588  38.9511391  30.5064054
  68.2097674  38.5830176  31.3789992  67.5601184  39.4659031  30.3348012
  68.9434740  44.0520488  21.8489591  69.1186496  43.5808531  22.6635213
  68.2567528  44.6786254  22.0770852  69.8991803  38.3292994  27.8952892
  69.5641636  38.2893764  28.7910542  69.3995749  37.6637710  27.4223302
  63.8736047  33.7360624  33.4205473  63.7355845  33.0040863  34.0217012
  64.7840970  33.6469524  33.1389661  72.8350995  35.6749028  18.1689952
  72.2180165  34.9495856  18.0723004  72.3667483  36.4358388  17.8257026
  66.5018348  33.4480583  32.9089153  67.2117966  32.8073775  32.8675771
  66.4587656  33.6993478  33.8315334  74.4905126  40.3847937  35.8295732
  74.4317673  39.7007157  35.1626315  74.8924645  41.1266927  35.3776358
  65.2147282  30.4345801  34.7284792  64.6784639  29.9836540  35.3806389
  64.6263990  30.5691710  33.9855257  63.5095825  47.2009850  28.6229451
  63.7492423  47.8328375  29.3008470  62.6665022  46.8497890  28.9094810
  64.6249541  29.8934452  17.2911256  63.7479007  29.7723253  16.9273503
  65.1007294  29.1020531  17.0390145  74.4922534  38.3487520  34.0609712
  73.6049312  38.0113442  34.1836111  75.0621085  37.6170552  34.2978477
  56.1451681  34.6811612  27.3852763  56.8322721  34.3673342  26.7973778
  55.9899809  35.5852977  27.1120015  60.9486403  29.5701809  31.8137787
  60.8644592  28.9627478  31.0788197  60.1269109  30.0610827  31.8147283
  68.0223687  43.0088973  31.0270955  67.9493858  43.8143944  31.5390259
  67.5801080  43.2080939  30.2018976  67.8113467  42.2460743  24.5373776
  67.0280989  42.7882423  24.6312001  68.5106212  42.7634722  24.9368018
  71.1210117  28.0555372  27.1807982  71.6178816  27.3025335  26.8609052
  70.3497098  28.0919689  26.6151191  78.9739874  33.7595738  28.8226273
  78.9629750  34.6420453  28.4520206  78.1057254  33.4067289  28.6280810
  70.4822371  42.9075807  33.1829114  71.1950343  43.5423272  33.1105015
  69.9912399  43.0039673  32.3669115  72.2039897  36.8127060  24.7546405
  71.2696176  36.9328522  24.5851110  72.3816566  35.9099526  24.4906415
  67.7045085  30.1972755  26.9079666  67.3342873  29.6443796  27.5960572
  68.2004178  29.5930889  26.3554667  75.5912449  32.6544379  25.2896439
  76.0572901  33.4872370  25.2156742  76.0419949  32.1889360  25.9941698
  65.5334284  40.6570250  34.0034684  66.2343744  41.2906733  34.1564079
  65.0629399  40.9984982  33.2430324  73.6588680  38.9988200  22.2882591
  73.9348524  38.8844795  23.1976466  72.7893179  38.6005685  22.2494765
  73.5629112  25.0224966  29.3287341  72.6492191  25.2529193  29.4969548
  73.9922213  25.1063410  30.1801373  73.3335570  33.2114858  31.8287235
  72.6807020  33.4590765  31.1739688  73.7115950  32.3978996  31.4949712
  70.2942744  43.2474551  25.9315405  70.4765138  42.4296207  26.3943157
  71.1175730  43.4642243  25.4940295  70.6284909  42.1742736  23.1930454
  71.1572676  41.6635191  22.5800616  70.8913129  41.8585266  24.0575987
  69.3823143  33.9534669  38.3153272  68.7063780  33.8528798  38.9855647
  70.2050777  33.7973883  38.7789269  61.1302002  40.1906605  30.9365787
  61.7155439  39.4450293  31.0693691  60.9326841  40.5010562  31.8202451
  63.9840657  43.2257853  25.9528229  63.3151033  43.7103980  25.4692270
  63.8453527  43.4727073  26.8671608  55.7219657  32.7612206  29.6570230
  55.7603756  32.2275796  30.4507348  55.2159950  32.2347411  29.0381207
  68.1245926  45.2601596  32.5510888  68.6764234  45.4233218  33.3159973
  68.4652119  45.8506034  31.8790913  63.1010419  27.6076746  33.1532773
  63.1651746  28.4691577  32.7410170  63.0377539  26.9950748  32.4205131
  72.9756800  40.0862854  38.4059542  73.5196704  40.6992812  37.9114497
  72.3943645  40.6442432  38.9226555  59.3528234  31.4876308  22.7324162
  59.6481676  30.5786986  22.6791215  58.4516270  31.4664047  22.4105164
  71.2614313  43.2083572  29.5374570  71.1365453  42.4073312  29.0285515
  71.9193404  43.7029765  29.0488540  62.8822481  29.5632304  28.7151710
  62.1609067  30.1768272  28.5759184  63.6715737  30.0990069  28.6368356
  73.3249222  41.0092592  31.1654120  72.3779557  40.8897943  31.0932447
  73.6731995  40.1215090  31.2480382  65.6848795  26.8986731  34.9892362
  66.2083197  27.1449027  35.7518671  65.4661128  27.7306766  34.5695499
  61.0816076  29.1690405  22.8563487  60.7528782  28.2887784  22.6738593
  61.4355447  29.1138074  23.7439876  70.3295655  40.8045308  27.3658472
  70.1820617  39.8762016  27.5466042  71.1549148  40.8265399  26.8815548
  64.1957899  29.4563375  23.2238964  64.5353972  29.9849296  22.5017573
  64.6430020  29.7943781  23.9997531  73.9329777  41.6273867  28.4523345
  74.8576324  41.4216728  28.3147796  73.7645080  41.3790268  29.3612687
  66.8901340  27.8400426  32.6742033  66.5498160  27.0408239  33.0762712
  66.1840346  28.1402137  32.1018866  67.5417812  24.9249738  31.1269356
  68.3643881  24.4510217  31.0048246  67.7855875  25.7040222  31.6268042
  66.1826046  27.9537997  21.4232257  66.9034409  28.3319250  20.9195974
  65.5591350  28.6726874  21.5267235  70.3257169  28.6583146  22.3590590
  70.5420784  29.5407784  22.0579418  69.8451236  28.2669359  21.6296232
  65.0656391  31.6168859  28.9361334  64.9200971  31.9309162  29.8285616
  64.5881594  32.2353759  28.3832233  66.9252773  28.6071407  28.9842224
  66.9114342  27.7112500  28.6474522  67.6425202  28.6142071  29.6180510
  68.7778904  29.0408747  31.0295351  68.5196682  29.9625818  31.0279682
  68.2463945  28.6439182  31.7195815  73.7225093  42.1459534  23.8085437
  73.8961970  41.5805957  23.0559289  74.2153984  42.9460429  23.6264926
  59.5402053  34.1574203  31.8748995  58.9955521  34.9334011  32.0069270
  60.4181403  34.5045008  31.7168117  66.3289669  27.4885787  24.2529794
  66.4505581  26.5602433  24.4520681  66.0391712  27.5024473  23.3408109
  69.1980860  25.1740698  27.3896514  69.2202557  25.2380031  26.4348493
  69.6148919  24.3345206  27.5837020  79.5764484  34.9095957  25.4275736
  80.0195630  34.1603282  25.0294860  78.6990994  34.9006094  25.0449468
  74.7100265  41.4626299  20.9082335  75.4051170  42.0832991  21.1269649
  75.0523416  40.6121650  21.1834713  60.3268075  33.2844100  34.7679152
  59.5849811  33.4326735  35.3543783  60.0060819  33.5452365  33.9045902
  76.6091689  38.9126004  22.4369666  77.1343013  39.2513277  21.7118986
  76.5214041  37.9773020  22.2532800  68.2711737  42.8260078  34.5659542
  68.5798864  42.5809225  35.4382242  69.0687219  43.0306716  34.0778412
  68.2932349  44.9797987  26.7964919  67.8537340  44.4874366  27.4897775
  69.0440466  44.4370955  26.5556994  60.7724688  41.1709528  26.7989547
  61.5982708  40.8713300  26.4188190  60.4218740  40.4017151  27.2479336
  65.7406221  40.5235997  28.8687220  65.1186231  39.8606702  28.5689448
  66.4111088  40.5497128  28.1860868  58.9733293  39.0895855  27.7578480
  58.1365202  38.6618029  27.5762482  58.9456939  39.2828298  28.6949272
  76.2985595  39.5458908  37.7420864  75.5081138  39.5283047  37.2025363
  76.0618949  40.0847202  38.4969900  76.4183470  36.3951374  35.0553592
  76.4681475  36.2301382  35.9969115  76.3097393  35.5278633  34.6651473
  65.3019728  39.0739920  22.3445681  65.4507849  39.7575384  21.6912354
  66.1086172  39.0545010  22.8595137  73.7087232  32.3782302  36.3712899
  74.6097095  32.2388767  36.0796897  73.7835207  32.5436757  37.3111076
  68.0430037  29.7549157  35.2166085  67.1733347  30.0482723  34.9448674
  68.2789518  30.3389602  35.9373349  77.9201667  38.8148316  35.2995614
  77.6286475  39.1778296  36.1359075  77.3073798  38.1015324  35.1208946
  79.1197349  36.3801196  27.8198184  79.9544240  36.8191000  27.9835744
  79.2556478  35.9039849  27.0006430  76.1688855  33.9380930  33.7675672
  76.6442976  34.1308577  32.9594523  75.2454420  33.9940116  33.5219055
  63.0572361  35.1005098  23.3506750  62.8118403  34.1967428  23.5486960
  63.2268276  35.1022248  22.4086228  70.7469071  25.9728774  32.7331506
  71.2651015  26.7089801  32.4077994  70.3924204  26.2792767  33.5678265
  62.3268009  30.8333455  20.8492911  61.6337254  30.9077810  20.1932947
  62.0819761  30.0693799  21.3714428  70.9981665  22.3929056  28.2532402
  71.2783419  21.7252246  28.8792829  71.7832272  22.5858152  27.7407066
  68.8015134  41.5688050  19.8157428  68.2289101  42.1878237  19.3627900
  69.3747928  42.1187412  20.3497350  74.8690524  30.8146690  32.0003977
  75.8207947  30.9144788  32.0216201  74.6993974  30.0224959  32.5102062
  72.8904903  27.9002274  32.1863378  72.2954835  28.1807286  31.4909867
  72.6054600  28.3896175  32.9580119  72.0212394  41.8525200  20.9466011
  72.9543067  41.7870762  21.1498886  71.9335607  42.6881467  20.4880543
  74.6500410  41.1691071  17.9069958  74.5714042  40.8350934  18.8005716
  75.4710077  41.6612839  17.9061431  77.3478602  34.0352810  31.1146277
  77.3154922  33.0968811  31.3005961  77.9579225  34.1136847  30.3812102
  69.1861932  32.9048863  17.1573481  70.1321037  32.7755071  17.2261899
  68.8076177  32.1663525  17.6342909  77.4973090  30.8263854  31.1604560
  76.9812139  30.0422310  30.9734489  78.3813039  30.4982570  31.3251080
  75.1583817  24.5704869  27.1200373  74.9608638  24.2619957  28.0043705
  75.7683523  25.2966508  27.2498303  81.2470449  33.2376680  30.8526765
  80.5203612  33.1032645  30.2443256  80.8317735  33.5453508  31.6583483
  69.0700625  36.9566609  38.6174138  69.9903634  37.1345208  38.8114184
  69.0350208  36.0122655  38.4653837  67.3704850  30.8298840  17.0928366
  66.4636305  30.5331952  17.1691080  67.6480831  30.5328658  16.2262652
  58.2882790  32.1505203  27.5427413  57.9685574  31.2970511  27.2501787
  57.7416218  32.3653781  28.2985380  62.0662697  34.8667644  31.2596919
  62.2848707  35.7984752  31.2784953  62.4788471  34.5075618  32.0451723
  68.9866915  25.3735729  23.2472607  68.1767644  25.0282814  23.6227853
  69.6751332  25.0643273  23.8360219  70.9157464  24.4513776  24.8696904
  71.4688502  24.8709229  25.5286927  71.1527550  23.5249524  24.9119860
  66.9390563  30.4400850  40.6499668  66.8387290  31.3895207  40.5811759
  66.7212105  30.1119089  39.7775738  66.1403634  27.6885775  17.2340345
  67.0022798  28.0140673  17.4936163  66.3253978  26.9017271  16.7213411
  58.1571050  35.7708114  29.5120534  57.4634521  35.3562067  28.9990489
  58.9044041  35.8128651  28.9153953  74.2936271  26.5614301  24.3775568
  73.7134940  27.2199105  23.9953621  74.0272203  25.7391646  23.9662986
  72.7439837  25.9619359  26.5796889  73.2439615  26.0735893  25.7711207
  73.3875445  25.6580412  27.2197697  60.0707792  35.7026368  27.3886549
  60.0478481  35.8014055  26.4368432  60.3808429  36.5491519  27.7103715
  62.7295170  37.7602523  31.5033163  63.6838424  37.7286466  31.4363095
  62.5307694  37.2993147  32.3183389  63.3194552  36.3303639  34.0703961
  64.1387441  36.8247718  34.0938798  63.5931360  35.4135607  34.0421529
  73.0761149  28.7214392  23.4331917  72.1887004  29.0064042  23.2152111
  73.4915138  28.5608155  22.5859193  76.4275685  28.7460913  27.1486256
  77.2036075  29.2357365  27.4210873  75.7023819  29.1718967  27.6058125
  78.8648243  29.4588532  28.2060196  79.4592734  29.2184268  27.4953505
  78.9374827  28.7395662  28.8333733  61.0845399  43.3022143  28.5203361
  60.9499867  42.5422544  27.9541359  60.6677461  44.0263043  28.0532150
  72.2204362  38.4859066  17.5279937  72.9240212  38.6909069  18.1437592
  71.4967011  39.0535828  17.7929020  73.0502172  34.2368927  23.6482207
  72.9937374  34.6937479  22.8089839  73.6030515  33.4759612  23.4705049
  76.8606978  30.0258659  24.4732326  76.6043913  29.6255295  25.3040534
  76.2359846  30.7402453  24.3482465  81.1719316  32.7654733  26.9803618
  80.6118874  32.8347922  27.7535180  80.5662820  32.5895717  26.2603114
  64.2414525  44.1991460  28.7321804  64.1246909  45.1436892  28.6300494
  63.4206971  43.8965021  29.1207603  74.1291060  38.9241595  19.5778397
  74.9636663  38.4922794  19.3955871  73.9675402  38.7523609  20.5055291
  73.7836952  35.4273709  20.9434736  73.7285756  35.2617980  20.0023180
  73.1583007  36.1349742  21.0996926  58.5729467  30.6641773  34.7696158
  59.2188330  30.1540727  35.2583383  58.3646618  31.4010455  35.3439583
  71.0982859  37.7322621  40.2688299  71.9674019  37.9063273  39.9074934
  70.6189610  38.5517037  40.1464028  67.0933077  24.9281818  20.5220054
  67.0811747  25.8723658  20.6788325  67.9856499  24.7451963  20.2279516
  65.2669039  44.8519722  31.9477732  66.1696286  44.8843332  32.2644227
  65.0406409  43.9220173  31.9624068  67.0222641  43.6050708  28.6087811
  66.0718272  43.6052570  28.4952183  67.3255127  42.8583443  28.0923846
  70.9085197  21.5224594  24.7765991  70.1417592  20.9683081  24.9222673
  71.3195902  21.5946463  25.6380143  79.5665041  49.3938675  29.6095098
  79.2283552  49.2779739  28.7215633  80.4354809  48.9929840  29.5896104
  75.4251857  51.2474151  25.5991989  74.8616722  51.1564088  24.8308277
  75.3104252  50.4274056  26.0794482  80.0484824  50.5473526  35.5681304
  80.0373465  50.1526325  34.6961807  80.2105463  49.8139599  36.1615075
  72.9716289  52.7425343  28.4376209  73.7637580  52.4016167  28.0222509
  73.2112939  52.8520318  29.3578363  81.0051415  54.9145119  20.9106454
  80.3539395  55.4999199  20.5240468  81.7995778  55.4451314  20.9701491
  74.9307042  52.0034256  21.3093588  75.7037918  51.4563243  21.1706464
  75.2832441  52.8678505  21.5208050  76.7692085  53.3310638  34.5160488
  76.4781951  54.2356269  34.4007154  77.4049069  53.3727166  35.2304557
  77.6948292  50.7087487  31.1061847  78.2911864  50.4843509  30.3918810
  77.7523263  49.9672232  31.7087295  77.2673320  48.1626922  18.9412038
  77.5198841  47.6408443  18.1795501  76.3297879  47.9993067  19.0438722
  82.3116603  47.1662700  26.7486781  83.0979692  46.7482124  26.3977198
  82.5755307  48.0708793  26.9168430  82.4826680  52.6035551  21.4475438
  81.8472513  52.6770177  22.1596343  82.1524087  53.1929150  20.7694517
  76.9869609  50.0655028  21.1436413  76.8705867  49.3899931  21.8117497
  77.0971869  49.5787402  20.3268566  79.3301150  49.5265175  24.8483102
  78.9659357  48.9995796  25.5596024  80.1868266  49.1363644  24.6749588
  78.9706637  44.5555075  19.8444451  79.1381039  45.4235311  20.2114922
  78.7803806  44.7182356  18.9205740  81.7281970  53.0172054  31.5110281
  81.4282693  53.9197093  31.4026088  81.3833030  52.7504237  32.3631434
  75.1794452  49.4685851  27.5446986  74.2544948  49.3362065  27.7524677
  75.4278865  50.2480070  28.0416928  78.9495858  47.0112732  20.8291118
  78.8295483  47.4569783  21.6676598  78.2548446  47.3598050  20.2704656
  72.5403263  49.1119124  28.3790775  72.6695644  49.3653603  29.2930186
  71.8600714  49.7046832  28.0595430  76.7102750  59.7816374  24.4781249
  76.6326780  60.7324199  24.5569730  76.1064394  59.4362247  25.1356175
  79.2019980  46.9544239  37.1342616  78.4253314  47.5138160  37.1245480
  79.8410543  47.4401022  37.6557486  77.4566352  49.7629693  36.6960583
  78.1981036  50.3014737  36.4195406  76.7503337  50.3895982  36.8532135
  82.9321692  51.9058833  35.2932744  83.3405048  51.4641244  34.5487377
  82.2098953  51.3311461  35.5466937  79.2852762  46.8431440  32.6666301
  80.1313957  47.2670854  32.8100950  79.2251399  46.1865064  33.3604864
  83.2550506  52.4660024  29.0485033  82.6259369  52.6305738  28.3461101
  82.8676168  52.8801633  29.8195997  82.4352207  44.5035808  34.3247475
  82.1913139  45.2577869  33.7881751  82.7112138  44.8821156  35.1594722
  81.9916899  43.6592241  29.9061313  81.1301378  43.9573495  30.1978050
  82.0179333  43.8762640  28.9742345  78.8078468  52.2034432  26.3135118
  79.2716814  52.4822135  25.5239741  78.5435266  51.3017877  26.1308209
  75.7002549  51.7505914  29.2514882  76.2703906  52.1793182  28.6132366
  76.2910661  51.4688498  29.9499067  77.7447354  48.3257584  23.1224683
  78.4471398  48.7778628  23.5898610  77.4127983  47.6841403  23.7504577
  76.1927716  46.9169341  37.4975893  75.5626376  47.5985622  37.7311290
  76.0863804  46.8052423  36.5529031  71.4872688  46.5841137  28.4241817
  70.6971742  46.8398666  27.9481928  71.9783936  47.3989475  28.5293858
  73.4387434  46.9485716  25.3825294  72.6418597  47.0604411  25.9008789
  73.2113026  47.2872369  24.5166184  79.2693101  53.4730420  33.3307808
  79.3337534  53.9350827  34.1665980  78.5604025  52.8427784  33.4590118
  69.7710391  46.8371627  30.8556808  70.0218430  47.7218637  31.1214384
  70.3069940  46.6576229  30.0831900  78.9841119  55.1398527  23.1986789
  78.8486794  55.9850063  23.6271636  79.5250931  55.3417805  22.4352722
  75.4708458  41.2190107  39.8601144  75.0775404  40.6656305  40.5348788
  76.2874599  41.5300685  40.2507661  72.4370516  52.6573965  23.7714714
  72.9495037  53.4517215  23.9220278  73.0893229  51.9600255  23.7048315
  74.2465401  55.7739721  25.8537467  74.4232029  56.6957686  25.6658451
  75.0422234  55.4598141  26.2831847  78.3876419  42.6347986  37.4521400
  79.1286133  43.2355139  37.3725863  78.6194342  41.8925624  36.8939443
  73.5317757  47.8204353  35.7299630  73.4171273  46.9189610  36.0306729
  72.6762275  48.0668050  35.3784447  80.6109595  55.7622094  37.3287131
  80.1673449  54.9758472  37.0108035  81.2726809  55.9501244  36.6631022
  75.3696716  57.2917895  31.8547809  75.9204142  57.1634958  31.0824803
  74.5308192  57.5912784  31.5042702  79.1663887  53.5569023  36.1992040
  79.6992224  52.7957311  35.9691348  78.6377969  53.2642675  36.9416195
  82.3333582  38.6629089  31.7285682  81.9897852  39.5530731  31.6524793
  82.7012545  38.4730747  30.8655267  70.4019433  50.9862619  24.5474284
  71.2394655  51.3959628  24.3307992  70.5797701  50.0462061  24.5174478
  82.2983865  48.6537700  20.2358117  81.7830489  49.4242305  20.4746505
  82.0261174  47.9802836  20.8591179  79.8830976  43.4987401  25.2943356
  79.0272572  43.1094251  25.1148994  80.2957928  43.5779362  24.4343141
  81.4130123  41.0333744  29.6934915  80.9094918  40.9963879  28.8802721
  81.7060730  41.9426487  29.7531572  77.6573009  41.1172474  28.7001097
  78.5226005  40.9215282  28.3406987  77.7250518  40.8882826  29.6270454
  82.0870168  46.5264792  22.0617898  81.7820304  46.8410941  22.9128042
  83.0400610  46.6046212  22.1045231  80.5316600  52.6855015  23.7110852
  80.0037962  51.9507775  23.3984090  80.0304103  53.4629692  23.4650821
  75.2635328  43.3474682  26.0717464  75.8379080  43.1249863  25.3390657
  75.8506310  43.4163376  26.8246065  75.5904915  45.3779143  20.0913349
  74.7542227  45.7153829  20.4122624  75.4509685  45.2428123  19.1540486
  77.5657995  40.2215931  24.7992533  76.9122408  39.9064948  24.1749148
  77.5238470  39.5991671  25.5252356  78.6769200  50.5035226  16.7145825
  77.7696262  50.2724479  16.9136974  79.1740232  49.7072845  16.9019807
  81.5837279  59.2132733  19.6342512  80.9098978  59.5164430  20.2427469
  81.9703101  60.0161813  19.2847969  80.7995736  46.7097864  29.1240181
  79.8818297  46.9312811  28.9661869  81.2155879  46.7844175  28.2651888
  81.5830784  48.1089280  24.2542861  82.3302603  48.6210677  23.9449983
  81.8522373  47.7873333  25.1147255  79.8557434  50.6047821  21.2369816
  78.9468653  50.3206853  21.3342285  79.8852518  51.0246899  20.3773122
  70.4245604  48.3253335  25.2185018  70.2270004  47.7322695  24.4936084
  69.8692268  48.0205545  25.9360957  78.4042328  48.2176441  27.3379611
  78.4590938  47.2650278  27.2622087  77.5933530  48.3735880  27.8220909
  79.5533522  52.1456564  18.5757894  79.1152951  51.4292423  18.1163531
  80.2943962  52.3732679  18.0142985  76.3434688  46.8353501  25.0969990
  75.5302553  47.1347671  25.5035182  76.8393682  46.4409190  25.8144472
  78.4943266  56.8311258  27.0304254  78.4519444  57.0572104  26.1012786
  79.4105964  56.5974632  27.1790056  81.9408899  47.2995325  33.9284884
  82.2958287  47.5266798  34.7879349  82.5881031  47.6313702  33.3062139
  75.8348762  44.4071856  30.7131225  76.4748142  44.2660615  30.0154188
  75.0026293  44.1206370  30.3369827  76.6109066  53.7074287  26.8266217
  77.4049665  53.2124607  26.6248792  75.9000759  53.1792150  26.4633923
  81.4303911  56.0892382  31.1778585  81.4840933  56.6583319  31.9456301
  80.5618692  56.2594267  30.8132622  72.9191830  47.8517369  22.9025970
  71.9889418  47.7901824  23.1195932  73.0149302  47.3293321  22.1062611
  72.8377379  44.3772181  25.4904212  73.0984196  45.2917515  25.3813372
  73.6594551  43.9096624  25.6400824  74.3102304  45.7909939  32.6603036
  74.9825358  45.5827301  32.0115685  73.4832091  45.5932025  32.2208268
  80.2127876  42.4171879  34.6768697  79.5655791  43.1161829  34.5833173
  80.9828892  42.8508023  35.0444945  80.3892011  50.2552644  32.7365517
  81.3184071  50.4063804  32.5634484  79.9683041  50.3436665  31.8814163
  79.1880342  54.2803309  30.5064054  79.0491428  53.9122093  31.3789992
  78.3994939  54.7950948  30.3348012  79.7828494  59.3812405  21.8489591
  79.9580250  58.9100448  22.6635213  79.0961282  60.0078171  22.0770852
  80.7385558  53.6584911  27.8952892  80.4035390  53.6185681  28.7910542
  80.2389503  52.9929627  27.4223302  74.7129801  49.0652542  33.4205473
  74.5749599  48.3332780  34.0217012  75.6234725  48.9761442  33.1389661
  77.3412102  48.7772501  32.9089153  78.0511721  48.1365693  32.8675771
  77.2981410  49.0285396  33.8315334  76.0541036  45.7637719  34.7284792
  75.5178393  45.3128457  35.3806389  75.4657745  45.8983628  33.9855257
  74.3489580  62.5301768  28.6229451  74.5886178  63.1620292  29.3008470
  73.5058776  62.1789808  28.9094810  75.4643295  45.2226370  17.2911256
  74.5872761  45.1015171  16.9273503  75.9401048  44.4312448  17.0390145
  66.9845435  50.0103530  27.3852763  67.6716475  49.6965260  26.7973778
  66.8293564  50.9144895  27.1120015  71.7880157  44.8993726  31.8137787
  71.7038346  44.2919396  31.0788197  70.9662864  45.3902745  31.8147283
  78.8617442  58.3380890  31.0270955  78.7887613  59.1435862  31.5390259
  78.4194835  58.5372856  30.2018976  78.6507221  57.5752661  24.5373776
  77.8674743  58.1174341  24.6312001  79.3499966  58.0926640  24.9368018
  81.9603871  43.3847290  27.1807982  82.4572571  42.6317252  26.8609052
  81.1890853  43.4211607  26.6151191  81.3216125  58.2367725  33.1829114
  82.0344097  58.8715189  33.1105015  80.8306154  58.3331591  32.3669115
  83.0433652  52.1418977  24.7546405  82.1089931  52.2620440  24.5851110
  83.2210320  51.2391444  24.4906415  78.5438840  45.5264673  26.9079666
  78.1736628  44.9735713  27.5960572  79.0397932  44.9222806  26.3554667
  76.3728039  55.9862168  34.0034684  77.0737498  56.6198651  34.1564079
  75.9023154  56.3276900  33.2430324  81.1336498  58.5766469  25.9315405
  81.3158893  57.7588125  26.3943157  81.9569484  58.7934161  25.4940295
  81.4678664  57.5034654  23.1930454  81.9966430  56.9927108  22.5800616
  81.7306883  57.1877184  24.0575987  80.2216898  49.2826586  38.3153272
  79.5457535  49.1820716  38.9855647  81.0444531  49.1265800  38.7789269
  71.9695757  55.5198523  30.9365787  72.5549193  54.7742211  31.0693691
  71.7720595  55.8302480  31.8202451  74.8234412  58.5549770  25.9528229
  74.1544787  59.0395898  25.4692270  74.6847282  58.8018991  26.8671608
  66.5613411  48.0904123  29.6570230  66.5997511  47.5567714  30.4507348
  66.0553704  47.5639329  29.0381207  78.9639680  60.5893514  32.5510888
  79.5157988  60.7525135  33.3159973  79.3045874  61.1797952  31.8790913
  73.9404174  42.9368664  33.1532773  74.0045500  43.7983495  32.7410170
  73.8771294  42.3242665  32.4205131  73.4156446  45.0091796  36.8005807
  74.0428485  44.6268874  37.4143331  72.5584365  44.7905998  37.1661499
  70.1921989  46.8168225  22.7324162  70.4875430  45.9078904  22.6791215
  69.2910025  46.7955965  22.4105164  82.1008068  58.5375489  29.5374570
  81.9759207  57.7365229  29.0285515  82.7587159  59.0321683  29.0488540
  73.7216236  44.8924222  28.7151710  73.0002822  45.5060190  28.5759184
  74.5109492  45.4281987  28.6368356  76.5242549  42.2278648  34.9892362
  77.0476951  42.4740945  35.7518671  76.3054883  43.0598683  34.5695499
  71.9209831  44.4982323  22.8563487  71.5922537  43.6179702  22.6738593
  72.2749201  44.4429992  23.7439876  81.1689409  56.1337226  27.3658472
  81.0214372  55.2053933  27.5466042  81.9942903  56.1557316  26.8815548
  75.0351654  44.7855293  23.2238964  75.3747726  45.3141214  22.5017573
  75.4823774  45.1235699  23.9997531  77.7295095  43.1692344  32.6742033
  77.3891915  42.3700157  33.0762712  77.0234101  43.4694054  32.1018866
  78.3811566  40.2541656  31.1269356  79.2037636  39.7802134  31.0048246
  78.6249630  41.0332140  31.6268042  77.0219801  43.2829914  21.4232257
  77.7428163  43.6611167  20.9195974  76.3985105  44.0018791  21.5267235
  81.1650924  43.9875063  22.3590590  81.3814538  44.8699701  22.0579418
  80.6844991  43.5961277  21.6296232  75.9050145  46.9460777  28.9361334
  75.7594726  47.2601080  29.8285616  75.4275349  47.5645677  28.3832233
  77.7646528  43.9363325  28.9842224  77.7508097  43.0404418  28.6474522
  78.4818956  43.9433988  29.6180510  79.6172659  44.3700665  31.0295351
  79.3590437  45.2917735  31.0279682  79.0857699  43.9731099  31.7195815
  70.3795807  49.4866121  31.8748995  69.8349275  50.2625929  32.0069270
  71.2575157  49.8336926  31.7168117  77.1683424  42.8177705  24.2529794
  77.2899335  41.8894351  24.4520681  76.8785466  42.8316391  23.3408109
  80.0374614  40.5032615  27.3896514  80.0596311  40.5671948  26.4348493
  80.4542673  39.6637124  27.5837020  71.1661829  48.6136017  34.7679152
  70.4243565  48.7618653  35.3543783  70.8454573  48.8744283  33.9045902
  79.1105492  58.1551996  34.5659542  79.4192618  57.9101142  35.4382242
  79.9080974  58.3598634  34.0778412  79.1326104  60.3089905  26.7964919
  78.6931094  59.8166284  27.4897775  79.8834221  59.7662873  26.5556994
  71.6118443  56.5001446  26.7989547  72.4376463  56.2005218  26.4188190
  71.2612495  55.7309068  27.2479336  76.5799976  55.8527914  28.8687220
  75.9579985  55.1898619  28.5689448  77.2504843  55.8789046  28.1860868
  69.8127048  54.4187772  27.7578480  68.9758956  53.9909947  27.5762482
  69.7850693  54.6120216  28.6949272  76.6524503  44.3309702  38.4619726
  76.7012659  45.2071825  38.0797496  77.1947018  43.7887095  37.8891370
  76.1413483  54.4031838  22.3445681  76.2901603  55.0867302  21.6912354
  76.9479926  54.3836928  22.8595137  78.8823792  45.0841075  35.2166085
  78.0127101  45.3774641  34.9448674  79.1183272  45.6681520  35.9373349
  73.8966116  50.4297015  23.3506750  73.6512158  49.5259345  23.5486960
  74.0662030  50.4314166  22.4086228  81.5862826  41.3020692  32.7331506
  82.1044770  42.0381719  32.4077994  81.2317958  41.6084685  33.5678265
  73.1661763  46.1625373  20.8492911  72.4731008  46.2369728  20.1932947
  72.9213515  45.3985716  21.3714428  81.8375420  37.7220974  28.2532402
  82.1177174  37.0544163  28.8792829  82.6226027  37.9150070  27.7407066
  79.6408888  56.8979968  19.8157428  79.0682855  57.5170155  19.3627900
  80.2141682  57.4479330  20.3497350  80.0255687  48.2340781  17.1573481
  80.9714792  48.1046989  17.2261899  79.6469932  47.4955443  17.6342909
  79.9094379  52.2858527  38.6174138  80.8297389  52.4637126  38.8114184
  79.8743962  51.3414572  38.4653837  78.2098604  46.1590757  17.0928366
  77.3030059  45.8623870  17.1691080  78.4874585  45.8620575  16.2262652
  69.1276544  47.4797121  27.5427413  68.8079329  46.6262429  27.2501787
  68.5809973  47.6945699  28.2985380  72.9056452  50.1959562  31.2596919
  73.1242462  51.1276669  31.2784953  73.3182226  49.8367536  32.0451723
  79.8260670  40.7027647  23.2472607  79.0161398  40.3574732  23.6227853
  80.5145087  40.3935191  23.8360219  81.7551218  39.7805694  24.8696904
  82.3082257  40.2001147  25.5286927  81.9921304  38.8541442  24.9119860
  77.7784317  45.7692767  40.6499668  77.6781044  46.7187124  40.5811759
  77.5605859  45.4411006  39.7775738  76.9797389  43.0177692  17.2340345
  77.8416553  43.3432591  17.4936163  77.1647733  42.2309188  16.7213411
  68.9964804  51.1000032  29.5120534  68.3028276  50.6853985  28.9990489
  69.7437795  51.1420569  28.9153953  77.6415587  49.1989906  39.4664730
  77.1582669  49.9990266  39.6728619  77.7276526  49.2097851  38.5132174
  70.9101547  51.0318286  27.3886549  70.8872235  51.1305973  26.4368432
  71.2202183  51.8783437  27.7103715  73.5688925  53.0894441  31.5033163
  74.5232178  53.0578383  31.4363095  73.3701448  52.6285065  32.3183389
  74.1588307  51.6595557  34.0703961  74.9781196  52.1539636  34.0938798
  74.4325115  50.7427525  34.0421529  71.9239154  58.6314060  28.5203361
  71.7893622  57.8714461  27.9541359  71.5071216  59.3554960  28.0532150
  75.0808279  59.5283377  28.7321804  74.9640664  60.4728810  28.6300494
  74.2600726  59.2256939  29.1207603  69.4123221  45.9933691  34.7696158
  70.0582085  45.4832645  35.2583383  69.2040372  46.7302372  35.3439583
  81.9376613  53.0614538  40.2688299  82.8067773  53.2355191  39.9074934
  81.4583365  53.8808955  40.1464028  77.9326832  40.2573735  20.5220054
  77.9205501  41.2015575  20.6788325  78.8250254  40.0743881  20.2279516
  76.1062794  60.1811639  31.9477732  77.0090040  60.2135250  32.2644227
  75.8800164  59.2512090  31.9624068  77.8616396  58.9342626  28.6087811
  76.9112027  58.9344487  28.4952183  78.1648882  58.1875360  28.0923846
  81.7478951  36.8516512  24.7765991  80.9811347  36.2974999  24.9222673
  82.1589656  36.9238381  25.6380143  73.7520712  43.1401308  38.8671172
  74.6152174  42.7838113  39.0774497  73.1786123  42.8015203  39.5546577
  82.3266443  61.9133055  28.4241817  81.5365497  62.1690583  27.9481928
  82.8177690  62.7281393  28.5293858  80.6104146  62.1663545  30.8556808
  80.8612184  63.0510555  31.1214384  81.1463694  61.9868147  30.0831900
  81.2413187  66.3154537  24.5474284  82.0788410  66.7251545  24.3307992
  81.4191455  65.3753979  24.5174478  81.2639359  63.6545252  25.2185018
  81.0663758  63.0614613  24.4936084  80.7086023  63.3497463  25.9360957
  77.8239190  65.3395448  27.3852763  78.5110230  65.0257178  26.7973778
  77.6687318  66.2436812  27.1120015  82.6273912  60.2285644  31.8137787
  82.5432101  59.6211314  31.0788197  81.8056618  60.7194662  31.8147283
  77.4007166  63.4196041  29.6570230  77.4391265  62.8859632  30.4507348
  76.8947459  62.8931246  29.0381207  81.0315743  62.1460143  22.7324162
  81.3269185  61.2370821  22.6791215  80.1303779  62.1247883  22.4105164
  82.7603585  59.8274241  22.8563487  82.4316291  58.9471620  22.6738593
  83.1142956  59.7721909  23.7439876  81.2189562  64.8158039  31.8748995
  80.6743030  65.5917847  32.0069270  82.0968912  65.1628843  31.7168117
  82.0055584  63.9427935  34.7679152  81.2637320  64.0910570  35.3543783
  81.6848328  64.2036201  33.9045902  80.6520802  69.7479690  27.7578480
  79.8152711  69.3201865  27.5762482  80.6244448  69.9412133  28.6949272
  79.9670299  62.8089038  27.5427413  79.6473083  61.9554346  27.2501787
  79.4203727  63.0237616  28.2985380  79.8358559  66.4291950  29.5120534
  79.1422030  66.0145903  28.9990489  80.5831550  66.4712486  28.9153953
  81.7495301  66.3610204  27.3886549  81.7265990  66.4597891  26.4368432
  82.0595938  67.2075354  27.7103715  80.2516976  61.3225608  34.7696158
  80.8975839  60.8124562  35.2583383  80.0434127  62.0594290  35.3439583
  55.0315242   6.1294661  11.2026556  54.9539272   7.0802486  11.2815036
  54.4276886   5.7840534  11.8601482  53.6909209   3.6396182  18.5793116
  54.2416634   3.5113246  17.8070110  52.8520685   3.9391071  18.2288009
  58.1040987   5.7290693   8.5734897  58.2792742   5.2578736   9.3880520
  57.4173775   6.3556459   8.8016158  52.6702072   8.8780055  15.3474758
  52.9098670   9.5098579  16.0253776  51.8271268   8.5268095  15.6340117
  57.1829934   4.6859178  17.7516262  57.1100105   5.4914149  18.2635566
  56.7407327   4.8851144  16.9264283  56.9719713   3.9230948  11.2619083
  56.1887235   4.4652628  11.3557308  57.6712459   4.4404927  11.6613324
  59.6428617   4.5846012  19.9074420  60.3556590   5.2193477  19.8350322
  59.1518646   4.6809878  19.0914422  50.2908249   1.8676810  17.6611094
  50.8761686   1.1220498  17.7938998  50.0933087   2.1780767  18.5447758
  53.1446904   4.9028058  12.6773536  52.4757279   5.3874185  12.1937576
  53.0059774   5.1497278  13.5916915  57.2852173   6.9371801  19.2756194
  57.8370481   7.1003423  20.0405280  57.6258366   7.5276239  18.6036219
  57.4317984   4.5030283  21.2904849  57.7405110   4.2579430  22.1627548
  58.2293466   4.7076921  20.8023719  57.4538596   6.6568192  13.5210225
  57.0143586   6.1644571  14.2143082  58.2046713   6.1141160  13.2802301
  49.9330935   2.8479733  13.5234853  50.7588955   2.5483505  13.1433497
  49.5824987   2.0787356  13.9724642  48.1339540   0.7666060  14.4823787
  47.2971448   0.3388234  14.3007788  48.1063186   0.9598503  15.4194578
  50.2451646   4.9792348  15.2448668  50.1106114   4.2192749  14.6786666
  49.8283708   5.7033247  14.7777457  53.4020772   5.8761665  15.4567111
  53.2853156   6.8207097  15.3545801  52.5813218   5.5735226  15.8452910
  54.4275286   6.5289927  18.6723039  55.3302533   6.5613537  18.9889534
  54.2012656   5.5990377  18.6869375  56.1828888   5.2820913  15.3333118
  55.2324519   5.2822775  15.2197490  56.4861374   4.5353648  14.8169152
  68.7271288  11.0708880  16.3340405  68.3889799  10.9549944  15.4460940
  69.5961056  10.6700045  16.3141411  64.5858103  12.9244356  12.3237296
  64.0222969  12.8334293  11.5553583  64.4710498  12.1044260  12.8039788
  69.2091071  12.2243731  22.2926610  69.1979711  11.8296530  21.4207114
  69.3711710  11.4909804  22.8860382  62.1322535  14.4195548  15.1621516
  62.9243827  14.0786372  14.7467815  62.3719185  14.5290523  16.0823669
  65.9298332  15.0080843  21.2405794  65.6388198  15.9126474  21.1252461
  66.5655316  15.0497371  21.9549864  66.8554539  12.3857692  17.8307154
  67.4518111  12.1613714  17.1164117  66.9129510  11.6442437  18.4332602
  70.8888217  14.6942259  18.2355588  70.5888940  15.5967297  18.1271395
  70.5439276  14.4274442  19.0876741  64.3400698  11.1456055  14.2692292
  63.4151195  11.0132270  14.4769984  64.5885112  11.9250275  14.7662235
  61.7009509  10.7889329  15.1036081  61.8301891  11.0423808  16.0175493
  61.0206961  11.3817037  14.7840736  65.8708997  21.4586579  11.2026556
  65.7933026  22.4094404  11.2815036  65.2670640  21.1132451  11.8601482
  68.3626226   8.6314444  23.8587922  67.5859561   9.1908365  23.8490787
  69.0016790   9.1171227  24.3802793  66.6172599  11.4399898  23.4205889
  67.3587283  11.9784942  23.1440713  65.9109584  12.0666187  23.5777441
  72.0927938  13.5829038  22.0178051  72.5011294  13.1411449  21.2732683
  71.3705200  13.0081666  22.2712244  68.4459008   8.5201645  19.3911608
  69.2920204   8.9441059  19.5346257  68.3857646   7.8635269  20.0850171
  72.4156753  14.1430229  15.7730340  71.7865615  14.3075943  15.0706408
  72.0282415  14.5571838  16.5441304  73.5496917  12.7244626  19.7270047
  73.7613812  13.3676386  19.0504428  73.5026665  11.8906942  19.2591977
  67.9684715  13.8804637  13.0380425  68.4323060  14.1592340  12.2485047
  67.7041513  12.9788082  12.8553516  64.8608796  13.4276118  15.9760188
  65.4310153  13.8563387  15.3377673  65.4516908  13.1458703  16.6744374
  65.3533963   8.5939546  24.2221199  64.7232623   9.2755827  24.4556596
  65.2470050   8.4822628  23.2774338  60.6478935   8.2611342  15.1487124
  59.8577989   8.5168870  14.6727234  61.1390182   9.0759680  15.2539164
  74.6642745  15.6016581  17.8992404  75.4860188  15.1996768  17.6175086
  74.6605147  15.4984815  18.8508520  62.5993680   8.6255921  12.1070600
  61.8024844   8.7374615  12.6254096  62.3719273   8.9642573  11.2411491
  68.4299348  15.1500624  20.0553115  68.4943780  15.6121032  20.8911287
  67.7210272  14.5197989  20.1835425  58.9316638   8.5141832  17.5802114
  59.1824676   9.3988842  17.8459690  59.4676186   8.3346434  16.8077206
  61.5976763  14.3344170  10.4960020  62.1101284  15.1287420  10.6465585
  62.2499476  13.6370460  10.4293622  63.4071648  17.4509926  12.5782774
  63.5838276  18.3727891  12.3903757  64.2028481  17.1368345  13.0077153
  62.6924004   9.4974558  22.4544937  62.5777519   8.5959815  22.7552036
  61.8368522   9.7438255  22.1029753  69.7715842  17.4392298  24.0532437
  69.3279696  16.6528677  23.7353342  70.4333056  17.6271449  23.3876328
  64.5302963  18.9688100  18.5793116  65.0810388  18.8405163  17.8070110
  63.6914439  19.2682989  18.2288009  71.8697080  17.7195098  22.0813839
  71.8515555  18.5403979  21.5894108  72.7917000  17.5949174  22.3063980
  68.3270134  15.2339228  22.9237347  68.8598471  14.4727516  22.6936655
  67.7984215  14.9412880  23.6661502  59.5625680  12.6632824  11.2719591
  60.4000902  13.0729833  11.0553299  59.7403947  11.7232266  11.2419785
  59.5851851  10.0023540  11.9430324  59.3876251   9.4092900  11.2181391
  59.0298515   9.6975750  12.6606263  67.5648575   9.8946646  14.0624918
  67.6197184   8.9420482  13.9867394  66.7539777  10.0506085  14.5466216
  67.6549512  18.5081463  13.7549561  67.6125691  18.7342309  12.8258093
  68.5712211  18.2744837  13.9035362  71.1015146   8.9765530  20.6530190
  71.4564534   9.2037003  21.5124656  71.7487277   9.3083907  20.0307446
  65.7715313  15.3844492  13.5511524  66.5655912  14.8894812  13.3494099
  65.0607006  14.8562355  13.1879229  70.5910158  17.7662587  17.9023891
  70.6447180  18.3353524  18.6701607  69.7224939  17.9364472  17.5377929
  61.9983626   6.0542386  12.2149518  62.2590443   6.9687720  12.1058679
  62.8200798   5.5866829  12.3646131  63.4708551   7.4680143  19.3848343
  64.1431604   7.2597506  18.7360992  62.6438338   7.2702229  18.9453575
  72.7812921  14.3590937  24.4764557  72.6298427  14.1301488  23.5594641
  72.7717600  15.3161538  24.4895902  69.5498257  11.9322849  19.4610823
  70.4790317  12.0834009  19.2879791  69.1289287  12.0206870  18.6059470
  68.3486589  15.9573514  17.2309361  68.2097675  15.5892298  18.1035299
  67.5601185  16.4721153  17.0593319  68.9434741  21.0582610   8.5734897
  69.1186497  20.5870653   9.3880520  68.2567529  21.6848376   8.8016158
  69.8991804  15.3355116  14.6198199  69.5641637  15.2955886  15.5155849
  69.3995750  14.6699832  14.1468609  63.8736048  10.7422746  20.1450780
  63.7355846  10.0102985  20.7462319  64.7840972  10.6531647  19.8634968
  66.5018349  10.4542706  19.6334459  67.2117967   9.8135898  19.5921078
  66.4587657  10.7055601  20.5560640  74.4905128  17.3910059  22.5541039
  74.4317674  16.7069279  21.8871622  74.8924646  18.1329049  22.1021665
  65.2147283   7.4407924  21.4530099  64.6784640   6.9898662  22.1051695
  64.6263991   7.5753832  20.7100563  63.5095826  24.2071973  15.3474758
  63.7492425  24.8390497  16.0253776  62.6665023  23.8560013  15.6340117
  74.4922535  15.3549643  20.7855018  73.6049314  15.0175565  20.9081417
  75.0621086  14.6232674  21.0223784  56.1451682  11.6873735  14.1098070
  56.8322722  11.3735465  13.5219085  55.9899811  12.5915099  13.8365321
  60.9486404   6.5763931  18.5383093  60.8644593   5.9689601  17.8033503
  60.1269111   7.0672950  18.5392590  68.0223688  20.0151095  17.7516262
  67.9493860  20.8206067  18.2635566  67.5801081  20.2143061  16.9264283
  67.8113468  19.2522865  11.2619083  67.0280990  19.7944546  11.3557308
  68.5106213  19.7696845  11.6613324  70.4822372  19.9137929  19.9074420
  71.1950344  20.5485394  19.8350322  69.9912400  20.0101795  19.0914422
  65.5334285  17.6632373  20.7279991  66.2343745  18.2968856  20.8809385
  65.0629400  18.0047104  19.9675630  70.2942745  20.2536674  12.6560712
  70.4765140  19.4358329  13.1188464  71.1175731  20.4704366  12.2185602
  69.3823144  10.9596791  25.0398579  68.7063781  10.8590921  25.7100954
  70.2050778  10.8036005  25.5034576  61.1302003  17.1968728  17.6611094
  61.7155440  16.4512416  17.7938998  60.9326842  17.5072685  18.5447758
  63.9840659  20.2319975  12.6773536  63.3151034  20.7166103  12.1937576
  63.8453528  20.4789196  13.5916915  55.7219658   9.7674328  16.3815537
  55.7603758   9.2337919  17.1752655  55.2159951   9.2409534  15.7626514
  68.1245927  22.2663719  19.2756194  68.6764235  22.4295340  20.0405280
  68.4652121  22.8568157  18.6036219  62.5762693   6.6862001  23.5251113
  63.2034732   6.3039079  24.1388638  61.7190612   6.4676203  23.8906806
  72.9756802  17.0924976  25.1304849  73.5196705  17.7054935  24.6359804
  72.3943646  17.6504555  25.6471862  59.3528236   8.4938430   9.4569468
  59.6481677   7.5849109   9.4036522  58.4516271   8.4726170   9.1350471
  71.2614314  20.2145694  16.2619877  71.1365454  19.4135434  15.7530822
  71.9193406  20.7091888  15.7733847  62.8822483   6.5694427  15.4397017
  62.1609068   7.1830395  15.3004490  63.6715738   7.1052192  15.3613663
  73.3249223  18.0154714  17.8899427  72.3779558  17.8960066  17.8177753
  73.6731996  17.1277213  17.9725688  70.3295656  17.8107431  14.0903779
  70.1820619  16.8824138  14.2711349  71.1549150  17.8327521  13.6060854
  73.9329778  18.6335989  15.1768652  74.8576325  18.4278851  15.0393103
  73.7645081  18.3852391  16.0857993  65.0656392   8.6230982  15.6606641
  64.9200973   8.9371285  16.5530922  64.5881595   9.2415882  15.1077539
  59.5402054  11.1636326  18.5994302  58.9955522  11.9396134  18.7314576
  60.4181404  11.5107130  18.4413423  60.3268076  10.2906222  21.4924459
  59.5849812  10.4388858  22.0789089  60.0060820  10.5514488  20.6291208
  68.2711739  19.8322200  21.2904849  68.5798865  19.5871347  22.1627548
  69.0687221  20.0368839  20.8023719  68.2932351  21.9860110  13.5210225
  67.8537341  21.4936489  14.2143082  69.0440468  21.4433078  13.2802301
  60.7724690  18.1771651  13.5234853  61.5982709  17.8775423  13.1433497
  60.4218742  17.4079273  13.9724642  65.7406223  17.5298119  15.5932527
  65.1186232  16.8668824  15.2934755  66.4111090  17.5559251  14.9106175
  58.9733295  16.0957977  14.4823787  58.1365203  15.6680152  14.3007788
  58.9456940  16.2890421  15.4194578  76.2985596  16.5521030  24.4666170
  75.5081140  16.5345169  23.9270670  76.0618950  17.0909324  25.2215207
  76.4183471  13.4013497  21.7798899  76.4681476  13.2363504  22.7214422
  76.3097394  12.5340756  21.3896779  65.3019730  16.0802043   9.0690988
  65.4507850  16.7637507   8.4157660  66.1086173  16.0607133   9.5840443
  77.9201668  15.8210438  22.0240920  77.6286476  16.1840419  22.8604381
  77.3073799  15.1077447  21.8454252  63.0572363  12.1067220  10.0752057
  62.8118405  11.2029550  10.2732267  63.2268277  12.1084371   9.1331535
  69.0700626  13.9628732  25.3419445  69.9903636  14.1407331  25.5359491
  69.0350209  13.0184777  25.1899144  58.2882791   9.1567326  14.2672719
  57.9685576   8.3032634  13.9747093  57.7416219   9.3715904  15.0230686
  62.0662699  11.8729767  17.9842226  62.2848709  12.8046874  18.0030259
  62.4788473  11.5137741  18.7697030  66.9390564   7.4462972  27.3744975
  66.8387291   8.3957329  27.3057066  66.7212106   7.1181211  26.5021045
  58.1571051  12.7770237  16.2365841  57.4634523  12.3624190  15.7235795
  58.9044042  12.8190774  15.6399260  66.8021834  10.8760111  26.1910036
  66.3188916  11.6760471  26.3973925  66.8882773  10.8868056  25.2377480
  60.0707794  12.7088491  14.1131856  60.0478482  12.8076178  13.1613739
  60.3808430  13.5553642  14.4349022  62.7295172  14.7664646  18.2278470
  63.6838425  14.7348588  18.1608402  62.5307695  14.3055270  19.0428696
  63.3194554  13.3365762  20.7949268  64.1387443  13.8309841  20.8184105
  63.5931361  12.4197730  20.7666835  61.0845400  20.3084265  15.2448668
  60.9499868  19.5484666  14.6786666  60.6677463  21.0325165  14.7777457
  64.2414526  21.2053582  15.4567111  64.1246910  22.1499015  15.3545801
  63.4206973  20.9027144  15.8452910  58.5729468   7.6703896  21.4941465
  59.2188332   7.1602850  21.9828690  58.3646619   8.4072577  22.0684890
  71.0982860  14.7384743  26.9933605  71.9674020  14.9125395  26.6320240
  70.6189612  15.5579160  26.8709335  65.2669040  21.8581844  18.6723039
  66.1696287  21.8905454  18.9889534  65.0406410  20.9282295  18.6869375
  67.0222642  20.6112831  15.3333118  66.0718273  20.6114692  15.2197490
  67.3255129  19.8645565  14.8169152  79.5665042  26.4000797  16.3340405
  79.2283554  26.2841862  15.4460940  80.4354810  25.9991962  16.3141411
  75.4251858  28.2536274  12.3237296  74.8616723  28.1626211  11.5553583
  75.3104253  27.4336178  12.8039788  80.0484825  27.5535649  22.2926610
  80.0373466  27.1588447  21.4207114  80.2105465  26.8201722  22.8860382
  72.9716290  29.7487465  15.1621516  73.7637582  29.4078290  14.7467815
  73.2112940  29.8582440  16.0823669  76.7692086  30.3372761  21.2405794
  76.4781952  31.2418392  21.1252461  77.4049071  30.3789288  21.9549864
  77.6948293  27.7149609  17.8307154  78.2911865  27.4905632  17.1164117
  77.7523265  26.9734355  18.4332602  81.7281971  30.0234176  18.2355588
  81.4282694  30.9259215  18.1271395  81.3833031  29.7566360  19.0876741
  75.1794453  26.4747973  14.2692292  74.2544949  26.3424187  14.4769984
  75.4278866  27.2542192  14.7662235  72.5403264  26.1181247  15.1036081
  72.6695645  26.3715726  16.0175493  71.8600715  26.7108955  14.7840736
  76.7102751  36.7878497  11.2026556  76.6326781  37.7386322  11.2815036
  76.1064395  36.4424369  11.8601482  79.2019981  23.9606362  23.8587922
  78.4253315  24.5200282  23.8490787  79.8410544  24.4463145  24.3802793
  77.4566353  26.7691815  23.4205889  78.1981038  27.3076859  23.1440713
  76.7503339  27.3958104  23.5777441  82.9321693  28.9120956  22.0178051
  83.3405049  28.4703366  21.2732683  82.2098954  28.3373583  22.2712244
  79.2852763  23.8493563  19.3911608  80.1313958  24.2732976  19.5346257
  79.2251401  23.1927187  20.0850171  83.2550508  29.4722147  15.7730340
  82.6259370  29.6367861  15.0706408  82.8676170  29.8863756  16.5441304
  82.4352208  21.5097931  21.0492782  82.1913140  22.2639992  20.5127057
  82.7112139  21.8883279  21.8840029  78.8078469  29.2096555  13.0380425
  79.2716815  29.4884258  12.2485047  78.5435268  28.3079999  12.8553516
  75.7002550  28.7568036  15.9760188  76.2703908  29.1855305  15.3377673
  76.2910662  28.4750621  16.6744374  76.1927717  23.9231464  24.2221199
  75.5626378  24.6047744  24.4556596  76.0863805  23.8114545  23.2774338
  71.4872689  23.5903260  15.1487124  70.6971743  23.8460788  14.6727234
  71.9783937  24.4051597  15.2539164  73.4387435  23.9547839  12.1070600
  72.6418598  24.0666533  12.6254096  73.2113027  24.2934491  11.2411491
  79.2693102  30.4792542  20.0553115  79.3337535  30.9412949  20.8911287
  78.5604026  29.8489907  20.1835425  69.7710392  23.8433750  17.5802114
  70.0218431  24.7280760  17.8459690  70.3069941  23.6638352  16.8077206
  75.4708460  18.2252229  26.5846451  75.0775405  17.6718428  27.2594095
  76.2874600  18.5362808  26.9752968  72.4370517  29.6636088  10.4960020
  72.9495038  30.4579338  10.6465585  73.0893230  28.9662378  10.4293622
  74.2465402  32.7801844  12.5782774  74.4232031  33.7019809  12.3903757
  75.0422236  32.4660263  13.0077153  78.3876421  19.6410109  24.1766707
  79.1286134  20.2417262  24.0971170  78.6194344  18.8987746  23.6184750
  73.5317759  24.8266476  22.4544937  73.4171274  23.9251733  22.7552036
  72.6762276  25.0730173  22.1029753  80.6109596  32.7684216  24.0532437
  80.1673451  31.9820595  23.7353342  81.2726810  32.9563367  23.3876328
  75.3696718  34.2980018  18.5793116  75.9204143  34.1697081  17.8070110
  74.5308194  34.5974907  18.2288009  79.1663889  30.5631146  22.9237347
  79.6992225  29.8019434  22.6936655  78.6377970  30.2704797  23.6661502
  70.4019434  27.9924742  11.2719591  71.2394656  28.4021750  11.0553299
  70.5797702  27.0524184  11.2419785  70.4245605  25.3315457  11.9430324
  70.2270005  24.7384818  11.2181391  69.8692269  25.0267667  12.6606263
  78.4042329  25.2238564  14.0624918  78.4590939  24.2712400  13.9867394
  77.5933531  25.3798003  14.5466216  78.4943267  33.8373380  13.7549561
  78.4519446  34.0634227  12.8258093  79.4105966  33.6036755  13.9035362
  81.9408901  24.3057448  20.6530190  82.2958288  24.5328921  21.5124656
  82.5881032  24.6375825  20.0307446  75.8348764  21.4133979  17.4376531
  76.4748143  21.2722738  16.7399495  75.0026294  21.1268492  17.0615133
  76.6109068  30.7136409  13.5511524  77.4049666  30.2186730  13.3494099
  75.9000760  30.1854273  13.1879229  81.4303912  33.0954505  17.9023891
  81.4840934  33.6645441  18.6701607  80.5618693  33.2656390  17.5377929
  72.8377380  21.3834304  12.2149518  73.0984197  22.2979637  12.1058679
  73.6594552  20.9158747  12.3646131  74.3102305  22.7972061  19.3848343
  74.9825359  22.5889423  18.7360992  73.4832092  22.5994147  18.9453575
  80.2127878  19.4234002  21.4014004  79.5655793  20.1223952  21.3078480
  80.9828893  19.8570146  21.7690252  80.3892012  27.2614767  19.4610823
  81.3184072  27.4125927  19.2879791  79.9683042  27.3498788  18.6059470
  79.1880344  31.2865431  17.2309361  79.0491429  30.9184216  18.1035299
  78.3994940  31.8013071  17.0593319  79.7828496  36.3874528   8.5734897
  79.9580251  35.9162571   9.3880520  79.0961284  37.0140294   8.8016158
  80.7385559  30.6647034  14.6198199  80.4035391  30.6247804  15.5155849
  80.2389504  29.9991750  14.1468609  74.7129803  26.0714664  20.1450780
  74.5749601  25.3394903  20.7462319  75.6234726  25.9823564  19.8634968
  77.3412103  25.7834623  19.6334459  78.0511722  25.1427816  19.5921078
  77.2981412  26.0347518  20.5560640  76.0541037  22.7699841  21.4530099
  75.5178394  22.3190580  22.1051695  75.4657746  22.9045750  20.7100563
  74.3489581  39.5363891  15.3474758  74.5886179  40.1682415  16.0253776
  73.5058777  39.1851931  15.6340117  66.9845436  27.0165652  14.1098070
  67.6716476  26.7027383  13.5219085  66.8293565  27.9207017  13.8365321
  71.7880159  21.9055849  18.5383093  71.7038347  21.2981519  17.8033503
  70.9662865  22.3964867  18.5392590  78.8617443  35.3443013  17.7516262
  78.7887614  36.1497985  18.2635566  78.4194836  35.5434979  16.9264283
  78.6507222  34.5814783  11.2619083  77.8674744  35.1236463  11.3557308
  79.3499968  35.0988763  11.6613324  81.3216126  35.2429847  19.9074420
  82.0344098  35.8777312  19.8350322  80.8306155  35.3393713  19.0914422
  76.3728040  32.9924291  20.7279991  77.0737499  33.6260774  20.8809385
  75.9023155  33.3339022  19.9675630  81.1336500  35.5828591  12.6560712
  81.3158894  34.7650247  13.1188464  81.9569486  35.7996283  12.2185602
  80.2216899  26.2888709  25.0398579  79.5457536  26.1882838  25.7100954
  81.0444533  26.1327923  25.5034576  71.9695758  32.5260646  17.6611094
  72.5549195  31.7804334  17.7938998  71.7720596  32.8364602  18.5447758
  74.8234413  35.5611893  12.6773536  74.1544788  36.0458021  12.1937576
  74.6847283  35.8081113  13.5916915  66.5613413  25.0966246  16.3815537
  66.5997512  24.5629837  17.1752655  66.0553705  24.5701451  15.7626514
  78.9639682  37.5955637  19.2756194  79.5157990  37.7587258  20.0405280
  79.3045875  38.1860074  18.6036219  73.9404175  19.9430786  19.8778079
  74.0045501  20.8045617  19.4655477  73.8771295  19.3304788  19.1450438
  73.4156447  22.0153919  23.5251113  74.0428486  21.6330996  24.1388638
  72.5584366  21.7968121  23.8906806  70.1921990  23.8230348   9.4569468
  70.4875431  22.9141026   9.4036522  69.2910026  23.8018087   9.1350471
  82.1008069  35.5437612  16.2619877  81.9759208  34.7427352  15.7530822
  82.7587160  36.0383805  15.7733847  73.7216237  21.8986345  15.4397017
  73.0002823  22.5122312  15.3004490  74.5109493  22.4344109  15.3613663
  76.5242551  19.2340771  21.7137669  77.0476953  19.4803068  22.4763978
  76.3054884  20.0660806  21.2940806  81.1689411  33.1399348  14.0903779
  81.0214373  32.2116056  14.2711349  81.9942904  33.1619439  13.6060854
  77.7295096  20.1754466  19.3987339  77.3891916  19.3762279  19.8008019
  77.0234102  20.4756177  18.8264172  75.9050146  23.9522899  15.6606641
  75.7594727  24.2663202  16.5530922  75.4275350  24.5707800  15.1077539
  79.6172660  21.3762787  17.7540658  79.3590438  22.2979858  17.7524988
  79.0857700  20.9793222  18.4441122  70.3795808  26.4928244  18.5994302
  69.8349277  27.2688052  18.7314576  71.2575158  26.8399048  18.4413423
  71.1661830  25.6198140  21.4924459  70.4243566  25.7680775  22.0789089
  70.8454575  25.8806406  20.6291208  79.1105493  35.1614118  21.2904849
  79.4192619  34.9163265  22.1627548  79.9080975  35.3660757  20.8023719
  79.1326105  37.3152028  13.5210225  78.6931095  36.8228406  14.2143082
  79.8834222  36.7724995  13.2802301  71.6118444  33.5063569  13.5234853
  72.4376464  33.2067340  13.1433497  71.2612496  32.7371191  13.9724642
  76.5799977  32.8590037  15.5932527  75.9579986  32.1960742  15.2934755
  77.2504844  32.8851169  14.9106175  69.8127049  31.4249895  14.4823787
  68.9758957  30.9972069  14.3007788  69.7850695  31.6182338  15.4194578
  76.6524505  21.3371825  25.1865033  76.7012660  22.2133948  24.8042803
  77.1947019  20.7949218  24.6136676  76.1413484  31.4093960   9.0690988
  76.2901604  32.0929425   8.4157660  76.9479928  31.3899050   9.5840443
  78.8823793  22.0903197  21.9411392  78.0127103  22.3836763  21.6693980
  79.1183273  22.6743642  22.6618655  73.8966117  27.4359138  10.0752057
  73.6512159  26.5321468  10.2732267  74.0662032  27.4376288   9.1331535
  79.9094381  29.2920650  25.3419445  80.8297390  29.4699249  25.5359491
  79.8743964  28.3476695  25.1899144  69.1276546  24.4859243  14.2672719
  68.8079330  23.6324551  13.9747093  68.5809974  24.7007821  15.0230686
  72.9056453  27.2021684  17.9842226  73.1242463  28.1338792  18.0030259
  73.3182227  26.8429659  18.7697030  77.7784319  22.7754890  27.3744975
  77.6781045  23.7249247  27.3057066  77.5605861  22.4473129  26.5021045
  68.9964806  28.1062155  16.2365841  68.3028277  27.6916107  15.7235795
  69.7437797  28.1482691  15.6399260  77.6415589  26.2052029  26.1910036
  77.1582670  27.0052389  26.3973925  77.7276528  26.2159974  25.2377480
  70.9101548  28.0380408  14.1131856  70.8872236  28.1368096  13.1613739
  71.2202185  28.8845559  14.4349022  73.5688926  30.0956563  18.2278470
  74.5232180  30.0640506  18.1608402  73.3701450  29.6347187  19.0428696
  74.1588308  28.6657680  20.7949268  74.9781197  29.1601758  20.8184105
  74.4325116  27.7489648  20.7666835  71.9239155  35.6376183  15.2448668
  71.7893623  34.8776584  14.6786666  71.5071217  36.3617083  14.7777457
  75.0808281  36.5345500  15.4567111  74.9640665  37.4790932  15.3545801
  74.2600727  36.2319062  15.8452910  69.4123222  22.9995813  21.4941465
  70.0582086  22.4894767  21.9828690  69.2040374  23.7364495  22.0684890
  81.9376615  30.0676661  26.9933605  82.8067774  30.2417313  26.6320240
  81.4583366  30.8871078  26.8709335  76.1062795  37.1873762  18.6723039
  77.0090042  37.2197372  18.9889534  75.8800165  36.2574213  18.6869375
  77.8616397  35.9404748  15.3333118  76.9112028  35.9406610  15.2197490
  78.1648883  35.1937483  14.8169152  73.7520713  20.1463430  25.5916479
  74.6152175  19.7900235  25.8019804  73.1786124  19.8077325  26.2791883
  82.3266444  38.9195177  15.1487124  81.5365498  39.1752706  14.6727234
  82.8177691  39.7343515  15.2539164  80.6104147  39.1725668  17.5802114
  80.8612185  40.0572678  17.8459690  81.1463695  38.9930269  16.8077206
  81.2413189  43.3216660  11.2719591  82.0788411  43.7313668  11.0553299
  81.4191456  42.3816102  11.2419785  81.2639360  40.6607375  11.9430324
  81.0663760  40.0676736  11.2181391  80.7086024  40.3559585  12.6606263
  77.8239191  42.3457570  14.1098070  78.5110231  42.0319300  13.5219085
  77.6687320  43.2498935  13.8365321  82.6273913  37.2347767  18.5383093
  82.5432102  36.6273436  17.8033503  81.8056620  37.7256785  18.5392590
  77.4007167  40.4258164  16.3815537  77.4391267  39.8921754  17.1752655
  76.8947460  39.8993369  15.7626514  81.0315745  39.1522266   9.4569468
  81.3269186  38.2432944   9.4036522  80.1303780  39.1310005   9.1350471
  81.2189563  41.8220161  18.5994302  80.6743031  42.5979969  18.7314576
  82.0968913  42.1690966  18.4413423  82.0055585  40.9490058  21.4924459
  81.2637321  41.0972693  22.0789089  81.6848329  41.2098323  20.6291208
  82.4512199  48.8355486  13.5234853  83.2770218  48.5359258  13.1433497
  82.1006251  48.0663109  13.9724642  80.6520804  46.7541813  14.4823787
  79.8152712  46.3263987  14.3007788  80.6244449  46.9474256  15.4194578
  79.9670300  39.8151161  14.2672719  79.6473085  38.9616469  13.9747093
  79.4203728  40.0299739  15.0230686  79.8358560  43.4354072  16.2365841
  79.1422032  43.0208025  15.7235795  80.5831551  43.4774609  15.6399260
  81.7495303  43.3672326  14.1131856  81.7265991  43.4660013  13.1613739
  82.0595939  44.2137477  14.4349022  82.7632909  50.9668101  15.2448668
  82.6287377  50.2068502  14.6786666  82.3464972  51.6909001  14.7777457
  80.2516977  38.3287731  21.4941465  80.8975841  37.8186685  21.9828690
  80.0434128  39.0656413  22.0684890   6.8792451  42.6039169  67.3496146
   6.1256159  42.0346567  67.1940151   7.0139992  42.5701833  68.2966781
   0.9556597  42.7567805  64.4598290   0.8174495  42.9469401  63.5319479
   0.5992815  43.5187188  64.9166341   0.9825976  44.8244332  69.4709561
   1.4162483  44.7319621  70.3192615   1.6957557  44.8001833  68.8329577
   1.8441526  44.8668033  72.0042447   2.0377416  45.7713843  72.2501722
   1.7442144  44.4075452  72.8381032   3.0983589  41.4241699  68.6490350
   3.0873465  42.3066415  68.2784283   2.2300968  41.0713250  68.4544887
   3.7008199  42.5741919  65.2539813   4.1439345  41.8249244  64.8558937
   2.8234709  42.5652055  64.8713545   0.7335403  46.5771966  62.2633743
   1.2586727  46.9159238  61.5383063   0.6457756  45.6418981  62.0796877
   3.2441064  44.0447157  67.6462261   4.0787955  44.4836961  67.8099821
   3.3800192  43.5685810  66.8270507   1.4722316  41.6998772  70.9410354
   1.4398636  40.7614772  71.1270038   2.0822940  41.7782808  70.2076179
   1.6216805  38.4909815  70.9868637   1.1055853  37.7068272  70.7998566
   2.5056753  38.1628532  71.1515157   7.2898866  42.7614778  70.0816391
   8.0202255  42.5000067  70.6424094   6.6805812  42.0243500  70.1218459
   5.3714163  40.9022641  70.6790842   4.6447327  40.7678606  70.0707333
   4.9561450  41.2099470  71.4847560   2.9891958  37.1234493  68.0324273
   3.5836449  36.8830229  67.3217582   3.0618542  36.4041624  68.6597810
   0.9850693  37.6904621  64.2996403   0.7287627  37.2901257  65.1304611
   0.3603561  38.4048415  64.1746542   5.2963031  40.4300694  66.8067695
   4.7362589  40.4993883  67.5799257   4.6906534  40.2541679  66.0867191
   6.8819049  57.1057208  69.4997650   7.5197459  56.9863955  68.7960990
   6.7639892  58.0538052  69.5585603   3.6908756  57.0584636  69.4359175
   3.3527267  56.9425701  68.5479710   4.5598524  56.6575801  69.4160181
   5.1295130  62.5791080  60.7370531   4.4783110  63.1645161  60.3504545
   5.9239493  63.1097275  60.7965568   1.3917035  55.8272884  58.7676115
   1.6442556  55.3054405  58.0059578   0.4541594  55.6639029  58.8702799
   6.4360318  54.8308662  66.5750858   7.2223407  54.4128085  66.2241275
   6.6999022  55.7354754  66.7432507   6.6070395  60.2681512  61.2739515
   5.9716228  60.3416139  61.9860420   6.2767802  60.8575111  60.5958594
  11.8368745  54.7683895  67.4783837  12.5693917  54.1983112  67.7121666
  11.0808101  54.3805496  67.9190343   1.1113324  57.7300989  60.9700490
   0.9949582  57.0545893  61.6381574   1.2215584  57.2433363  60.1532643
   3.4544865  57.1911137  64.6747179   3.0903072  56.6641758  65.3860101
   4.3111981  56.8009606  64.5013665   9.3594165  48.4805469  71.9378446
   9.0277490  49.3500880  71.7139661   8.7639779  48.1641753  72.6172476
   3.0950352  52.2201036  59.6708528   3.2624754  53.0881273  60.0378999
   2.9047521  52.3828318  58.7469817   9.2522829  53.2000555  69.0171796
   8.3439706  53.1315964  68.7230557   9.2010424  53.6772500  69.8453621
   3.0739573  54.6758694  60.6555195   2.9539198  55.1215745  61.4940675
   2.3792161  55.0244011  60.0968733  11.1184475  51.4016994  70.7949669
  10.4758855  51.6949527  70.1489464  10.6139404  51.2869914  71.6002866
   8.7724639  55.1480167  61.4835529   9.6842495  55.3807554  61.3083226
   8.2634286  55.7317211  60.9210607   7.3794221  60.1305985  68.8749110
   6.7503084  60.2951700  68.1725178   6.9919883  60.5447595  69.6460074
  11.2583453  61.0660423  66.2293474  10.5734491  61.4459325  65.6790507
  11.3427302  61.6755750  66.9625422   6.1160614  51.3238203  69.7325390
   5.2545093  51.6219457  70.0242127   6.1423048  51.5408602  68.8006422
   2.9322183  59.8680394  66.1399195   3.3960528  60.1468097  65.3503818
   2.6678981  58.9663838  65.9572286   1.8691069  55.9903546  62.9488760
   2.5715112  56.4424590  63.4162687   1.5371698  55.3487365  63.5768654
  17.7186206  57.9331086  67.3496146  16.9649914  57.3638484  67.1940151
  17.8533747  57.8993751  68.2966781   3.1084834  62.8044489  63.0250866
   2.9730508  63.6496024  63.4535713   3.6494646  63.0063766  62.2616799
   6.4577297  46.3275050  71.5549759   6.1141567  47.2176692  71.4788870
   6.8256260  46.1376708  70.6919344   6.4227580  56.3183661  60.0622194
   5.9074203  57.0888266  60.3010582   6.1504888  55.6448798  60.6855256
   4.0074691  51.1633362  65.1207433   3.1516287  50.7740213  64.9413071
   4.4201643  51.2425323  64.2607218   5.5373838  48.6979706  69.5198992
   5.0338633  48.6609841  68.7066798   5.8304444  49.6072448  69.5795649
   1.7816723  48.7818435  68.5265174   2.6469720  48.5861244  68.1671064
   1.8494232  48.5528787  69.4534531  11.3961854  59.0716016  61.9975368
  10.6191297  58.7327176  61.5530530  12.0753335  59.0768639  61.3230333
   6.2113883  54.1910754  61.8881975   5.9064019  54.5056903  62.7392119
   7.1644325  54.2692173  61.9309308   4.6560315  60.3500977  63.5374929
   4.1281677  59.6153736  63.2248167   4.1547818  61.1275653  63.2914898
   9.6353161  58.5449997  68.6541976   8.9776835  59.2349259  68.7422104
  10.4393560  58.9346429  68.9975962   8.4458620  56.8994370  66.7045917
   8.9590502  57.5324362  67.2067627   9.0959844  56.2995566  66.3389277
   1.6901710  47.8861892  64.6256610   1.0366123  47.5710909  64.0013225
   1.6482184  47.2637633  65.3516433   2.8012915  58.1681187  56.5409902
   1.8939977  57.9370441  56.7401051   3.2983947  57.3718806  56.7283884
   5.7080994  66.8778694  59.4606589   5.0342693  67.1810391  60.0691546
   6.0946816  67.6807775  59.1112046   4.9239451  54.3743826  68.9504258
   4.0062012  54.5958773  68.7925946   5.3399594  54.4490136  68.0915965
   5.7074498  55.7735241  64.0806938   6.4546317  56.2856639  63.7714060
   5.9766088  55.4519294  64.9411332   3.9801149  58.2693782  61.0633893
   3.0712368  57.9852815  61.1606362   4.0096232  58.6892861  60.2037199
   9.2120416  61.8800372  64.8325060   8.7582743  61.0391281  64.8890251
   8.5814383  62.5161770  65.1699840   8.1553336  52.8092358  66.0625728
   7.4176092  52.2969744  66.3935970   8.4080109  52.3692739  65.2509004
   7.6553355  63.7176868  65.7674878   7.9476330  64.2781925  65.0487244
   8.1651976  64.0105429  66.5228037   8.2564963  45.5868610  66.6567497
   8.5623840  44.7265973  66.3693412   8.9817568  46.1786230  66.4566491
   2.5286043  55.8822403  67.1643688   2.5834652  54.9296239  67.0886164
   1.7177245  56.0381842  67.6484986   3.6777236  59.8102526  58.4021971
   3.2396666  59.0938385  57.9427608   4.4187677  60.0378641  57.8407063
  11.7950351  58.0859723  64.4598290  11.6568250  58.2761319  63.5319479
  11.4386570  58.8479106  64.9166341  11.8219731  60.1536250  69.4709561
  12.2556237  60.0611539  70.3192615  12.5351311  60.1293750  68.8329577
  12.6835280  60.1959950  72.0042447  12.8771170  61.1005761  72.2501722
  12.5835898  59.7367369  72.8381032   3.9072209  67.0458367  61.6753668
   4.0823965  66.5746410  62.4899290   3.2204997  67.6724133  61.9034929
   7.7988464  58.6686907  57.9954029   7.1817635  57.9433736  57.8987081
   7.3304952  59.4296268  57.6521103   6.0847586  51.0493251  67.0072059
   6.5816286  50.2963214  66.6873129   5.3134568  51.0857568  66.4415268
  13.9377343  56.7533617  68.6490350  13.9267220  57.6358332  68.2784283
  13.0694723  56.4005168  68.4544887   7.1677367  59.8064939  64.5810482
   6.2333645  59.9266401  64.4115187   7.3454035  58.9037405  64.3170492
   2.6682555  53.1910634  66.7343743   2.2980342  52.6381675  67.4224649
   3.1641647  52.5868768  66.1818744  10.5549918  55.6482258  65.1160516
  11.0210370  56.4810250  65.0420819  11.0057419  55.1827240  65.8205775
   8.6226149  61.9926079  62.1146668   8.8985993  61.8782674  63.0240543
   7.7530648  61.5943564  62.0758842   8.5266581  48.0162845  69.1551418
   7.6129661  48.2467072  69.3233625   8.9559682  48.1001289  70.0065450
   8.2973039  56.2052737  71.6551312   7.6444490  56.4528644  71.0003765
   8.6753419  55.3916875  71.3213789   5.5922379  65.1680615  63.0194531
   6.1210145  64.6573070  62.4064693   5.8550598  64.8523145  63.8840064
   8.8967246  64.6211746  68.2787422   9.8213793  64.4154607  68.1411873
   8.7282549  64.3728147  69.1876764   2.5055281  47.9187617  70.9533433
   3.3281350  47.4448096  70.8312323   2.7493345  48.6978101  71.4532119
   1.1463516  50.9475876  61.2496334   1.8671878  51.3257129  60.7460051
   0.5228820  51.6664753  61.3531312   5.2894638  51.6521025  62.1854667
   5.5058253  52.5345663  61.8843495   4.8088706  51.2607238  61.4560309
   1.8890243  51.6009286  68.8106301   1.8751812  50.7050379  68.4738599
   2.6062671  51.6079950  69.4444587   3.7416373  52.0346626  70.8559428
   3.4834151  52.9563697  70.8543759   3.2101414  51.6377061  71.5459892
   8.6862562  65.1397413  63.6349514   8.8599440  64.5743836  62.8823366
   9.1791453  65.9398308  63.4529003   1.2927139  50.4823666  64.0793871
   1.4143050  49.5540313  64.2784758   1.0029181  50.4962352  63.1672186
   4.1618329  48.1678577  67.2160591   4.1840026  48.2317910  66.2612570
   4.5786388  47.3283085  67.4101097  14.5401953  57.9033836  65.2539813
  14.9833099  57.1541162  64.8558937  13.6628464  57.8943973  64.8713545
   9.6737735  64.4564178  60.7346412  10.3688639  65.0770871  60.9533726
  10.0160885  63.6059529  61.0098790  11.5729158  61.9063883  62.2633743
  12.0980482  62.2451156  61.5383063  11.4851510  60.9710899  62.0796877
  14.0834818  59.3739075  67.6462261  14.9181709  59.8128879  67.8099821
  14.2193947  58.8977728  66.8270507  11.1326324  56.9318810  73.5939749
  11.6080446  57.1246456  72.7858600  10.2091889  56.9877995  73.3483132
   5.7106541  48.9666653  72.5595583   6.2288484  49.7027680  72.2342071
   5.3561673  49.2730646  73.3942342   5.9619135  45.3866936  68.0796479
   6.2420888  44.7190125  68.7056906   6.7469742  45.5796031  67.5671143
   3.7652603  64.5625930  59.6421505   3.1926570  65.1816117  59.1891977
   4.3385397  65.1125291  60.1761427   9.8327993  53.8084570  71.8268054
  10.7845416  53.9082667  71.8480278   9.6631443  53.0162838  72.3366139
   7.8542372  50.8940153  72.0127455   7.2592305  51.1745166  71.3173944
   7.5692069  51.3834054  72.7844196   6.9849863  64.8463080  60.7730088
   7.9180536  64.7808641  60.9762963   6.8973076  65.6819347  60.3144620
   9.6137880  64.1628950  57.7334035   9.5351511  63.8288814  58.6269793
  10.4347546  64.6550718  57.7325508  12.3116071  57.0290689  70.9410354
  12.2792391  56.0906690  71.1270038  12.9216694  57.1074726  70.2076179
   4.1499402  55.8986742  56.9837558   5.0958506  55.7692950  57.0525976
   3.7713647  55.1601404  57.4606986  12.4610559  53.8201733  70.9868637
  11.9449608  53.0360189  70.7998566  13.3450508  53.4920449  71.1515157
  10.1221286  47.5642748  66.9464450   9.9246107  47.2557837  67.8307782
  10.7320992  48.2904387  67.0762380  18.1292621  58.0906696  70.0816391
  18.8596009  57.8291984  70.6424094  17.5199566  57.3535418  70.1218459
  16.2107918  56.2314559  70.6790842  15.4841081  56.0970524  70.0707333
  15.7955205  56.5391387  71.4847560   2.3342319  53.8236719  56.9192443
   1.4273774  53.5269831  56.9955157   2.6118300  53.5266537  56.0526729
   3.9504385  48.3673608  63.0736684   3.1405113  48.0220693  63.4491931
   4.6388801  48.0581152  63.6624296   5.8794933  47.4451655  64.6960981
   6.4325971  47.8647109  65.3551004   6.1165019  46.5187403  64.7383937
   1.1041103  50.6823654  57.0604422   1.9660267  51.0078552  57.3200240
   1.2891448  49.8955150  56.5477488   9.2573740  49.5552180  64.2039645
   8.6772409  50.2136984  63.8217698   8.9909673  48.7329525  63.7927063
   7.7077306  48.9557238  66.4060966   8.2077085  49.0673773  65.5975284
   8.3512914  48.6518291  67.0461774   8.0398618  51.7152271  63.2595994
   7.1524473  52.0001921  63.0416188   8.4552607  51.5546034  62.4123270
  11.3913154  51.7398792  66.9750333  12.1673544  52.2295244  67.2474950
  10.6661288  52.1656846  67.4322202  13.8285713  52.4526411  68.0324273
  14.4230204  52.2122147  67.3217582  13.9012296  51.7333542  68.6597810
   7.1841831  61.4796945  57.3544014   7.8877682  61.6846948  57.9701669
   6.4604480  62.0473707  57.6193097   8.0139642  57.2306807  63.4746284
   7.9574843  57.6875358  62.6353916   8.5667984  56.4697491  63.2969127
  11.8244448  53.0196539  64.2996403  11.5681382  52.6193174  65.1304611
  11.1997316  53.7340332  64.1746542  16.1356785  55.7592612  66.8067695
  15.5756343  55.8285801  67.5799257  15.5300289  55.5833596  66.0867191
   9.0928529  61.9179475  59.4042474   9.9274133  61.4860673  59.2219948
   8.9312872  61.7461488  60.3319368   8.7474421  58.4211588  60.7698813
   8.6923225  58.2555859  59.8287257   8.1220476  59.1287621  60.9261003
   2.0570546  47.9219697  60.3484131   2.0449216  48.8661537  60.5052402
   2.9493968  47.7389842  60.0543593   5.8722666  44.5162474  64.6030068
   5.1055062  43.9620960  64.7486750   6.2833371  44.5884342  65.4644220
  17.7212804  72.4349126  69.4997650  18.3591214  72.3155873  68.7960990
  17.6033647  73.3829970  69.5585603  14.5302510  72.3876554  69.4359175
  14.1921022  72.2717619  68.5479710  15.3992278  71.9867719  69.4160181
  12.2310790  71.1564801  58.7676115  12.4836310  70.6346322  58.0059578
  11.2935349  70.9930947  58.8702799  17.2754072  70.1600580  66.5750858
  18.0617162  69.7420003  66.2241275  17.5392777  71.0646672  66.7432507
  17.4464150  75.5973430  61.2739515  16.8109983  75.6708056  61.9860420
  17.1161556  76.1867029  60.5958594  22.6762500  70.0975813  67.4783837
  23.4087671  69.5275030  67.7121666  21.9201855  69.7097413  67.9190343
  11.9507078  73.0592907  60.9700490  11.8343336  72.3837811  61.6381574
  12.0609338  72.5725281  60.1532643  14.2938619  72.5203054  64.6747179
  13.9296826  71.9933675  65.3860101  15.1505735  72.1301523  64.5013665
  20.1987920  63.8097387  71.9378446  19.8671245  64.6792798  71.7139661
  19.6033533  63.4933671  72.6172476  13.9344106  67.5492954  59.6708528
  14.1018509  68.4173190  60.0378999  13.7441275  67.7120236  58.7469817
  20.0916583  68.5292473  69.0171796  19.1833461  68.4607881  68.7230557
  20.0404179  69.0064418  69.8453621  13.9133327  70.0050611  60.6555195
  13.7932952  70.4507662  61.4940675  13.2185915  70.3535929  60.0968733
  21.9578230  66.7308911  70.7949669  21.3152610  67.0241445  70.1489464
  21.4533158  66.6161832  71.6002866  19.6118393  70.4772085  61.4835529
  20.5236249  70.7099471  61.3083226  19.1028040  71.0609129  60.9210607
  18.2187976  75.4597903  68.8749110  17.5896838  75.6243617  68.1725178
  17.8313638  75.8739513  69.6460074  22.0977207  76.3952341  66.2293474
  21.4128246  76.7751242  65.6790507  22.1821057  77.0047668  66.9625422
  16.9554368  66.6530121  69.7325390  16.0938847  66.9511374  70.0242127
  16.9816803  66.8700520  68.8006422  13.7715937  75.1972311  66.1399195
  14.2354283  75.4760014  65.3503818  13.5072736  74.2955756  65.9572286
  12.7084824  71.3195464  62.9488760  13.4108867  71.7716507  63.4162687
  12.3765452  70.6779282  63.5768654  28.5579960  73.2623004  67.3496146
  27.8043668  72.6930402  67.1940151  28.6927501  73.2285668  68.2966781
  17.2971052  61.6566968  71.5549759  16.9535321  62.5468610  71.4788870
  17.6650014  61.4668626  70.6919344  17.2621334  71.6475579  60.0622194
  16.7467958  72.4180184  60.3010582  16.9898643  70.9740715  60.6855256
  14.8468445  66.4925280  65.1207433  13.9910042  66.1032130  64.9413071
  15.2595397  66.5717241  64.2607218  16.3767592  64.0271623  69.5198992
  15.8732388  63.9901758  68.7066798  16.6698199  64.9364366  69.5795649
  12.6210478  64.1110353  68.5265174  13.4863475  63.9153162  68.1671064
  12.6887987  63.8820705  69.4534531  22.2355609  74.4007934  61.9975368
  21.4585051  74.0619093  61.5530530  22.9147090  74.4060557  61.3230333
  17.0507638  69.5202671  61.8881975  16.7457773  69.8348820  62.7392119
  18.0038080  69.5984091  61.9309308  20.4746915  73.8741915  68.6541976
  19.8170590  74.5641176  68.7422104  21.2787315  74.2638347  68.9975962
  10.2272797  66.3412561  65.8981541  10.8016549  66.1187742  65.1654734
  10.8143779  66.4101255  66.6510142  19.2852374  72.2286288  66.7045917
  19.7984256  72.8616280  67.2067627  19.9353598  71.6287483  66.3389277
  10.5542384  68.3717022  59.9177426   9.7179696  68.7091708  60.2386701
  10.4147154  68.2366002  58.9804563  12.5295465  63.2153810  64.6256610
  11.8759877  62.9002827  64.0013225  12.4875939  62.5929550  65.3516433
  13.6406670  73.4973105  56.5409902  12.7333731  73.2662358  56.7401051
  14.1377702  72.7010724  56.7283884  15.7633205  69.7035743  68.9504258
  14.8455766  69.9250690  68.7925946  16.1793349  69.7782054  68.0915965
  16.5468253  71.1027159  64.0806938  17.2940072  71.6148556  63.7714060
  16.8159842  70.7811212  64.9411332  14.8194903  73.5985700  61.0633893
  13.9106122  73.3144733  61.1606362  14.8489987  74.0184778  60.2037199
  20.0514170  77.2092289  64.8325060  19.5976498  76.3683199  64.8890251
  19.4208137  77.8453688  65.1699840  18.9947090  68.1384275  66.0625728
  18.2569847  67.6261661  66.3935970  19.2473864  67.6984657  65.2509004
  19.0958717  60.9160527  66.6567497  19.4017594  60.0557891  66.3693412
  19.8211322  61.5078147  66.4566491  13.3679797  71.2114320  67.1643688
  13.4228407  70.2588157  67.0886164  12.5570999  71.3673759  67.6484986
  14.5170991  75.1394443  58.4021971  14.0790421  74.4230302  57.9427608
  15.2581432  75.3670558  57.8407063  11.3072157  69.8291380  64.9234067
  10.4940023  70.1285551  65.3299259  11.8031151  69.4347069  65.6408549
  22.6344106  73.4151640  64.4598290  22.4962004  73.6053236  63.5319479
  22.2780324  74.1771023  64.9166341  22.6613485  75.4828167  69.4709561
  23.0949992  75.3903457  70.3192615  23.3745066  75.4585668  68.8329577
   7.8829299  70.8455248  62.7290047   6.9526887  70.7839703  62.9460009
   7.9786771  70.3231201  61.9326688   7.8014848  67.3710061  65.3168289
   8.0621665  68.2855394  65.2077449   8.6232021  66.9034503  65.4664901
  23.5229035  75.5251868  72.0042447  23.7164925  76.4297679  72.2501722
  23.4229653  75.0659287  72.8381032  18.6382218  73.9978825  57.9954029
  18.0211389  73.2725653  57.8987081  18.1698707  74.7588185  57.6521103
  10.4280764  68.2164249  57.1175333   9.5510231  68.0953050  56.7537580
  10.9038517  67.4250328  56.8654222  16.9241341  66.3785169  67.0072059
  17.4210040  65.6255131  66.6873129  16.1528322  66.4149486  66.4415268
  24.7771098  72.0825535  68.6490350  24.7660974  72.9650250  68.2784283
  23.9088477  71.7297086  68.4544887  18.0071121  75.1356856  64.5810482
  17.0727400  75.2558319  64.4115187  18.1847790  74.2329323  64.3170492
  13.5076309  68.5202552  66.7343743  13.1374097  67.9673593  67.4224649
  14.0035402  67.9160686  66.1818744  21.3943673  70.9774176  65.1160516
  21.8604125  71.8102167  65.0420819  21.8451173  70.5119157  65.8205775
  19.4619904  77.3217997  62.1146668  19.7379748  77.2074592  63.0240543
  18.5924402  76.9235482  62.0758842  19.3660335  63.3454763  69.1551418
  18.4523415  63.5758989  69.3233625  19.7953437  63.4293207  70.0065450
  19.1366794  71.5344655  71.6551312  18.4838244  71.7820562  71.0003765
  19.5147174  70.7208793  71.3213789   5.1559458  69.8106105  62.5588239
   5.4512899  68.9016783  62.5055292   4.2547494  69.7893844  62.2369241
   6.8847300  67.4920202  62.6827564   6.5560006  66.6117581  62.5002670
   7.2386670  67.4367871  63.5703953   9.9989123  67.7793172  63.0503041
  10.3385195  68.3079093  62.3281650  10.4461243  68.1173578  63.8261608
  13.3449036  63.2479535  70.9533433  14.1675105  62.7740013  70.8312323
  13.5887099  64.0270019  71.4532119  11.9857270  66.2767794  61.2496334
  12.7065633  66.6549046  60.7460051  11.3622574  66.9956670  61.3531312
  16.1288393  66.9812943  62.1854667  16.3452007  67.8637580  61.8843495
  15.6482460  66.5899156  61.4560309  12.7283997  66.9301204  68.8106301
  12.7145566  66.0342297  68.4738599  13.4456425  66.9371868  69.4444587
  14.5810128  67.3638544  70.8559428  14.3227906  68.2855615  70.8543759
  14.0495168  66.9668979  71.5459892  12.1320893  65.8115584  64.0793871
  12.2536804  64.8832230  64.2784758  11.8422936  65.8254270  63.1672186
  15.0012084  63.4970495  67.2160591  15.0233780  63.5609828  66.2612570
  15.4180143  62.6575003  67.4101097  25.3795708  73.2325754  65.2539813
  25.8226854  72.4833079  64.8558937  24.5022218  73.2235890  64.8713545
  22.4122912  77.2355801  62.2633743  22.9374236  77.5743074  61.5383063
  22.3245265  76.3002816  62.0796877  24.9228573  74.7030992  67.6462261
  25.7575464  75.1420796  67.8099821  25.0587701  74.2269646  66.8270507
  21.9720079  72.2610727  73.5939749  22.4474200  72.4538374  72.7858600
  21.0485644  72.3169913  73.3483132   8.8603585  73.4234894  63.1770827
   8.6149627  72.5197224  63.3751037   9.0299500  73.4252045  62.2350305
  16.5500295  64.2958571  72.5595583  17.0682239  65.0319598  72.2342071
  16.1955428  64.6022564  73.3942342   8.1299233  69.1563252  60.6756988
   7.4368478  69.2307607  60.0197024   7.8850985  68.3923596  61.1978505
  16.8012889  60.7158853  68.0796479  17.0814643  60.0482042  68.7056906
  17.5863496  60.9087949  67.5671143  20.6721748  69.1376487  71.8268054
  21.6239170  69.2374585  71.8480278  20.5025198  68.3454756  72.3366139
  18.6936127  66.2232071  72.0127455  18.0986059  66.5037083  71.3173944
  18.4085824  66.7125971  72.7844196  23.1509825  72.3582607  70.9410354
  23.1186145  71.4198608  71.1270038  23.7610449  72.4366644  70.2076179
  14.9893156  71.2278660  56.9837558  15.9352261  71.0984868  57.0525976
  14.6107401  70.4893322  57.4606986  23.3004314  69.1493650  70.9868637
  22.7843362  68.3652107  70.7998566  24.1844262  68.8212367  71.1515157
  20.9615041  62.8934666  66.9464450  20.7639862  62.5849754  67.8307782
  21.5714746  63.6196305  67.0762380  28.9686375  73.4198614  70.0816391
  29.6989764  73.1583902  70.6424094  28.3593321  72.6827336  70.1218459
  27.0501672  71.5606476  70.6790842  26.3234836  71.4262441  70.0707333
  26.6348959  71.8683305  71.4847560  13.1736073  69.1528636  56.9192443
  12.2667529  68.8561749  56.9955157  13.4512054  68.8558454  56.0526729
  14.7898139  63.6965526  63.0736684  13.9798867  63.3512611  63.4491931
  15.4782556  63.3873070  63.6624296  16.7188687  62.7743573  64.6960981
  17.2719726  63.1939026  65.3551004  16.9558774  61.8479321  64.7383937
  11.9434858  66.0115572  57.0604422  12.8054022  66.3370470  57.3200240
  12.1285202  65.2247067  56.5477488  20.0967494  64.8844098  64.2039645
  19.5166163  65.5428902  63.8217698  19.8303427  64.0621443  63.7927063
  18.5471061  64.2849156  66.4060966  19.0470839  64.3965690  65.5975284
  19.1906669  63.9810209  67.0461774  18.8792372  67.0444188  63.2595994
  17.9918227  67.3293839  63.0416188  19.2946362  66.8837952  62.4123270
  22.2306909  67.0690709  66.9750333  23.0067299  67.5587162  67.2474950
  21.5055043  67.4948764  67.4322202  24.6679467  67.7818329  68.0324273
  25.2623958  67.5414065  67.3217582  24.7406051  67.0625459  68.6597810
  18.8533396  72.5598724  63.4746284  18.7968598  73.0167276  62.6353916
  19.4061739  71.7989409  63.2969127  22.6638202  68.3488456  64.2996403
  22.4075136  67.9485092  65.1304611  22.0391070  69.0632250  64.1746542
  26.9750540  71.0884529  66.8067695  26.4150098  71.1577719  67.5799257
  26.3694043  70.9125514  66.0867191  19.9322283  77.2471392  59.4042474
  20.7667887  76.8152591  59.2219948  19.7706626  77.0753406  60.3319368
  19.5868175  73.7503506  60.7698813  19.5316979  73.5847777  59.8287257
  18.9614231  74.4579539  60.9261003  12.8964301  63.2511615  60.3484131
  12.8842971  64.1953455  60.5052402  13.7887723  63.0681760  60.0543593
  16.7116420  59.8454391  64.6030068  15.9448816  59.2912878  64.7486750
  17.1227125  59.9176260  65.4644220  31.0381674  79.1389305  71.9378446
  30.7064999  80.0084716  71.7139661  30.4427288  78.8225589  72.6172476
  32.7971984  82.0600829  70.7949669  32.1546364  82.3533362  70.1489464
  32.2926913  81.9453749  71.6002866  28.1364806  76.9858886  71.5549759
  27.7929076  77.8760527  71.4788870  28.5043769  76.7960543  70.6919344
  27.2161347  79.3563541  69.5198992  26.7126142  79.3193676  68.7066798
  27.5091953  80.2656284  69.5795649  23.3689219  78.5445727  64.6256610
  22.7153632  78.2294745  64.0013225  23.3269693  77.9221468  65.3516433
  29.9352472  76.2452445  66.6567497  30.2411349  75.3849808  66.3693412
  30.6605077  76.8370065  66.4566491  30.2054090  78.6746680  69.1551418
  29.2917170  78.9050907  69.3233625  30.6347191  78.7585124  70.0065450
  24.1842790  78.5771453  70.9533433  25.0068859  78.1031931  70.8312323
  24.4280854  79.3561937  71.4532119  25.8405838  78.8262412  67.2160591
  25.8627535  78.8901745  66.2612570  26.2573897  77.9866921  67.4101097
  27.3894049  79.6250488  72.5595583  27.9075993  80.3611515  72.2342071
  27.0349182  79.9314482  73.3942342  27.6406644  76.0450771  68.0796479
  27.9208397  75.3773960  68.7056906  28.4257251  76.2379867  67.5671143
  31.8008795  78.2226584  66.9464450  31.6033616  77.9141672  67.8307782
  32.4108501  78.9488223  67.0762380  25.6291894  79.0257444  63.0736684
  24.8192622  78.6804529  63.4491931  26.3176310  78.7164987  63.6624296
  27.5582442  78.1035491  64.6960981  28.1113480  78.5230944  65.3551004
  27.7952528  77.1771239  64.7383937  30.9361249  80.2136016  64.2039645
  30.3559918  80.8720820  63.8217698  30.6697182  79.3913360  63.7927063
  29.3864815  79.6141073  66.4060966  29.8864594  79.7257608  65.5975284
  30.0300423  79.3102126  67.0461774  35.5073222  83.1110246  68.0324273
  36.1017712  82.8705982  67.3217582  35.5799805  82.3917377  68.6597810
  27.5510175  75.1746309  64.6030068  26.7842571  74.6204796  64.7486750
  27.9620880  75.2468178  65.4644220   6.8792452  19.6101291  54.0741453
   6.1256161  19.0408689  53.9185457   7.0139994  19.5763956  55.0212088
   0.9556598  19.7629928  51.1843596   0.8174497  19.9531524  50.2564786
   0.5992817  20.5249310  51.6411647   0.9825978  21.8306455  56.1954868
   1.4162484  21.7381744  57.0437922   1.6957558  21.8063955  55.5574884
   1.8441527  21.8730155  58.7287753   2.0377417  22.7775966  58.9747028
   1.7442145  21.4137574  59.5626338   3.0983590  18.4303822  55.3735657
   3.0873466  19.3128537  55.0029590   2.2300970  18.0775373  55.1790194
   3.7008200  19.5804041  51.9785120   4.1439346  18.8311367  51.5804243
   2.8234710  19.5714178  51.5958852   0.7335405  23.5834088  48.9879049
   1.2586729  23.9221361  48.2628369   0.6457757  22.6481104  48.8042184
   0.5427186  21.0659458  61.6062976   0.5925191  20.9009466  62.5478499
   0.4341109  20.1986717  61.2160856   2.0445383  23.4856400  61.8504997
   1.7530191  23.8486380  62.6868458   1.4317514  22.7723408  61.6718329
   3.2441065  21.0509280  54.3707567   4.0787956  21.4899084  54.5345128
   3.3800194  20.5747933  53.5515813   1.4722318  18.7060894  57.6655660
   1.4398638  17.7676895  57.8515344   2.0822941  18.7844931  56.9321485
   1.6216806  15.4971938  57.7113944   1.1055855  14.7130394  57.5243873
   2.5056755  15.1690654  57.8760463   7.2898867  19.7676901  56.8061697
   8.0202256  19.5062189  57.3669401   6.6805813  19.0305623  56.8463765
   5.3714165  17.9084764  57.4036148   4.6447328  17.7740729  56.7952640
   4.9561451  18.2161592  58.2092867   2.9891959  14.1296616  54.7569580
   3.5836450  13.8892352  54.0462888   3.0618543  13.4103746  55.3843116
   0.9850694  14.6966743  51.0241710   0.7287629  14.2963379  51.8549918
   0.3603562  15.4110537  50.8991849   5.2963032  17.4362817  53.5313001
   4.7362590  17.5056006  54.3044563   4.6906536  17.2603801  52.8112498
   6.8819051  34.1119331  56.2242957   7.5197461  33.9926078  55.5206297
   6.7639894  35.0600175  56.2830909   3.6908757  34.0646759  56.1604482
   3.3527268  33.9487823  55.2725017   4.5598525  33.6637924  56.1405488
   4.1728540  35.2181610  62.1190687   4.1617181  34.8234409  61.2471191
   4.3349179  34.4847683  62.7124459   5.1295131  39.5853203  47.4615838
   4.4783111  40.1707283  47.0749851   5.9239494  40.1159398  47.5210875
   0.8935801  38.0018722  61.0669871   0.6025667  38.9064353  60.9516538
   1.5292785  38.0435250  61.7813941   1.8192008  35.3795571  57.6571231
   2.4155580  35.1551593  56.9428194   1.8766979  34.6380316  58.2596679
   1.3917036  32.8335006  45.4921422   1.6442557  32.3116527  44.7304885
   0.4541595  32.6701152  45.5948105   6.4360319  31.8370784  53.2996165
   7.2223408  31.4190208  52.9486582   6.6999023  32.7416877  53.4677813
   6.6070397  37.2743635  47.9984822   5.9716229  37.3478261  48.7105726
   6.2767803  37.8637234  47.3203901  11.8368746  31.7746018  54.2029144
  12.5693918  31.2045235  54.4366973  11.0808102  31.3867618  54.6435649
   1.1113325  34.7363112  47.6945797   0.9949583  34.0608015  48.3626881
   1.2215585  34.2495486  46.8777950   3.4544866  34.1973259  51.3992486
   3.0903073  33.6703880  52.1105407   4.3111982  33.8071728  51.2258971
   9.3594167  25.4867592  58.6623752   9.0277491  26.3563003  58.4384967
   8.7639780  25.1703876  59.3417783   3.0950353  29.2263159  46.3953835
   3.2624755  30.0943395  46.7624306   2.9047522  29.3890441  45.4715124
   5.8525686  37.6880138  58.0619665   5.5526409  38.5905177  57.9535472
   5.5076746  37.4212321  58.9140818   9.2522830  30.2062678  55.7417102
   8.3439707  30.1378086  55.4475863   9.2010426  30.6834623  56.5698928
   3.0739574  31.6820816  47.3800501   2.9539199  32.1277867  48.2185982
   2.3792162  32.0306134  46.8214039   3.3263696  31.6252324  63.6851999
   2.5497030  32.1846244  63.6754864   3.9654259  32.1109107  64.2066870
  11.1184476  28.4079116  57.5194976  10.4758857  28.7011650  56.8734771
  10.6139405  28.2932037  58.3248173   8.7724640  32.1542290  48.2080835
   9.6842496  32.3869676  48.0328533   8.2634287  32.7379334  47.6455914
   1.5810068  34.4337777  63.2469966   2.3224752  34.9722821  62.9704790
   0.8747054  35.0604066  63.4041518   7.0565408  36.5766917  61.8442128
   7.4648764  36.1349328  61.0996760   6.3342669  36.0019545  62.0976321
   3.4096478  31.5139524  59.2175685   4.2557673  31.9378938  59.3610334
   3.3495115  30.8573148  59.9114248   7.3794222  37.1368108  55.5994417
   6.7503085  37.3013822  54.8970485   6.9919884  37.5509718  56.3705381
  11.2583454  38.0722546  52.9538781  10.5734492  38.4521447  52.4035814
  11.3427304  38.6817873  53.6870728   6.5595923  29.1743893  60.8756859
   6.3156855  29.9285953  60.3391134   6.8355854  29.5529240  61.7104106
   8.5134386  35.7182505  59.5534124   8.7251281  36.3614265  58.8768505
   8.4664134  34.8844821  59.0856054   6.1160615  28.3300326  56.4570696
   5.2545094  28.6281579  56.7487434   6.1423049  28.5470724  55.5251729
   2.9322184  36.8742516  52.8644502   3.3960530  37.1530219  52.0749124
   2.6678982  35.9725961  52.6817593   1.8691070  32.9965668  49.6734067
   2.5715114  33.4486712  50.1407993   1.5371699  32.3549487  50.3013960
   9.6280214  38.5954460  57.7256481  10.4497658  38.1934648  57.4439163
   9.6242617  38.4922694  58.6772597   3.3936817  38.1438504  59.8817192
   3.4581250  38.6058911  60.7175364   2.6847741  37.5135869  60.0099502
   3.1084835  39.8106611  49.7496172   2.9730510  40.6558147  50.1781020
   3.6494647  40.0125889  48.9862106   2.5120136  27.3056070  64.0030784
   3.2529849  27.9063223  63.9235247   2.7438058  26.5633708  63.4448827
   4.7353311  40.4330178  63.8796514   4.2917165  39.6466556  63.5617419
   5.3970525  40.6209328  63.2140405   6.8334549  40.7132978  61.9077916
   6.8153025  41.5341859  61.4158185   7.7554469  40.5887053  62.1328057
   3.2907604  38.2277107  62.7501424   3.8235940  37.4665395  62.5200732
   2.7621685  37.9350759  63.4925579   6.4577298  23.3337173  58.2795066
   6.1141568  24.2238815  58.2034176   6.8256261  23.1438831  57.4164651
   6.4227581  33.3245784  46.7867501   5.9074205  34.0950389  47.0255888
   6.1504890  32.6510920  47.4100562   4.0074692  28.1695485  51.8452739
   3.1516289  27.7802335  51.6658378   4.4201644  28.2487446  50.9852525
   5.5373839  25.7041828  56.2444299   5.0338634  25.6671963  55.4312104
   5.8304446  26.6134571  56.3040956   1.7816725  25.7880558  55.2510481
   2.6469722  25.5923367  54.8916370   1.8494234  25.5590910  56.1779838
  11.3961855  36.0778139  48.7220674  10.6191298  35.7389298  48.2775836
  12.0753336  36.0830762  48.0475639   6.2113884  31.1972876  48.6127282
   5.9064020  31.5119025  49.4637425   7.1644326  31.2754296  48.6554615
   4.6560316  37.3563100  50.2620236   4.1281678  36.6215859  49.9493474
   4.1547819  38.1337776  50.0160204   9.6353162  35.5512120  55.3787282
   8.9776837  36.2411381  55.4667411  10.4393561  35.9408552  55.7221269
   8.4458621  33.9056493  53.4291224   8.9590503  34.5386485  53.9312934
   9.0959845  33.3057688  53.0634584   1.6901712  24.8924015  51.3501917
   1.0366124  24.5773032  50.7258532   1.6482186  24.2699755  52.0761740
   2.8012916  35.1743310  43.2655209   1.8939978  34.9432563  43.4646358
   3.2983948  34.3780929  43.4529191   5.7080995  43.8840817  46.1851895
   5.0342694  44.1872514  46.7936853   6.0946817  44.6869897  45.8357352
   4.9239452  31.3805948  55.6749565   4.0062013  31.6020895  55.5171253
   5.3399596  31.4552259  54.8161272   5.7074500  32.7797364  50.8052245
   6.4546319  33.2918761  50.4959367   5.9766089  32.4581417  51.6656638
   3.9801150  35.2755905  47.7879199   3.0712369  34.9914937  47.8851669
   4.0096234  35.6954983  46.9282506   9.2120417  38.8862494  51.5570367
   8.7582744  38.0453404  51.6135557   8.5814384  39.5223893  51.8945147
   8.1553337  29.8154480  52.7871034   7.4176094  29.3031866  53.1181277
   8.4080110  29.3754862  51.9754311   7.6553356  40.7238991  52.4920185
   7.9476331  41.2844048  51.7732551   8.1651977  41.0167552  53.2473344
   8.2564964  22.5930732  53.3812803   8.5623841  21.7328096  53.0938719
   8.9817569  23.1848352  53.1811797   2.5286044  32.8884525  53.8888995
   2.5834654  31.9358362  53.8131471   1.7177246  33.0443964  54.3730293
   3.6777238  36.8164648  45.1267278   3.2396668  36.1000507  44.6672915
   4.4187678  37.0440763  44.5652369   2.6186982  41.5019342  53.5813638
   2.5763160  41.7280188  52.6522170   3.5349681  41.2682716  53.7299439
   6.0652615  31.9703409  60.4794267   6.4202003  32.1974883  61.3388733
   6.7124747  32.3021786  59.8571523  11.7950352  35.0921845  51.1843596
  11.6568251  35.2823441  50.2564786  11.4386571  35.8541228  51.6411647
   5.5547627  40.7600466  57.7287968   5.6084649  41.3291403  58.4965684
   4.6862408  40.9302351  57.3642006  12.6835282  37.2022073  58.7287753
  12.8771172  38.1067884  58.9747028  12.5835900  36.7429492  59.5626338
   4.3371592  27.0879964  61.2278081   3.6899507  27.7869913  61.1342557
   5.1072608  27.5216108  61.5954329   7.7450390  37.3528816  64.3028634
   7.5935897  37.1239367  63.3858718   7.7355070  38.3099417  64.3159979
   4.5135727  34.9260728  59.2874900   5.4427787  35.0771888  59.1143868
   4.0926757  35.0144749  58.4323547   3.3124058  38.9511393  57.0573438
   3.1735144  38.5830177  57.9299376   2.5238655  39.4659032  56.8857396
   3.9072210  44.0520489  48.3998974   4.0823966  43.5808533  49.2144597
   3.2204998  44.6786256  48.6280235   4.8629274  38.3292996  54.4462276
   4.5279106  38.2893766  55.3419926   4.3633219  37.6637712  53.9732686
   7.7988465  35.6749030  44.7199335   7.1817636  34.9495858  44.6232388
   7.3304954  36.4358390  44.3766410   1.4655818  33.4480585  59.4598537
   2.1755437  32.8073777  59.4185155   1.4225126  33.6993480  60.3824717
   9.4542597  40.3847938  62.3805116   9.3955143  39.7007158  61.7135699
   9.8562115  41.1266928  61.9285742   9.4560004  38.3487522  60.6119095
   8.5686783  38.0113444  60.7345494  10.0258555  37.6170553  60.8487861
   2.9861158  43.0088975  57.5780339   2.9131329  43.8143946  58.0899643
   2.5438551  43.2080940  56.7528360   2.7750937  42.2460745  51.0883160
   1.9918459  42.7882425  51.1821385   3.4743682  42.7634724  51.4877401
   6.0847587  28.0555374  53.7317366   6.5816287  27.3025336  53.4118436
   5.3134569  28.0919691  53.1660575  13.9377345  33.7595740  55.3735657
  13.9267221  34.6420455  55.0029590  13.0694724  33.4067290  55.1790194
   5.4459841  42.9075809  59.7338497   6.1587813  43.5423273  59.6614399
   4.9549870  43.0039675  58.9178499   7.1677368  36.8127061  51.3055789
   6.2333647  36.9328524  51.1360493   7.3454036  35.9099528  51.0415799
   2.6682556  30.1972757  53.4589050   2.2980344  29.6443797  54.1469956
   3.1641648  29.5930891  52.9064050  10.5549919  32.6544381  51.8405823
  11.0210372  33.4872372  51.7666126  11.0057420  32.1889362  52.5451082
   8.6226150  38.9988202  48.8391975   8.8985994  38.8844796  49.7485849
   7.7530649  38.6005687  48.8004148   8.5266582  25.0224968  55.8796724
   7.6129662  25.2529194  56.0478931   8.9559684  25.1063412  56.7310757
   8.2973041  33.2114860  58.3796618   7.6444491  33.4590767  57.7249071
   8.6753420  32.3978998  58.0459096   5.2580214  43.2474553  52.4824789
   5.4402609  42.4296209  52.9452541   6.0813200  43.4642245  52.0449679
   5.5922380  42.1742738  49.7439837   6.1210146  41.6635192  49.1309999
   5.8550600  41.8585268  50.6085370   4.3460614  33.9534671  64.8662656
   3.6701251  33.8528800  65.5365031   5.1688247  33.7973884  65.3298653
   3.0883396  45.2601598  59.1020271   3.6401705  45.4233220  59.8669357
   3.4289590  45.8506036  58.4300296   7.9394271  40.0862856  64.9568926
   8.4834175  40.6992814  64.4623881   7.3581116  40.6442434  65.4735939
   6.2251784  43.2083574  56.0883954   6.1002923  42.4073313  55.5794899
   6.8830875  43.7029767  55.5997924   8.2886692  41.0092594  57.7163504
   7.3417028  40.8897945  57.6441830   8.6369465  40.1215092  57.7989765
   0.6486266  26.8986733  61.5401746   1.1720667  27.1449029  62.3028055
   0.4298599  27.7306767  61.1204883   5.2933125  40.8045310  53.9167856
   5.1458088  39.8762017  54.0975426   6.1186619  40.8265401  53.4324931
   8.8967247  41.6273869  55.0032729   9.8213795  41.4216730  54.8657180
   8.7282551  41.3790270  55.9122070   1.8538811  27.8400428  59.2251416
   1.5135631  27.0408241  59.6272096   1.1477817  28.1402139  58.6528249
   2.5055282  24.9249740  57.6778739   3.3281352  24.4510218  57.5557630
   2.7493346  25.7040224  58.1777425   1.1463517  27.9537999  47.9741641
   1.8671879  28.3319251  47.4705358   0.5228821  28.6726875  48.0776619
   5.2894640  28.6583148  48.9099973   5.5058254  29.5407785  48.6088801
   4.8088707  28.2669361  48.1805615   1.8890244  28.6071409  55.5351607
   1.8751813  27.7112502  55.1983905   2.6062672  28.6142072  56.1689893
   3.7416375  29.0408749  57.5804735   3.4834153  29.9625820  57.5789065
   3.2101415  28.6439183  58.2705199   8.6862563  42.1459536  50.3594820
   8.8599441  41.5805959  49.6068673   9.1791455  42.9460431  50.1774310
   1.2927140  27.4885789  50.8039177   1.4143051  26.5602435  51.0030065
   1.0029182  27.5024475  49.8917493   4.1618330  25.1740699  53.9405897
   4.1840027  25.2380033  52.9857877   4.5786389  24.3345208  54.1346404
  14.5401955  34.9095959  51.9785120  14.9833101  34.1603284  51.5804243
  13.6628465  34.9006095  51.5958852   9.6737736  41.4626300  47.4591718
  10.3688641  42.0832993  47.6779033  10.0160886  40.6121652  47.7344096
  11.5729159  38.9126006  48.9879049  12.0980483  39.2513279  48.2628369
  11.4851512  37.9773021  48.8042184   3.2349208  42.8260080  61.1168926
   3.5436334  42.5809226  61.9891625   4.0324690  43.0306718  60.6287796
   3.2569820  44.9797989  53.3474302   2.8174810  44.4874368  54.0407159
   4.0077937  44.4370957  53.1066378   0.7768219  29.0017786  65.0129110
   0.8256375  29.8779909  64.6306880   1.3190734  28.4595179  64.4400753
  11.2623065  39.5458910  64.2930247  10.4718609  39.5283048  63.7534747
  11.0256420  40.0847203  65.0479284  11.3820940  36.3951376  61.6062976
  11.4318945  36.2301383  62.5478499  11.2734864  35.5278635  61.2160856
   8.6724703  32.3782304  62.9222282   9.5734565  32.2388769  62.6306280
   8.7472677  32.5436759  63.8620460   3.0067508  29.7549159  61.7675469
   2.1370817  30.0482725  61.4958057   3.2426988  30.3389604  62.4882732
  12.8839137  38.8148318  61.8504997  12.5923945  39.1778298  62.6868458
  12.2711268  38.1015326  61.6718329  14.0834819  36.3801197  54.3707567
  14.9181711  36.8191001  54.5345128  14.2193948  35.9039851  53.5515813
  11.1326325  33.9380932  60.3185055  11.6080447  34.1308578  59.5103907
  10.2091891  33.9940118  60.0728439   5.7106542  25.9728776  59.2840889
   6.2288486  26.7089803  58.9587378   5.3561675  26.2792769  60.1187648
   5.9619136  22.3929058  54.8041786   6.2420890  21.7252247  55.4302212
   6.7469743  22.5858154  54.2916450   3.7652604  41.5688052  46.3666812
   3.1926572  42.1878239  45.9137284   4.3385398  42.1187414  46.9006734
   9.8327994  30.8146692  58.5513361  10.7845417  30.9144790  58.5725585
   9.6631445  30.0224961  59.0611445   7.8542374  27.9002275  58.7372762
   7.2592306  28.1807288  58.0419250   7.5692070  28.3896176  59.5089503
   6.9849864  41.8525202  47.4975394   7.9180537  41.7870764  47.7008270
   6.8973077  42.6881469  47.0389927   9.6137881  41.1691073  44.4579342
   9.5351512  40.8350936  45.3515100  10.4347548  41.6612841  44.4570814
  12.3116072  34.0352812  57.6655660  12.2792392  33.0968813  57.8515344
  12.9216696  34.1136849  56.9321485   4.1499403  32.9048865  43.7082865
   5.0958508  32.7755073  43.7771283   3.7713648  32.1663527  44.1852293
  12.4610561  30.8263855  57.7113944  11.9449609  30.0422312  57.5243873
  13.3450509  30.4982572  57.8760463  10.1221287  24.5704871  53.6709756
   9.9246109  24.2619959  54.5553088  10.7320993  25.2966510  53.8007686
  16.2107919  33.2376681  57.4036148  15.4841083  33.1032646  56.7952640
  15.7955206  33.5453510  58.2092867   4.0338095  36.9566611  65.1683522
   4.9541105  37.1345210  65.3623568   3.9987679  36.0122656  65.0163221
   2.3342320  30.8298841  43.6437750   1.4273775  30.5331954  43.7200463
   2.6118301  30.5328659  42.7772036   3.9504386  25.3735731  49.7981991
   3.1405114  25.0282816  50.1737237   4.6388803  25.0643275  50.3869603
   5.8794934  24.4513778  51.4206288   6.4325973  24.8709231  52.0796311
   6.1165020  23.5249526  51.4629244   1.9028033  30.4400851  67.2009052
   1.8024760  31.3895208  67.1321143   1.6849575  30.1119090  66.3285122
   1.1041105  27.6885776  43.7849729   1.9660269  28.0140675  44.0445546
   1.2891449  26.9017272  43.2722795   9.2573741  26.5614303  50.9284952
   8.6772410  27.2199107  50.5463004   8.9909674  25.7391648  50.5172369
   7.7077308  25.9619361  53.1306272   8.2077086  26.0735895  52.3220591
   8.3512915  25.6580414  53.7707081   1.7659303  33.8697990  66.0174113
   1.2826385  34.6698350  66.2238002   1.8520242  33.8805935  65.0641557
   8.0398619  28.7214393  49.9841300   7.1524474  29.0064044  49.7661495
   8.4552608  28.5608157  49.1368577  11.3913155  28.7460914  53.6995639
  12.1673545  29.2357367  53.9720256  10.6661290  29.1718969  54.1567509
  13.8285714  29.4588534  54.7569580  14.4230205  29.2184269  54.0462888
  13.9012298  28.7395664  55.3843116   7.1841833  38.4859068  44.0789320
   7.8877683  38.6909071  44.6946976   6.4604481  39.0535830  44.3438404
   8.0139643  34.2368929  50.1991590   7.9574844  34.6937481  49.3599223
   8.5667985  33.4759614  50.0214433  11.8244449  30.0258661  51.0241710
  11.5681383  29.6255297  51.8549918  11.1997317  30.7402455  50.8991849
  16.1356787  32.7654734  53.5313001  15.5756345  32.8347924  54.3044563
  15.5300290  32.5895719  52.8112498   9.0928530  38.9241597  46.1287780
   9.9274134  38.4922796  45.9465255   8.9312873  38.7523611  47.0564675
   8.7474422  35.4273711  47.4944120   8.6923226  35.2617982  46.5532564
   8.1220478  36.1349743  47.6506309   6.0620329  37.7322622  66.8197682
   6.9311489  37.9063275  66.4584317   5.5827081  38.5517039  66.6973412
   2.0570548  24.9281820  47.0729438   2.0449218  25.8723659  47.2297709
   2.9493970  24.7451965  46.7788899   1.9860112  43.6050710  55.1597195
   1.0355743  43.6052572  55.0461567   2.2892598  42.8583445  54.6433229
   5.8722667  21.5224596  51.3275375   5.1055063  20.9683083  51.4732057
   6.2833372  21.5946465  52.1889526  17.7212805  49.4411248  56.2242957
  18.3591215  49.3217996  55.5206297  17.6033648  50.3892092  56.2830909
  14.5302511  49.3938676  56.1604482  14.1921023  49.2779741  55.2725017
  15.3992280  48.9929842  56.1405488  10.3889327  51.2474153  52.1501373
   9.8254192  51.1564090  51.3817660  10.2741722  50.4274057  52.6303865
  15.0122294  50.5473528  62.1190687  15.0010935  50.1526326  61.2471191
  15.1742934  49.8139601  62.7124459   7.9353759  52.7425344  54.9885593
   8.7275051  52.4016169  54.5731892   8.1750409  52.8520319  55.9087746
  15.9688886  54.9145121  47.4615838  15.3176866  55.4999201  47.0749851
  16.7633249  55.4451315  47.5210875   9.8944513  52.0034258  47.8602972
  10.6675389  51.4563245  47.7215848  10.2469912  52.8678507  48.0717433
  11.7329556  53.3310640  61.0669871  11.4419422  54.2356271  60.9516538
  12.3686540  53.3727168  61.7813941  12.6585762  50.7087488  57.6571231
  13.2549335  50.4843511  56.9428194  12.7160734  49.9672234  58.2596679
  12.2310791  48.1626924  45.4921422  12.4836312  47.6408445  44.7304885
  11.2935350  47.9993069  45.5948105  17.2754074  47.1662702  53.2996165
  18.0617163  46.7482125  52.9486582  17.5392778  48.0708794  53.4677813
  17.4464151  52.6035552  47.9984822  16.8109984  52.6770179  48.7105726
  17.1161557  53.1929151  47.3203901  22.6762501  47.1037935  54.2029144
  23.4087673  46.5337152  54.4366973  21.9201856  46.7159536  54.6435649
  11.9507080  50.0655030  47.6945797  11.8343338  49.3899933  48.3626881
  12.0609339  49.5787404  46.8777950  14.2938621  49.5265177  51.3992486
  13.9296828  48.9995798  52.1105407  15.1505736  49.1363646  51.2258971
  20.1987921  40.8159509  58.6623752  19.8671246  41.6854920  58.4384967
  19.6033535  40.4995793  59.3417783  13.9344107  44.5555077  46.3953835
  14.1018510  45.4235313  46.7624306  13.7441277  44.7182358  45.4715124
  16.6919441  53.0172055  58.0619665  16.3920164  53.9197094  57.9535472
  16.3470500  52.7504239  58.9140818  10.1431922  49.4685852  54.0956369
   9.2182419  49.3362066  54.3034061  10.3916335  50.2480072  54.5926312
  20.0916584  45.5354596  55.7417102  19.1833462  45.4670004  55.4475863
  20.0404180  46.0126541  56.5698928  13.9133328  47.0112734  47.3800501
  13.7932954  47.4569785  48.2185982  13.2185917  47.3598052  46.8214039
   7.5040733  49.1119126  54.9300158   7.6333114  49.3653605  55.8439570
   6.8238184  49.7046834  54.6104813  11.6740220  59.7816376  51.0290633
  11.5964250  60.7324201  51.1079113  11.0701864  59.4362248  51.6865559
  14.1657450  46.9544241  63.6851999  13.3890784  47.5138161  63.6754864
  14.8048013  47.4401024  64.2066870  21.9578231  43.7371034  57.5194976
  21.3152611  44.0303567  56.8734771  21.4533159  43.6223954  58.3248173
  19.6118395  47.4834207  48.2080835  20.5236251  47.7161594  48.0328533
  19.1028042  48.0671251  47.6455914  12.4203823  49.7629695  63.2469966
  13.1618507  50.3014739  62.9704790  11.7140808  50.3895983  63.4041518
  17.8959162  51.9058835  61.8442128  18.3042518  51.4641246  61.0996760
  17.1736424  51.3311463  62.0976321  14.2490232  46.8431442  59.2175685
  15.0951427  47.2670855  59.3610334  14.1888870  46.1865066  59.9114248
  18.2187977  52.4660026  55.5994417  17.5896839  52.6305740  54.8970485
  17.8313639  52.8801635  56.3705381  22.0977209  53.4014464  52.9538781
  21.4128247  53.7813365  52.4035814  22.1821058  54.0109790  53.6870728
  17.3989678  44.5035810  60.8756859  17.1550609  45.2577871  60.3391134
  17.6749608  44.8821158  61.7104106  19.3528140  51.0474423  59.5534124
  19.5645036  51.6906182  58.8768505  19.3057889  50.2136739  59.0856054
  16.9554369  43.6592243  56.4570696  16.0938848  43.9573497  56.7487434
  16.9816804  43.8762642  55.5251729  13.7715939  52.2034434  52.8644502
  14.2354284  52.4822137  52.0749124  13.5072737  51.3017878  52.6817593
  10.6640020  51.7505915  55.8024265  11.2341377  52.1793184  55.1641750
  11.2548132  51.4688500  56.5008451  12.7084825  48.3257586  49.6734067
  13.4108868  48.7778630  50.1407993  12.3765453  47.6841405  50.3013960
  11.1565186  46.9169343  64.0485276  10.5263847  47.5985624  64.2820673
  11.0501274  46.8052424  63.1038415   6.4510159  46.5841139  54.9751201
   5.6609213  46.8398667  54.4991311   6.9421406  47.3989477  55.0803241
  20.4673968  53.9246378  57.7256481  21.2891412  53.5226565  57.4439163
  20.4636371  53.8214612  58.6772597   8.4024904  46.9485718  51.9334677
   7.6056067  47.0604412  52.4518173   8.1750496  47.2872370  51.0675568
  14.2330572  53.4730421  59.8817192  14.2975004  53.9350829  60.7175364
  13.5241496  52.8427786  60.0099502   4.7347862  46.8371629  57.4066191
   4.9855900  47.7218639  57.6723767   5.2707410  46.6576231  56.6341283
  28.5579961  50.2685126  54.0741453  27.8043670  49.6992525  53.9185457
  28.6927503  50.2347791  55.0212088  13.9478589  55.1398529  49.7496172
  13.8124264  55.9850065  50.1781020  14.4888402  55.3417806  48.9862106
  10.4345929  41.2190109  66.4110528  10.0412875  40.6656307  67.0858172
  11.2512069  41.5300687  66.8017045   7.4007987  52.6573967  50.3224097
   7.9132507  53.4517217  50.4729662   8.0530700  51.9600257  50.2557699
   9.2102871  55.7739723  52.4046851   9.3869500  56.6957688  52.2167834
  10.0059705  55.4598142  52.8341230  13.3513890  42.6347988  64.0030784
  14.0923603  43.2355141  63.9235247  13.5831813  41.8925626  63.4448827
   8.4955228  47.8204355  62.2809014   8.3808743  46.9189612  62.5816113
   7.6399746  48.0668052  61.9293830  15.5747066  55.7622095  63.8796514
  15.1310920  54.9758474  63.5617419  16.2364279  55.9501246  63.2140405
  10.3334187  57.2917897  58.4057193  10.8841612  57.1634960  57.6334187
   9.4945663  57.5912786  58.0552086  17.6728304  56.0424895  61.9077916
  17.6546779  56.8633776  61.4158185  18.5948224  55.9178970  62.1328057
  14.1301358  53.5569025  62.7501424  14.6629695  52.7957313  62.5200732
  13.6015439  53.2642677  63.4925579  17.2971053  38.6629091  58.2795066
  16.9535322  39.5530732  58.2034176  17.6650016  38.4730748  57.4164651
   5.3656904  50.9862621  51.0983668   6.2032126  51.3959629  50.8817376
   5.5435171  50.0462063  51.0683862  17.2621336  48.6537702  46.7867501
  16.7467959  49.4242306  47.0255888  16.9898644  47.9802838  47.4100562
  14.8468447  43.4987403  51.8452739  13.9910043  43.1094253  51.6658378
  15.2595398  43.5779363  50.9852525  16.3767593  41.0333746  56.2444299
  15.8732389  40.9963881  55.4312104  16.6698200  41.9426489  56.3040956
  12.6210479  41.1172476  55.2510481  13.4863476  40.9215284  54.8916370
  12.6887988  40.8882827  56.1779838  22.2355610  51.4070056  48.7220674
  21.4585053  51.0681216  48.2775836  22.9147091  51.4122680  48.0475639
  17.0507639  46.5264794  48.6127282  16.7457774  46.8410943  49.4637425
  18.0038081  46.6046214  48.6554615  15.4954071  52.6855017  50.2620236
  14.9675432  51.9507777  49.9493474  14.9941573  53.4629694  50.0160204
  20.4746917  50.8804038  55.3787282  19.8170591  51.5703299  55.4667411
  21.2787316  51.2700470  55.7221269  10.2272798  43.3474683  52.6226848
  10.8016550  43.1249865  51.8900041  10.8143781  43.4163378  53.3755449
  19.2852376  49.2348410  53.4291224  19.7984257  49.8678402  53.9312934
  19.9353599  48.6349606  53.0634584  10.5542385  45.3779144  46.6422733
   9.7179698  45.7153831  46.9632008  10.4147155  45.2428124  45.7049870
  12.5295466  40.2215932  51.3501917  11.8759878  39.9064950  50.7258532
  12.4875940  39.5991673  52.0761740  13.6406671  50.5035227  43.2655209
  12.7333733  50.2724481  43.4646358  14.1377703  49.7072847  43.4529191
  16.5474750  59.2132735  46.1851895  15.8736449  59.5164431  46.7936853
  16.9340572  60.0161815  45.8357352  15.7633206  46.7097866  55.6749565
  14.8455768  46.9312813  55.5171253  16.1793350  46.7844176  54.8161272
  16.5468254  48.1089282  50.8052245  17.2940073  48.6210679  50.4959367
  16.8159844  47.7873334  51.6656638  14.8194904  50.6047822  47.7879199
  13.9106124  50.3206855  47.8851669  14.8489988  51.0246901  46.9282506
  20.0514172  54.2154412  51.5570367  19.5976499  53.3745322  51.6135557
  19.4208138  54.8515810  51.8945147  18.9947091  45.1446398  52.7871034
  18.2569848  44.6323784  53.1181277  19.2473865  44.7046779  51.9754311
  18.4947111  56.0530909  52.4920185  18.7870085  56.6135966  51.7732551
  19.0045732  56.3459469  53.2473344   5.3883075  48.3253336  51.7694401
   5.1907475  47.7322697  51.0445468   4.8329739  48.0205547  52.4870340
  13.3679798  48.2176443  53.8888995  13.4228408  47.2650279  53.8131471
  12.5571000  48.3735882  54.3730293  14.5170992  52.1456566  45.1267278
  14.0790422  51.4292425  44.6672915  15.2581433  52.3732681  44.5652369
  11.3072158  46.8353503  51.6479373  10.4940024  47.1347673  52.0544566
  11.8031152  46.4409191  52.3653856  13.4580736  56.8311260  53.5813638
  13.4156915  57.0572106  52.6522170  14.3743435  56.5974634  53.7299439
  16.9046370  47.2995327  60.4794267  17.2595758  47.5266800  61.3388733
  17.5518501  47.6313704  59.8571523  22.6344107  50.4213763  51.1843596
  22.4962005  50.6115359  50.2564786  22.2780326  51.1833146  51.6411647
  10.7986233  44.4071858  57.2640608  11.4385612  44.2660617  56.5663572
   9.9663764  44.1206372  56.8879210  22.6613486  52.4890290  56.1954868
  23.0949993  52.3965579  57.0437922  23.3745067  52.4647790  55.5574884
  11.5746537  53.7074289  53.3775601  12.3687135  53.2124609  53.1758176
  10.8638229  53.1792152  53.0143306  16.3941381  56.0892384  57.7287968
  16.4478404  56.6583320  58.4965684  15.5256163  56.2594269  57.3642006
   7.8829300  47.8517370  49.4535353   6.9526888  47.7901826  49.6705316
   7.9786772  47.3293323  48.6571995   7.8014849  44.3772183  52.0413595
   8.0621667  45.2917516  51.9322756   8.6232022  43.9096626  52.1910208
   9.2739775  45.7909940  59.2112420   9.9462828  45.5827302  58.5625069
   8.4469561  45.5932026  58.7717652  23.5229036  52.5313991  58.7287753
  23.7164926  53.4359801  58.9747028  23.4229654  52.0721410  59.5626338
  15.1765347  42.4171881  61.2278081  14.5293262  43.1161831  61.1342557
  15.9466362  42.8508025  61.5954329  18.5844145  52.6820733  64.3028634
  18.4329651  52.4531285  63.3858718  18.5748824  53.6391335  64.3159979
  15.3529481  50.2552646  59.2874900  16.2821541  50.4063806  59.1143868
  14.9320511  50.3436667  58.4323547  14.1517813  54.2803311  57.0573438
  14.0128899  53.9122095  57.9299376  13.3632409  54.7950950  56.8857396
  14.7465965  59.3812407  48.3998974  14.9217721  58.9100450  49.2144597
  14.0598753  60.0078173  48.6280235  15.7023028  53.6584913  54.4462276
  15.3672861  53.6185683  55.3419926  15.2026974  52.9929629  53.9732686
   9.6767272  49.0652543  59.9714857   9.5387070  48.3332782  60.5726396
  10.5872196  48.9761443  59.6899045  18.6382220  51.0040948  44.7199335
  18.0211390  50.2787776  44.6232388  18.1698708  51.7650308  44.3766410
  12.3049573  48.7772503  59.4598537  13.0149191  48.1365695  59.4185155
  12.2618881  49.0285397  60.3824717  20.2936351  55.7139856  62.3805116
  20.2348898  55.0299076  61.7135699  20.6955870  56.4558846  61.9285742
  11.0178507  45.7637721  61.2794176  10.4815864  45.3128459  61.9315772
  10.4295215  45.8983629  60.5364640   9.3127050  62.5301770  55.1738835
   9.5523648  63.1620294  55.8517853   8.4696247  62.1789810  55.4604194
  10.4280766  45.2226372  43.8420640   9.5510232  45.1015173  43.4782886
  10.9038519  44.4312450  43.5899528  20.2953759  53.6779440  60.6119095
  19.4080537  53.3405362  60.7345494  20.8652310  52.9462471  60.8487861
   1.9482906  50.0103532  53.9362147   2.6353946  49.6965262  53.3483162
   1.7931034  50.9144896  53.6629398   6.7517628  44.8993728  58.3647170
   6.6675817  44.2919398  57.6297580   5.9300334  45.3902747  58.3656667
  13.8254912  58.3380892  57.5780339  13.7525084  59.1435864  58.0899643
  13.3832305  58.5372858  56.7528360  13.6144692  57.5752662  51.0883160
  12.8312214  58.1174342  51.1821385  14.3137437  58.0926642  51.4877401
  16.9241342  43.3847292  53.7317366  17.4210041  42.6317254  53.4118436
  16.1528323  43.4211608  53.1660575  24.7771099  49.0887657  55.3735657
  24.7660975  49.9712373  55.0029590  23.9088479  48.7359208  55.1790194
  16.2853596  58.2367726  59.7338497  16.9981568  58.8715191  59.6614399
  15.7943624  58.3331592  58.9178499  18.0071122  52.1418979  51.3055789
  17.0727401  52.2620441  51.1360493  18.1847791  51.2391446  51.0415799
  13.5076311  45.5264675  53.4589050  13.1374098  44.9735715  54.1469956
  14.0035403  44.9222808  52.9064050  21.3943674  47.9836298  51.8405823
  21.8604126  48.8164290  51.7666126  21.8451174  47.5181280  52.5451082
  11.3365509  55.9862170  60.5544068  12.0374969  56.6198653  60.7073462
  10.8660624  56.3276901  59.7939707  19.4619905  54.3280120  48.8391975
  19.7379749  54.2136714  49.7485849  18.5924404  53.9297604  48.8004148
  19.1366795  48.5406777  58.3796618  18.4838245  48.7882685  57.7249071
  19.5147175  47.7270915  58.0459096  16.0973969  58.5766470  52.4824789
  16.2796363  57.7588126  52.9452541  16.9206955  58.7934163  52.0449679
  16.4316134  57.5034656  49.7439837  16.9603901  56.9927110  49.1309999
  16.6944354  57.1877186  50.6085370  15.1854368  49.2826588  64.8662656
  14.5095005  49.1820718  65.5365031  16.0082002  49.1265802  65.3298653
   6.9333227  55.5198525  57.4875171   7.5186664  54.7742213  57.6203075
   6.7358066  55.8302482  58.3711835   9.7871882  58.5549772  52.5037613
   9.1182258  59.0395900  52.0201653   9.6484752  58.8018993  53.4180992
   1.5250882  48.0904125  56.2079614   1.5634981  47.5567716  57.0016732
   1.0191175  47.5639331  55.5890591  13.9277151  60.5893516  59.1020271
  14.4795459  60.7525137  59.8669357  14.2683344  61.1797954  58.4300296
   8.9041644  42.9368666  59.7042156   8.9682971  43.7983496  59.2919554
   8.8408764  42.3242667  58.9714515   8.3793917  45.0091798  63.3515190
   9.0065956  44.6268875  63.9652715   7.5221836  44.7906000  63.7170883
  18.7788025  55.4154773  64.9568926  19.3227929  56.0284732  64.4623881
  18.1974870  55.9734352  65.4735939   5.1559459  46.8168227  49.2833545
   5.4512901  45.9078906  49.2300599   4.2547495  46.7955967  48.9614548
  17.0645538  58.5375491  56.0883954  16.9396678  57.7365231  55.5794899
  17.7224629  59.0321685  55.5997924   8.6853706  44.8924224  55.2661094
   7.9640292  45.5060191  55.1268567   9.4746962  45.4281989  55.1877740
  19.1280447  56.3384511  57.7163504  18.1810782  56.2189863  57.6441830
  19.4763220  55.4507009  57.7989765  11.4880020  42.2278650  61.5401746
  12.0114422  42.4740947  62.3028055  11.2692353  43.0598685  61.1204883
   6.8847301  44.4982325  49.4072870   6.5560007  43.6179704  49.2247976
   7.2386672  44.4429994  50.2949260  16.1326880  56.1337228  53.9167856
  15.9851842  55.2053935  54.0975426  16.9580373  56.1557318  53.4324931
   9.9989124  44.7855295  49.7748348  10.3385197  45.3141216  49.0526956
  10.4461245  45.1235701  50.5506915  19.7361002  56.9565786  55.0032729
  20.6607549  56.7508648  54.8657180  19.5676305  56.7082187  55.9122070
  12.6932565  43.1692345  59.2251416  12.3529385  42.3700158  59.6272096
  11.9871571  43.4694056  58.6528249  13.3449037  40.2541658  57.6778739
  14.1675106  39.7802136  57.5557630  13.5887100  41.0332142  58.1777425
  11.9857271  43.2829916  47.9741641  12.7065634  43.6611169  47.4705358
  11.3622575  44.0018793  48.0776619  16.1288394  43.9875065  48.9099973
  16.3452009  44.8699703  48.6088801  15.6482461  43.5961279  48.1805615
  10.8687616  46.9460778  55.4870718  10.7232196  47.2601081  56.3794999
  10.3912819  47.5645679  54.9341616  12.7283999  43.9363326  55.5351607
  12.7145567  43.0404420  55.1983905  13.4456427  43.9433990  56.1689893
  14.5810129  44.3700667  57.5804735  14.3227907  45.2917737  57.5789065
  14.0495170  43.9731101  58.2705199  19.5256318  57.4751454  50.3594820
  19.6993196  56.9097876  49.6068673  20.0185209  58.2752349  50.1774310
   5.3433278  49.4866123  58.4258379   4.7986746  50.2625931  58.5578653
   6.2212628  49.8336927  58.2677500  12.1320894  42.8177707  50.8039177
  12.2536806  41.8894353  51.0030065  11.8422937  42.8316393  49.8917493
  15.0012085  40.5032617  53.9405897  15.0233782  40.5671950  52.9857877
  15.4180144  39.6637126  54.1346404  25.3795709  50.2387877  51.9785120
  25.8226855  49.4895202  51.5804243  24.5022219  50.2298013  51.5958852
  20.5131490  56.7918218  47.4591718  21.2082395  57.4124911  47.6779033
  20.8554641  55.9413569  47.7344096   6.1299300  48.6136019  61.3188536
   5.3881036  48.7618654  61.9053166   5.8092044  48.8744285  60.4555285
  22.4122914  54.2417924  48.9879049  22.9374238  54.5805196  48.2628369
  22.3245266  53.3064939  48.8042184  14.0742962  58.1551997  61.1168926
  14.3830089  57.9101144  61.9891625  14.8718444  58.3598636  60.6287796
  14.0963574  60.3089907  53.3474302  13.6568565  59.8166286  54.0407159
  14.8471691  59.7662875  53.1066378   6.5755913  56.5001448  53.3498930
   7.4013933  56.2005220  52.9697574   6.2249965  55.7309070  53.7988719
  11.5437446  55.8527916  55.4196604  10.9217456  55.1898621  55.1198832
  12.2142313  55.8789048  54.7370252   4.7764518  54.4187774  54.3087864
   3.9396427  53.9909949  54.1271865   4.7488164  54.6120218  55.2458655
  11.6161974  44.3309704  65.0129110  11.6650129  45.2071827  64.6306880
  12.1584488  43.7887097  64.4400753  22.1016820  54.8750827  64.2930247
  21.3112363  54.8574966  63.7534747  21.8650174  55.4139121  65.0479284
  22.2214695  51.7243294  61.6062976  22.2712700  51.5593301  62.5478499
  22.1128618  50.8570553  61.2160856  11.1050953  54.4031839  48.8955065
  11.2539074  55.0867304  48.2421737  11.9117397  54.3836929  49.4104520
  19.5118457  47.7074222  62.9222282  20.4128320  47.5680687  62.6306280
  19.5866432  47.8728677  63.8620460  13.8461262  45.0841076  61.7675469
  12.9764572  45.3774643  61.4958057  14.0820743  45.6681521  62.4882732
  23.7232892  54.1440235  61.8504997  23.4317700  54.5070216  62.6868458
  23.1105023  53.4307243  61.6718329  24.9228574  51.7093115  54.3707567
  25.7575465  52.1482919  54.5345128  25.0587703  51.2331768  53.5515813
  21.9720080  49.2672850  60.3185055  22.4474201  49.4600496  59.5103907
  21.0485645  49.3232036  60.0728439   8.8603586  50.4297017  49.9016134
   8.6149628  49.5259347  50.0996344   9.0299501  50.4314167  48.9595612
  16.5500296  41.3020693  59.2840889  17.0682240  42.0381720  58.9587378
  16.1955429  41.6084687  60.1187648   8.1299234  46.1625375  47.4002295
   7.4368479  46.2369730  46.7442331   7.8850986  45.3985718  47.9223812
  14.6046359  56.8979970  46.3666812  14.0320326  57.5170157  45.9137284
  15.1779153  57.4479332  46.9006734  20.6721749  46.1438610  58.5513361
  21.6239172  46.2436708  58.5725585  20.5025199  45.3516878  59.0611445
  18.6936128  43.2294193  58.7372762  18.0986060  43.5099206  58.0419250
  18.4085825  43.7188094  59.5089503  17.8243619  57.1817120  47.4975394
  18.7574292  57.1162682  47.7008270  17.7366832  58.0173387  47.0389927
  20.4531635  56.4982990  44.4579342  20.3745267  56.1642854  45.3515100
  21.2741302  56.9904758  44.4570814  23.1509827  49.3644730  57.6655660
  23.1186147  48.4260730  57.8515344  23.7610450  49.4428766  56.9321485
  14.9893157  48.2340783  43.7082865  15.9352262  48.1046991  43.7771283
  14.6107402  47.4955444  44.1852293  23.3004315  46.1555773  57.7113944
  22.7843364  45.3714230  57.5243873  24.1844264  45.8274490  57.8760463
  28.9686376  50.4260736  56.8061697  29.6989765  50.1646025  57.3669401
  28.3593322  49.6889458  56.8463765  27.0501674  48.5668599  57.4036148
  26.3234837  48.4324564  56.7952640  26.6348960  48.8745428  58.2092867
  14.8731850  52.2858529  65.1683522  15.7934859  52.4637128  65.3623568
  14.8381433  51.3414574  65.0163221  13.1736075  46.1590759  43.6437750
  12.2667530  45.8623872  43.7200463  13.4512056  45.8620577  42.7772036
   4.0914015  47.4797122  54.0936796   3.7716799  46.6262431  53.8011170
   3.5447443  47.6945701  54.8494763   7.8693923  50.1959563  57.8106303
   8.0879932  51.1276671  57.8294336   8.2819696  49.8367538  58.5961107
  14.7898140  40.7027649  49.7981991  13.9798869  40.3574734  50.1737237
  15.4782557  40.3935192  50.3869603  16.7188689  39.7805695  51.4206288
  17.2719727  40.2001149  52.0796311  16.9558775  38.8541444  51.4629244
  12.7421788  45.7692769  67.2009052  12.6418515  46.7187126  67.1321143
  12.5243330  45.4411008  66.3285122  11.9434859  43.0177694  43.7849729
  12.8054023  43.3432592  44.0445546  12.1285203  42.2309190  43.2722795
   3.9602275  51.1000034  56.0629918   3.2665746  50.6853987  55.5499872
   4.7075266  51.1420570  55.4663337  20.0967496  41.8906221  50.9284952
  19.5166165  42.5491025  50.5463004  19.8303428  41.0683565  50.5172369
  12.6053058  49.1989908  66.0174113  12.1220140  49.9990268  66.2238002
  12.6913997  49.2097853  65.0641557   5.8739017  51.0318288  53.9395933
   5.8509706  51.1305975  52.9877816   6.1839654  51.8783438  54.2613099
   8.5326395  53.0894443  58.0542547   9.4869649  53.0578385  57.9872479
   8.3338919  52.6285066  58.8692773   9.1225777  51.6595559  60.6213345
   9.9418666  52.1539637  60.6448182   9.3962585  50.7427527  60.5930912
  18.8792374  44.0506311  49.9841300  17.9918229  44.3355962  49.7661495
  19.2946363  43.8900074  49.1368577  22.2306910  44.0752832  53.6995639
  23.0067300  44.5649284  53.9720256  21.5055044  44.5010886  54.1567509
  24.6679468  44.7880451  54.7569580  25.2623959  44.5476187  54.0462888
  24.7406052  44.0687582  55.3843116   6.8876624  58.6314062  55.0712745
   6.7531092  57.8714463  54.5050743   6.4708686  59.3554962  54.6041534
  18.0235587  53.8150986  44.0789320  18.7271437  54.0200988  44.6946976
  17.2998236  54.3827748  44.3438404  18.8533397  49.5660847  50.1991590
  18.7968599  50.0229398  49.3599223  19.4061740  48.8051532  50.0214433
  22.6638203  45.3550579  51.0241710  22.4075138  44.9547214  51.8549918
  22.0391071  46.0694373  50.8991849  26.9750541  48.0946652  53.5313001
  26.4150099  48.1639841  54.3044563  26.3694045  47.9187637  52.8112498
  10.0445750  59.5283379  55.2831188   9.9278134  60.4728812  55.1809878
   9.2238196  59.2256941  55.6716987  19.9322285  54.2533515  46.1287780
  20.7667888  53.8214713  45.9465255  19.7706627  54.0815529  47.0564675
  19.5868177  50.7565628  47.4944120  19.5316981  50.5909900  46.5532564
  18.9614232  51.4641661  47.6506309   4.3760692  45.9933693  61.3205542
   5.0219555  45.4832647  61.8092767   4.1677843  46.7302374  61.8948967
  16.9014084  53.0614540  66.8197682  17.7705244  53.2355192  66.4584317
  16.4220835  53.8808957  66.6973412  12.8964302  40.2573737  47.0729438
  12.8842972  41.2015577  47.2297709  13.7887724  40.0743883  46.7788899
  11.0700264  60.1811641  58.4987116  11.9727511  60.2135251  58.8153611
  10.8437634  59.2512092  58.5133452  12.8253866  58.9342628  55.1597195
  11.8749497  58.9344489  55.0461567  13.1286352  58.1875362  54.6433229
  16.7116422  36.8516514  51.3275375  15.9448817  36.2975001  51.4732057
  17.1227127  36.9238383  52.1889526   8.7158183  43.1401310  65.4180556
   9.5789644  42.7838115  65.6283881   8.1423593  42.8015204  66.1055960
  28.5606560  64.7703166  56.2242957  29.1984970  64.6509913  55.5206297
  28.4427403  65.7184010  56.2830909  25.3696266  64.7230594  56.1604482
  25.0314777  64.6071659  55.2725017  26.2386034  64.3221759  56.1405488
  21.2283082  66.5766071  52.1501373  20.6647947  66.4856007  51.3817660
  21.1135477  65.7565975  52.6303865  25.8516049  65.8765446  62.1190687
  25.8404690  65.4818244  61.2471191  26.0136688  65.1431518  62.7124459
  18.7747514  68.0717262  54.9885593  19.5668805  67.7308087  54.5731892
  19.0144164  68.1812237  55.9087746  26.8082640  70.2437038  47.4615838
  26.1570620  70.8291119  47.0749851  27.6027003  70.7743233  47.5210875
  20.7338267  67.3326175  47.8602972  21.5069144  66.7855162  47.7215848
  21.0863666  68.1970425  48.0717433  22.5723310  68.6602558  61.0669871
  22.2813176  69.5648188  60.9516538  23.2080294  68.7019085  61.7813941
  23.4979517  66.0379406  57.6571231  24.0943089  65.8135429  56.9428194
  23.5554488  65.2964152  58.2596679  23.0704545  63.4918841  45.4921422
  23.3230066  62.9700363  44.7304885  22.1329104  63.3284987  45.5948105
  28.1147828  62.4954620  53.2996165  28.9010917  62.0774043  52.9486582
  28.3786532  63.4000712  53.4677813  28.2857905  67.9327470  47.9984822
  27.6503738  68.0062097  48.7105726  27.9555312  68.5221069  47.3203901
  33.5156255  62.4329853  54.2029144  34.2481427  61.8629070  54.4366973
  32.7595611  62.0451453  54.6435649  22.7900834  65.3946947  47.6945797
  22.6737092  64.7191851  48.3626881  22.9003094  64.9079321  46.8777950
  25.1332375  64.8557095  51.3992486  24.7690582  64.3287716  52.1105407
  25.9899491  64.4655564  51.2258971  31.0381676  56.1451427  58.6623752
  30.7065000  57.0146838  58.4384967  30.4427289  55.8287711  59.3417783
  24.7737862  59.8846994  46.3953835  24.9412264  60.7527231  46.7624306
  24.5835031  60.0474276  45.4715124  27.5313195  68.3463973  58.0619665
  27.2313918  69.2489012  57.9535472  27.1864255  68.0796156  58.9140818
  20.9825677  64.7977770  54.0956369  20.0576173  64.6653984  54.3034061
  21.2310090  65.5771989  54.5926312  30.9310339  60.8646513  55.7417102
  30.0227216  60.7961922  55.4475863  30.8797935  61.3418458  56.5698928
  24.7527083  62.3404652  47.3800501  24.6326708  62.7861703  48.2185982
  24.0579671  62.6889969  46.8214039  18.3434488  64.4411044  54.9300158
  18.4726869  64.6945522  55.8439570  17.6631939  65.0338752  54.6104813
  22.5133975  75.1108293  51.0290633  22.4358005  76.0616119  51.1079113
  21.9095619  74.7654166  51.6865559  25.0051205  62.2836159  63.6851999
  24.2284539  62.8430079  63.6754864  25.6441768  62.7692942  64.2066870
  32.7971985  59.0662952  57.5194976  32.1546366  59.3595485  56.8734771
  32.2926914  58.9515872  58.3248173  30.4512149  62.8126125  48.2080835
  31.3630005  63.0453512  48.0328533  29.9421796  63.3963169  47.6455914
  23.2597577  65.0921612  63.2469966  24.0012261  65.6306656  62.9704790
  22.5534562  65.7187901  63.4041518  28.7352917  67.2350753  61.8442128
  29.1436273  66.7933163  61.0996760  28.0130178  66.6603380  62.0976321
  25.0883987  62.1723360  59.2175685  25.9345182  62.5962773  59.3610334
  25.0282624  61.5156984  59.9114248  29.0581731  67.7951943  55.5994417
  28.4290594  67.9597658  54.8970485  28.6707393  68.2093553  56.3705381
  32.9370963  68.7306381  52.9538781  32.2522001  69.1105283  52.4035814
  33.0214813  69.3401708  53.6870728  28.2383432  59.8327728  60.8756859
  27.9944364  60.5869788  60.3391134  28.5143363  60.2113075  61.7104106
  30.1921895  66.3766340  59.5534124  30.4038790  67.0198100  58.8768505
  30.1451643  65.5428657  59.0856054  27.7948124  58.9884161  56.4570696
  26.9332603  59.2865414  56.7487434  27.8210558  59.2054560  55.5251729
  24.6109693  67.5326351  52.8644502  25.0748039  67.8114054  52.0749124
  24.3466491  66.6309796  52.6817593  21.5033774  67.0797833  55.8024265
  22.0735131  67.5085101  55.1641750  22.0941886  66.7980418  56.5008451
  23.5478579  63.6549504  49.6734067  24.2502623  64.1070547  50.1407993
  23.2159208  63.0133323  50.3013960  21.9958941  62.2461260  64.0485276
  21.3657601  62.9277541  64.2820673  21.8895029  62.1344342  63.1038415
  17.2903913  61.9133056  54.9751201  16.5002967  62.1690585  54.4991311
  17.7815161  62.7281394  55.0803241  31.3067723  69.2538296  57.7256481
  32.1285166  68.8518483  57.4439163  31.3030126  69.1506530  58.6772597
  19.2418659  62.2777636  51.9334677  18.4449822  62.3896330  52.4518173
  19.0144251  62.6164288  51.0675568  25.0724326  68.8022339  59.8817192
  25.1368759  69.2642746  60.7175364  24.3635250  68.1719704  60.0099502
  15.5741616  62.1663547  57.4066191  15.8249655  63.0510557  57.6723767
  16.1101165  61.9868148  56.6341283  39.3973716  65.5977044  54.0741453
  38.6437424  65.0284442  53.9185457  39.5321257  65.5639709  55.0212088
  24.7872344  70.4690446  49.7496172  24.6518019  71.3141982  50.1781020
  25.3282156  70.6709724  48.9862106  21.2739684  56.5482026  66.4110528
  20.8806629  55.9948225  67.0858172  22.0905824  56.8592605  66.8017045
  18.2401741  67.9865884  50.3224097  18.7526262  68.7809135  50.4729662
  18.8924454  67.2892175  50.2557699  20.0496626  71.1031641  52.4046851
  20.2263254  72.0249605  52.2167834  20.8453459  70.7890060  52.8341230
  24.1907644  57.9639905  64.0030784  24.9317358  58.5647059  63.9235247
  24.4225567  57.2217543  63.4448827  19.3348983  63.1496273  62.2809014
  19.2202498  62.2481530  62.5816113  18.4793500  63.3959969  61.9293830
  26.4140820  71.0914013  63.8796514  25.9704674  70.3050392  63.5617419
  27.0758034  71.2793163  63.2140405  21.1727941  72.6209815  58.4057193
  21.7235367  72.4926878  57.6334187  20.3339417  72.9204704  58.0552086
  28.5122058  71.3716813  61.9077916  28.4940534  72.1925694  61.4158185
  29.4341978  71.2470888  62.1328057  24.9695112  68.8860942  62.7501424
  25.5023449  68.1249231  62.5200732  24.4409194  68.5934594  63.4925579
  28.1364807  53.9921008  58.2795066  27.7929077  54.8822650  58.2034176
  28.5043770  53.8022666  57.4164651  16.2050658  66.3154539  51.0983668
  17.0425880  66.7251547  50.8817376  16.3828926  65.3753981  51.0683862
  28.1015090  63.9829619  46.7867501  27.5861714  64.7534224  47.0255888
  27.8292399  63.3094756  47.4100562  25.6862201  58.8279320  51.8452739
  24.8303798  58.4386171  51.6658378  26.0989153  58.9071281  50.9852525
  27.2161348  56.3625663  56.2444299  26.7126143  56.3255799  55.4312104
  27.5091955  57.2718406  56.3040956  23.4604234  56.4464393  55.2510481
  24.3257230  56.2507202  54.8916370  23.5281743  56.2174745  56.1779838
  33.0749364  66.7361974  48.7220674  32.2978807  66.3973134  48.2775836
  33.7540845  66.7414597  48.0475639  27.8901393  61.8556712  48.6127282
  27.5851529  62.1702861  49.4637425  28.8431835  61.9338131  48.6554615
  26.3347825  68.0146935  50.2620236  25.8069187  67.2799694  49.9493474
  25.8335328  68.7921611  50.0160204  31.3140671  66.2095955  55.3787282
  30.6564346  66.8995217  55.4667411  32.1181070  66.5992387  55.7221269
  21.0666553  58.6766601  52.6226848  21.6410305  58.4541783  51.8900041
  21.6537535  58.7455296  53.3755449  30.1246130  64.5640328  53.4291224
  30.6378012  65.1970320  53.9312934  30.7747354  63.9641524  53.0634584
  21.3936140  60.7071062  46.6422733  20.5573452  61.0445749  46.9632008
  21.2540910  60.5720042  45.7049870  23.3689221  55.5507850  51.3501917
  22.7153633  55.2356867  50.7258532  23.3269695  54.9283591  52.0761740
  24.4800425  65.8327145  43.2655209  23.5727487  65.6016399  43.4646358
  24.9771457  65.0364764  43.4529191  27.3868504  74.5424652  46.1851895
  26.7130203  74.8456349  46.7936853  27.7734326  75.3453733  45.8357352
  26.6026961  62.0389784  55.6749565  25.6849522  62.2604731  55.5171253
  27.0187104  62.1136094  54.8161272  27.3862009  63.4381199  50.8052245
  28.1333828  63.9502596  50.4959367  27.6553598  63.1165252  51.6656638
  25.6588659  65.9339740  47.7879199  24.7499878  65.6498773  47.8851669
  25.6883743  66.3538819  46.9282506  30.8907926  69.5446329  51.5570367
  30.4370253  68.7037239  51.6135557  30.2601893  70.1807728  51.8945147
  29.8340846  60.4738316  52.7871034  29.0963603  59.9615702  53.1181277
  30.0867619  60.0338697  51.9754311  29.3340865  71.3822826  52.4920185
  29.6263840  71.9427883  51.7732551  29.8439486  71.6751387  53.2473344
  29.9352473  53.2514568  53.3812803  30.2411350  52.3911931  53.0938719
  30.6605078  53.8432188  53.1811797  16.2276829  63.6545254  51.7694401
  16.0301229  63.0614615  51.0445468  15.6723493  63.3497464  52.4870340
  24.2073553  63.5468361  53.8888995  24.2622163  62.5942197  53.8131471
  23.3964755  63.7027800  54.3730293  25.3564747  67.4748484  45.1267278
  24.9184177  66.7584343  44.6672915  26.0975187  67.7024598  44.5652369
  22.1465913  62.1645420  51.6479373  21.3333778  62.4639591  52.0544566
  22.6424907  61.7701109  52.3653856  24.2974491  72.1603177  53.5813638
  24.2550669  72.3864024  52.6522170  25.2137190  71.9266552  53.7299439
  27.7440124  62.6287245  60.4794267  28.0989512  62.8558718  61.3388733
  28.3912256  62.9605622  59.8571523  33.4737861  65.7505681  51.1843596
  33.3355760  65.9407277  50.2564786  33.1174080  66.5125064  51.6411647
  21.6379988  59.7363776  57.2640608  22.2779367  59.5952535  56.5663572
  20.8057518  59.4498289  56.8879210  33.5007241  67.8182208  56.1954868
  33.9343748  67.7257497  57.0437922  34.2138822  67.7939708  55.5574884
  22.4140291  69.0366206  53.3775601  23.2080890  68.5416526  53.1758176
  21.7031984  68.5084069  53.0143306  27.2335136  71.4184302  57.7287968
  27.2872158  71.9875238  58.4965684  26.3649917  71.5886187  57.3642006
  18.7223055  63.1809288  49.4535353  17.7920643  63.1193744  49.6705316
  18.8180527  62.6585241  48.6571995  18.6408604  59.7064101  52.0413595
  18.9015421  60.6209434  51.9322756  19.4625776  59.2388543  52.1910208
  20.1133529  61.1201858  59.2112420  20.7856583  60.9119220  58.5625069
  19.2863316  60.9223944  58.7717652  34.3622791  67.8605908  58.7287753
  34.5558681  68.7651719  58.9747028  34.2623409  67.4013327  59.5626338
  26.0159101  57.7463799  61.2278081  25.3687016  58.4453749  61.1342557
  26.7860117  58.1799943  61.5954329  29.4237899  68.0112651  64.3028634
  29.2723406  67.7823203  63.3858718  29.4142579  68.9683253  64.3159979
  26.1923236  65.5844564  59.2874900  27.1215296  65.7355723  59.1143868
  25.7714266  65.6728585  58.4323547  24.9911567  69.6095228  57.0573438
  24.8522653  69.2414013  57.9299376  24.2026164  70.1242868  56.8857396
  25.5859719  74.7104325  48.3998974  25.7611475  74.2392368  49.2144597
  24.8992507  75.3370091  48.6280235  26.5416783  68.9876831  54.4462276
  26.2066615  68.9477601  55.3419926  26.0420728  68.3221547  53.9732686
  20.5161027  64.3944461  59.9714857  20.3780824  63.6624700  60.5726396
  21.4265950  64.3053361  59.6899045  29.4775974  66.3332865  44.7199335
  28.8605145  65.6079693  44.6232388  29.0092463  67.0942226  44.3766410
  23.1443327  64.1064420  59.4598537  23.8542946  63.4657613  59.4185155
  23.1012635  64.3577315  60.3824717  31.1330106  71.0431774  62.3805116
  31.0742652  70.3590994  61.7135699  31.5349624  71.7850764  61.9285742
  21.8572261  61.0929638  61.2794176  21.3209618  60.6420377  61.9315772
  21.2688970  61.2275547  60.5364640  21.2674520  60.5518290  43.8420640
  20.3903986  60.4307090  43.4782886  21.7432273  59.7604368  43.5899528
  31.1347513  69.0071358  60.6119095  30.2474292  68.6697279  60.7345494
  31.7046064  68.2754389  60.8487861  12.7876660  65.3395449  53.9362147
  13.4747700  65.0257179  53.3483162  12.6324789  66.2436814  53.6629398
  17.5911382  60.2285646  58.3647170  17.5069571  59.6211315  57.6297580
  16.7694089  60.7194664  58.3656667  24.6648667  73.6672810  57.5780339
  24.5918838  74.4727781  58.0899643  24.2226060  73.8664776  56.7528360
  24.4538446  72.9044580  51.0883160  23.6705968  73.4466260  51.1821385
  25.1531191  73.4218560  51.4877401  27.7635096  58.7139209  53.7317366
  28.2603796  57.9609172  53.4118436  26.9922078  58.7503526  53.1660575
  35.6164854  64.4179575  55.3735657  35.6054730  65.3004290  55.0029590
  34.7482233  64.0651126  55.1790194  27.1247350  73.5659644  59.7338497
  27.8375322  74.2007109  59.6614399  26.6337379  73.6623510  58.9178499
  28.8464877  67.4710897  51.3055789  27.9121156  67.5912359  51.1360493
  29.0241545  66.5683363  51.0415799  24.3470065  60.8556592  53.4589050
  23.9767853  60.3027633  54.1469956  24.8429157  60.2514726  52.9064050
  32.2337428  63.3128216  51.8405823  32.6997881  64.1456208  51.7666126
  32.6844929  62.8473198  52.5451082  22.1759264  71.3154087  60.5544068
  22.8768723  71.9490570  60.7073462  21.7054379  71.6568819  59.7939707
  30.3013659  69.6572037  48.8391975  30.5773503  69.5428632  49.7485849
  29.4318158  69.2589522  48.8004148  30.2054091  55.6808803  55.8796724
  29.2917171  55.9113030  56.0478931  30.6347193  55.7647247  56.7310757
  29.9760550  63.8698695  58.3796618  29.3232000  64.1174602  57.7249071
  30.3540929  63.0562833  58.0459096  26.9367723  73.9058388  52.4824789
  27.1190118  73.0880044  52.9452541  27.7600709  74.1226080  52.0449679
  27.2709889  72.8326573  49.7439837  27.7997655  72.3219028  49.1309999
  27.5338109  72.5169103  50.6085370  26.0248123  64.6118506  64.8662656
  25.3488760  64.5112635  65.5365031  26.8475756  64.4557720  65.3298653
  17.7726982  70.8490442  57.4875171  18.3580418  70.1034130  57.6203075
  17.5751820  71.1594399  58.3711835  20.6265637  73.8841690  52.5037613
  19.9576012  74.3687818  52.0201653  20.4878507  74.1310910  53.4180992
  12.3644636  63.4196043  56.2079614  12.4028736  62.8859633  57.0016732
  11.8584929  62.8931248  55.5890591  24.7670905  75.9185433  59.1020271
  25.3189213  76.0817055  59.8669357  25.1077099  76.5089871  58.4300296
  19.7435399  58.2660583  59.7042156  19.8076725  59.1275414  59.2919554
  19.6802519  57.6534585  58.9714515  19.2187671  60.3383716  63.3515190
  19.8459710  59.9560793  63.9652715  18.3615590  60.1197918  63.7170883
  29.6181780  70.7446691  64.9568926  30.1621684  71.3576649  64.4623881
  29.0368625  71.3026269  65.4735939  15.9953214  62.1460145  49.2833545
  16.2906655  61.2370823  49.2300599  15.0941250  62.1247884  48.9614548
  27.9039293  73.8667409  56.0883954  27.7790432  73.0657149  55.5794899
  28.5618384  74.3613602  55.5997924  19.5247461  60.2216141  55.2661094
  18.8034047  60.8352109  55.1268567  20.3140717  60.7573906  55.1877740
  29.9674201  71.6676429  57.7163504  29.0204537  71.5481780  57.6441830
  30.3156974  70.7798927  57.7989765  22.3273774  57.5570568  61.5401746
  22.8508176  57.8032864  62.3028055  22.1086108  58.3890603  61.1204883
  17.7241056  59.8274243  49.4072870  17.3953762  58.9471621  49.2247976
  18.0780426  59.7721911  50.2949260  26.9720634  71.4629145  53.9167856
  26.8245597  70.5345853  54.0975426  27.7974128  71.4849236  53.4324931
  20.8382879  60.1147212  49.7748348  21.1778951  60.6433134  49.0526956
  21.2854999  60.4527618  50.5506915  30.5754756  72.2857704  55.0032729
  31.5001304  72.0800565  54.8657180  30.4070060  72.0374105  55.9122070
  23.5326320  58.4984263  59.2251416  23.1923140  57.6992076  59.6272096
  22.8265326  58.7985974  58.6528249  24.1842791  55.5833575  57.6778739
  25.0068861  55.1094054  57.5557630  24.4280855  56.3624059  58.1777425
  22.8251026  58.6121834  47.9741641  23.5459388  58.9903087  47.4705358
  22.2016330  59.3310711  48.0776619  26.9682149  59.3166983  48.9099973
  27.1845763  60.1991621  48.6088801  26.4876216  58.9253196  48.1805615
  21.7081370  62.2752696  55.4870718  21.5625951  62.5892999  56.3794999
  21.2306574  62.8937596  54.9341616  23.5677753  59.2655244  55.5351607
  23.5539322  58.3696337  55.1983905  24.2850181  59.2725908  56.1689893
  25.4203884  59.6992584  57.5804735  25.1621662  60.6209655  57.5789065
  24.8888924  59.3023019  58.2705199  30.3650072  72.8043371  50.3594820
  30.5386950  72.2389794  49.6068673  30.8578964  73.6044266  50.1774310
  16.1827032  64.8158040  58.4258379  15.6380500  65.5917848  58.5578653
  17.0606382  65.1628845  58.2677500  22.9714649  58.1469624  50.8039177
  23.0930560  57.2186271  51.0030065  22.6816691  58.1608310  49.8917493
  25.8405839  55.8324535  53.9405897  25.8627536  55.8963868  52.9857877
  26.2573898  54.9929043  54.1346404  36.2189464  65.5679794  51.9785120
  36.6620610  64.8187120  51.5804243  35.3415974  65.5589931  51.5958852
  31.3525245  72.1210136  47.4591718  32.0476150  72.7416828  47.6779033
  31.6948395  71.2705487  47.7344096  16.9693054  63.9427937  61.3188536
  16.2274790  64.0910572  61.9053166  16.6485798  64.2036202  60.4555285
  33.2516668  69.5709841  48.9879049  33.7767992  69.9097114  48.2628369
  33.1639021  68.6356857  48.8042184  24.9136717  73.4843915  61.1168926
  25.2223843  73.2393062  61.9891625  25.7112199  73.6890553  60.6287796
  24.9357329  75.6381825  53.3474302  24.4962319  75.1458203  54.0407159
  25.6865446  75.0954792  53.1066378  17.4149668  71.8293365  53.3498930
  18.2407688  71.5297137  52.9697574  17.0643720  71.0600988  53.7988719
  22.3831201  71.1819834  55.4196604  21.7611210  70.5190539  55.1198832
  23.0536068  71.2080966  54.7370252  15.6158273  69.7479692  54.3087864
  14.7790181  69.3201866  54.1271865  15.5881918  69.9412135  55.2458655
  22.4555728  59.6601622  65.0129110  22.5043884  60.5363745  64.6306880
  22.9978243  59.1179015  64.4400753  32.9410574  70.2042745  64.2930247
  32.1506118  70.1866884  63.7534747  32.7043929  70.7431039  65.0479284
  33.0608449  67.0535211  61.6062976  33.1106454  66.8885219  62.5478499
  32.9522373  66.1862470  61.2160856  21.9444708  69.7323757  48.8955065
  22.0932828  70.4159221  48.2421737  22.7511151  69.7128847  49.4104520
  30.3512212  63.0366139  62.9222282  31.2522074  62.8972604  62.6306280
  30.4260186  63.2020594  63.8620460  24.6855017  60.4132994  61.7675469
  23.8158326  60.7066560  61.4958057  24.9214497  60.9973439  62.4882732
  34.5626646  69.4732153  61.8504997  34.2711454  69.8362133  62.6868458
  33.9498777  68.7599161  61.6718329  35.7622328  67.0385033  54.3707567
  36.5969220  67.4774837  54.5345128  35.8981457  66.5623686  53.5515813
  32.8113834  64.5964767  60.3185055  33.2867956  64.7892414  59.5103907
  31.8879400  64.6523953  60.0728439  19.6997341  65.7588935  49.9016134
  19.4543383  64.8551265  50.0996344  19.8693255  65.7606085  48.9595612
  27.3894051  56.6312611  59.2840889  27.9075995  57.3673638  58.9587378
  27.0349184  56.9376604  60.1187648  18.9692988  61.4917292  47.4002295
  18.2762233  61.5661647  46.7442331  18.7244740  60.7277636  47.9223812
  27.6406645  53.0512894  54.8041786  27.9208399  52.3836083  55.4302212
  28.4257252  53.2441989  54.2916450  25.4440113  72.2271887  46.3666812
  24.8714080  72.8462075  45.9137284  26.0172907  72.7771249  46.9006734
  31.5115503  61.4730528  58.5513361  32.4632926  61.5728625  58.5725585
  31.3418954  60.6808796  59.0611445  29.5329883  58.5586111  58.7372762
  28.9379815  58.8391124  58.0419250  29.2479579  59.0480012  59.5089503
  28.6637373  72.5109038  47.4975394  29.5968046  72.4454599  47.7008270
  28.5760586  73.3465304  47.0389927  31.2925390  71.8274908  44.4579342
  31.2139021  71.4934772  45.3515100  32.1135057  72.3196676  44.4570814
  33.9903581  64.6936647  57.6655660  33.9579901  63.7552648  57.8515344
  34.6004205  64.7720684  56.9321485  25.8286912  63.5632700  43.7082865
  26.7746017  63.4338908  43.7771283  25.4501157  62.8247362  44.1852293
  34.1398070  61.4847691  57.7113944  33.6237118  60.7006147  57.5243873
  35.0238018  61.1566407  57.8760463  31.8008796  55.2288706  53.6709756
  31.6033618  54.9203794  54.5553088  32.4108502  55.9550345  53.8007686
  39.8080131  65.7552654  56.8061697  40.5383519  65.4937942  57.3669401
  39.1987076  65.0181376  56.8463765  37.8895428  63.8960517  57.4036148
  37.1628592  63.7616482  56.7952640  37.4742715  64.2037345  58.2092867
  25.7125604  67.6150446  65.1683522  26.6328614  67.7929045  65.3623568
  25.6775187  66.6706492  65.0163221  24.0129829  61.4882677  43.6437750
  23.1061284  61.1915789  43.7200463  24.2905810  61.1912495  42.7772036
  14.9307769  62.8089040  54.0936796  14.6110554  61.9554348  53.8011170
  14.3841198  63.0237618  54.8494763  18.7087677  65.5251481  57.8106303
  18.9273687  66.4568589  57.8294336  19.1213451  65.1659455  58.5961107
  25.6291895  56.0319566  49.7981991  24.8192623  55.6866651  50.1737237
  26.3176312  55.7227110  50.3869603  27.5582443  55.1097613  51.4206288
  28.1113482  55.5293067  52.0796311  27.7952529  54.1833361  51.4629244
  23.5815542  61.0984687  67.2009052  23.4812269  62.0479044  67.1321143
  23.3637084  60.7702926  66.3285122  22.7828614  58.3469612  43.7849729
  23.6447778  58.6724510  44.0445546  22.9678958  57.5601108  43.2722795
  14.7996029  66.4291952  56.0629918  14.1059501  66.0145904  55.5499872
  15.5469020  66.4712488  55.4663337  30.9361250  57.2198138  50.9284952
  30.3559919  57.8782942  50.5463004  30.6697183  56.3975483  50.5172369
  29.3864817  56.6203196  53.1306272  29.8864595  56.7319731  52.3220591
  30.0300424  56.3164249  53.7707081  23.4446812  64.5281826  66.0174113
  22.9613894  65.3282186  66.2238002  23.5307751  64.5389771  65.0641557
  16.7132772  66.3610205  53.9395933  16.6903460  66.4597893  52.9877816
  17.0233408  67.2075356  54.2613099  19.3720150  68.4186360  58.0542547
  20.3263403  68.3870303  57.9872479  19.1732673  67.9576984  58.8692773
  19.9619532  66.9887476  60.6213345  20.7812421  67.4831555  60.6448182
  20.2356340  66.0719445  60.5930912  29.7186128  59.3798229  49.9841300
  28.8311983  59.6647879  49.7661495  30.1340117  59.2191992  49.1368577
  33.0700664  59.4044750  53.6995639  33.8461054  59.8941202  53.9720256
  32.3448798  59.8302804  54.1567509  35.5073223  60.1172369  54.7569580
  36.1017714  59.8768105  54.0462888  35.5799807  59.3979499  55.3843116
  17.7270379  73.9605980  55.0712745  17.5924847  73.2006381  54.5050743
  17.3102441  74.6846880  54.6041534  28.8629342  69.1442903  44.0789320
  29.5665192  69.3492906  44.6946976  28.1391990  69.7119665  44.3438404
  29.6927152  64.8952765  50.1991590  29.6362353  65.3521316  49.3599223
  30.2455494  64.1343449  50.0214433  33.5031958  60.6842496  51.0241710
  33.2468892  60.2839132  51.8549918  32.8784826  61.3986290  50.8991849
  37.8144296  63.4238570  53.5313001  37.2543854  63.4931759  54.3044563
  37.2087799  63.2479554  52.8112498  20.8839505  74.8575297  55.2831188
  20.7671889  75.8020729  55.1809878  20.0631951  74.5548858  55.6716987
  30.7716039  69.5825433  46.1287780  31.6061643  69.1506631  45.9465255
  30.6100382  69.4107446  47.0564675  30.4261931  66.0857546  47.4944120
  30.3710735  65.9201817  46.5532564  29.8007987  66.7933579  47.6506309
  15.2154446  61.3225610  61.3205542  15.8613310  60.8124564  61.8092767
  15.0071597  62.0594292  61.8948967  27.7407838  68.3906458  66.8197682
  28.6098998  68.5647110  66.4584317  27.2614590  69.2100875  66.6973412
  23.7358057  55.5865655  47.0729438  23.7236727  56.5307495  47.2297709
  24.6281479  55.4035800  46.7788899  21.9094019  75.5103559  58.4987116
  22.8121265  75.5427169  58.8153611  21.6831389  74.5804010  58.5133452
  23.6647621  74.2634545  55.1597195  22.7143252  74.2636407  55.0461567
  23.9680107  73.5167280  54.6433229  27.5510176  52.1808432  51.3275375
  26.7842572  51.6266918  51.4732057  27.9620881  52.2530300  52.1889526
  19.5551937  58.4693227  65.4180556  20.4183399  58.1130032  65.6283881
  18.9817348  58.1307122  66.1055960  39.4000314  80.0995084  56.2242957
  40.0378724  79.9801831  55.5206297  39.2821157  81.0475928  56.2830909
  36.2090020  80.0522512  56.1604482  35.8708532  79.9363576  55.2725017
  37.0779789  79.6513677  56.1405488  32.0676836  81.9057988  52.1501373
  31.5041701  81.8147925  51.3817660  31.9529231  81.0857893  52.6303865
  36.6909803  81.2057364  62.1190687  36.6798444  80.8110162  61.2471191
  36.8530443  80.4723436  62.7124459  34.3373271  81.3671324  57.6571231
  34.9336844  81.1427346  56.9428194  34.3948243  80.6256069  58.2596679
  33.9098300  78.8210759  45.4921422  34.1623820  78.2992280  44.7304885
  32.9722859  78.6576905  45.5948105  38.9541583  77.8246538  53.2996165
  39.7404672  77.4065961  52.9486582  39.2180287  78.7292630  53.4677813
  39.1251660  83.2619388  47.9984822  38.4897493  83.3354014  48.7105726
  38.7949066  83.8512987  47.3203901  44.3550010  77.7621771  54.2029144
  45.0875182  77.1920988  54.4366973  43.5989365  77.3743371  54.6435649
  33.6294589  80.7238865  47.6945797  33.5130847  80.0483769  48.3626881
  33.7396848  80.2371239  46.8777950  35.9726129  80.1849012  51.3992486
  35.6084337  79.6579633  52.1105407  36.8293245  79.7947481  51.2258971
  41.8775430  71.4743345  58.6623752  41.5458755  72.3438756  58.4384967
  41.2821044  71.1579629  59.3417783  35.6131616  75.2138912  46.3953835
  35.7806019  76.0819148  46.7624306  35.4228786  75.3766194  45.4715124
  38.3706950  83.6755891  58.0619665  38.0707673  84.5780930  57.9535472
  38.0258009  83.4088074  58.9140818  31.8219431  80.1269688  54.0956369
  30.8969928  79.9945902  54.3034061  32.0703844  80.9063907  54.5926312
  41.7704093  76.1938431  55.7417102  40.8620971  76.1253839  55.4475863
  41.7191689  76.6710376  56.5698928  35.5920837  77.6696569  47.3800501
  35.4720463  78.1153620  48.2185982  34.8973426  78.0181887  46.8214039
  29.1828242  79.7702961  54.9300158  29.3120623  80.0237440  55.8439570
  28.5025693  80.3630669  54.6104813  35.8444959  77.6128077  63.6851999
  35.0678293  78.1721997  63.6754864  36.4835522  78.0984860  64.2066870
  43.6365740  74.3954869  57.5194976  42.9940120  74.6887403  56.8734771
  43.1320668  74.2807790  58.3248173  41.2905903  78.1418043  48.2080835
  42.2023760  78.3745429  48.0328533  40.7815551  78.7255087  47.6455914
  34.0991332  80.4213530  63.2469966  34.8406016  80.9598574  62.9704790
  33.3928317  81.0479819  63.4041518  39.5746671  82.5642670  61.8442128
  39.9830027  82.1225081  61.0996760  38.8523933  81.9895298  62.0976321
  35.9277741  77.5015277  59.2175685  36.7738936  77.9254691  59.3610334
  35.8676379  76.8448902  59.9114248  39.8975486  83.1243861  55.5994417
  39.2684348  83.2889575  54.8970485  39.5101148  83.5385471  56.3705381
  43.7764718  84.0598299  52.9538781  43.0915756  84.4397200  52.4035814
  43.8608567  84.6693626  53.6870728  39.0777187  75.1619646  60.8756859
  38.8338118  75.9161706  60.3391134  39.3537117  75.5404993  61.7104106
  41.0315649  81.7058258  59.5534124  41.2432545  82.3490018  58.8768505
  40.9845398  80.8720574  59.0856054  38.6341878  74.3176079  56.4570696
  37.7726357  74.6157332  56.7487434  38.6604313  74.5346477  55.5251729
  35.4503448  82.8618269  52.8644502  35.9141793  83.1405972  52.0749124
  35.1860246  81.9601714  52.6817593  34.3872334  78.9841422  49.6734067
  35.0896377  79.4362465  50.1407993  34.0552962  78.3425240  50.3013960
  32.8352695  77.5753178  64.0485276  32.2051356  78.2569459  64.2820673
  32.7288783  77.4636260  63.1038415  28.1297668  77.2424974  54.9751201
  27.3396722  77.4982503  54.4991311  28.6208915  78.0573312  55.0803241
  42.1461477  84.5830213  57.7256481  42.9678921  84.1810401  57.4439163
  42.1423880  84.4798448  58.6772597  30.0812413  77.6069553  51.9334677
  29.2843576  77.7188248  52.4518173  29.8538005  77.9456206  51.0675568
  26.4135371  77.4955465  57.4066191  26.6643409  78.3802475  57.6723767
  26.9494919  77.3160066  56.6341283  50.2367470  80.9268962  54.0741453
  49.4831179  80.3576360  53.9185457  50.3715012  80.8931626  55.0212088
  32.1133438  71.8773944  66.4110528  31.7200384  71.3240143  67.0858172
  32.9299578  72.1884522  66.8017045  35.0301399  73.2931823  64.0030784
  35.7711112  73.8938976  63.9235247  35.2619322  72.5509461  63.4448827
  30.1742737  78.4788190  62.2809014  30.0596252  77.5773448  62.5816113
  29.3187255  78.7251887  61.9293830  38.9758562  69.3212926  58.2795066
  38.6322831  70.2114568  58.2034176  39.3437525  69.1314584  57.4164651
  38.9408845  79.3121537  46.7867501  38.4255468  80.0826142  47.0255888
  38.6686153  78.6386673  47.4100562  36.5255956  74.1571238  51.8452739
  35.6697552  73.7678088  51.6658378  36.9382907  74.2363199  50.9852525
  38.0555102  71.6917581  56.2444299  37.5519898  71.6547716  55.4312104
  38.3485709  72.6010324  56.3040956  34.2997988  71.7756311  55.2510481
  35.1650985  71.5799120  54.8916370  34.3675497  71.5466663  56.1779838
  43.9143119  82.0653892  48.7220674  43.1372562  81.7265051  48.2775836
  44.5934600  82.0706515  48.0475639  38.7295148  77.1848629  48.6127282
  38.4245283  77.4994778  49.4637425  39.6825590  77.2630049  48.6554615
  42.1534426  81.5387873  55.3787282  41.4958100  82.2287134  55.4667411
  42.9574825  81.9284305  55.7221269  31.9060307  74.0058519  52.6226848
  32.4804059  73.7833700  51.8900041  32.4931290  74.0747213  53.3755449
  40.9639884  79.8932246  53.4291224  41.4771766  80.5262238  53.9312934
  41.6141108  79.2933441  53.0634584  32.2329894  76.0362980  46.6422733
  31.3967207  76.3737666  46.9632008  32.0934664  75.9011960  45.7049870
  34.2082975  70.8799768  51.3501917  33.5547387  70.5648785  50.7258532
  34.1663449  70.2575508  52.0761740  35.3194180  81.1619063  43.2655209
  34.4121242  80.9308316  43.4646358  35.8165212  80.3656682  43.4529191
  37.4420715  77.3681701  55.6749565  36.5243277  77.5896648  55.5171253
  37.8580859  77.4428012  54.8161272  38.2255763  78.7673117  50.8052245
  38.9727582  79.2794514  50.4959367  38.4947353  78.4457170  51.6656638
  36.4982413  81.2631658  47.7879199  35.5893633  80.9790690  47.8851669
  36.5277497  81.6830736  46.9282506  41.7301681  84.8738247  51.5570367
  41.2764008  84.0329157  51.6135557  41.0995647  85.5099646  51.8945147
  40.6734600  75.8030233  52.7871034  39.9357357  75.2907619  53.1181277
  40.9261374  75.3630615  51.9754311  40.7746228  68.5806485  53.3812803
  41.0805104  67.7203849  53.0938719  41.4998832  69.1724105  53.1811797
  27.0670584  78.9837172  51.7694401  26.8694983  78.3906532  51.0445468
  26.5117248  78.6789382  52.4870340  35.0467307  78.8760278  53.8888995
  35.1015917  77.9234115  53.8131471  34.2358509  79.0319717  54.3730293
  36.1958501  82.8040401  45.1267278  35.7577931  82.0876260  44.6672915
  36.9368942  83.0316516  44.5652369  32.9859667  77.4937338  51.6479373
  32.1727533  77.7931509  52.0544566  33.4818661  77.0993027  52.3653856
  38.5833879  77.9579162  60.4794267  38.9383267  78.1850636  61.3388733
  39.2306010  78.2897539  59.8571523  44.3131616  81.0797598  51.1843596
  44.1749514  81.2699194  50.2564786  43.9567835  81.8416981  51.6411647
  32.4773742  75.0655694  57.2640608  33.1173121  74.9244453  56.5663572
  31.6451273  74.7790207  56.8879210  44.3400995  83.1474125  56.1954868
  44.7737502  83.0549414  57.0437922  45.0532576  83.1231626  55.5574884
  29.5616809  78.5101206  49.4535353  28.6314397  78.4485661  49.6705316
  29.6574281  77.9877158  48.6571995  29.4802358  75.0356019  52.0413595
  29.7409176  75.9501352  51.9322756  30.3019531  74.5680461  52.1910208
  30.9527284  76.4493776  59.2112420  31.6250337  76.2411138  58.5625069
  30.1257070  76.2515862  58.7717652  45.2016545  83.1897826  58.7287753
  45.3952435  84.0943637  58.9747028  45.1017163  82.7305245  59.5626338
  36.8552856  73.0755717  61.2278081  36.2080771  73.7745666  61.1342557
  37.6253871  73.5091861  61.5954329  40.2631654  83.3404569  64.3028634
  40.1117160  83.1115120  63.3858718  40.2536333  84.2975170  64.3159979
  37.0316990  80.9136482  59.2874900  37.9609050  81.0647641  59.1143868
  36.6108020  81.0020502  58.4323547  31.3554781  79.7236379  59.9714857
  31.2174579  78.9916617  60.5726396  32.2659704  79.6345279  59.6899045
  40.3169729  81.6624783  44.7199335  39.6998899  80.9371611  44.6232388
  39.8486217  82.4234143  44.3766410  33.9837082  79.4356338  59.4598537
  34.6936700  78.7949530  59.4185155  33.9406390  79.6869233  60.3824717
  32.6966016  76.4221556  61.2794176  32.1603373  75.9712294  61.9315772
  32.1082724  76.5567465  60.5364640  32.1068275  75.8810207  43.8420640
  31.2297741  75.7599008  43.4782886  32.5826028  75.0896286  43.5899528
  41.9741268  84.3363275  60.6119095  41.0868046  83.9989197  60.7345494
  42.5439819  83.6046306  60.8487861  28.4305137  75.5577564  58.3647170
  28.3463326  74.9503233  57.6297580  27.6087843  76.0486582  58.3656667
  38.6028851  74.0431127  53.7317366  39.0997550  73.2901089  53.4118436
  37.8315832  74.0795444  53.1660575  46.4558608  79.7471493  55.3735657
  46.4448484  80.6296208  55.0029590  45.5875988  79.3943043  55.1790194
  39.6858631  82.8002814  51.3055789  38.7514910  82.9204277  51.1360493
  39.8635300  81.8975281  51.0415799  35.1863820  76.1848510  53.4589050
  34.8161607  75.6319550  54.1469956  35.6822912  75.5806644  52.9064050
  43.0731183  78.6420134  51.8405823  43.5391635  79.4748125  51.7666126
  43.5238683  78.1765115  52.5451082  41.1407414  84.9863955  48.8391975
  41.4167258  84.8720549  49.7485849  40.2711913  84.5881440  48.8004148
  41.0447846  71.0100721  55.8796724  40.1310925  71.2404947  56.0478931
  41.4740947  71.0939165  56.7310757  40.8154304  79.1990613  58.3796618
  40.1625754  79.4466520  57.7249071  41.1934684  78.3854751  58.0459096
  36.8641877  79.9410424  64.8662656  36.1882514  79.8404553  65.5365031
  37.6869511  79.7849637  65.3298653  23.2038391  78.7487960  56.2079614
  23.2422490  78.2151551  57.0016732  22.6978684  78.2223166  55.5890591
  30.5829153  73.5952501  59.7042156  30.6470480  74.4567332  59.2919554
  30.5196273  72.9826503  58.9714515  30.0581426  75.6675633  63.3515190
  30.6853465  75.2852711  63.9652715  29.2009345  75.4489835  63.7170883
  26.8346968  77.4752063  49.2833545  27.1300410  76.5662741  49.2300599
  25.9335004  77.4539802  48.9614548  30.3641215  75.5508059  55.2661094
  29.6427801  76.1644027  55.1268567  31.1534471  76.0865824  55.1877740
  33.1667529  72.8862486  61.5401746  33.6901931  73.1324782  62.3028055
  32.9479862  73.7182520  61.1204883  28.5634810  75.1566160  49.4072870
  28.2347516  74.2763539  49.2247976  28.9174181  75.1013829  50.2949260
  31.6776633  75.4439130  49.7748348  32.0172706  75.9725051  49.0526956
  32.1248754  75.7819536  50.5506915  34.3720074  73.8276181  59.2251416
  34.0316894  73.0283994  59.6272096  33.6659080  74.1277892  58.6528249
  35.0236546  70.9125493  57.6778739  35.8462615  70.4385971  57.5557630
  35.2674609  71.6915977  58.1777425  33.6644780  73.9413752  47.9741641
  34.3853143  74.3195004  47.4705358  33.0410084  74.6602628  48.0776619
  37.8075903  74.6458901  48.9099973  38.0239518  75.5283538  48.6088801
  37.3269970  74.2545114  48.1805615  32.5475125  77.6044614  55.4870718
  32.4019705  77.9184917  56.3794999  32.0700328  78.2229514  54.9341616
  34.4071507  74.5947162  55.5351607  34.3933076  73.6988255  55.1983905
  35.1243936  74.6017825  56.1689893  36.2597638  75.0284502  57.5804735
  36.0015416  75.9501573  57.5789065  35.7282679  74.6314936  58.2705199
  33.8108403  73.4761542  50.8039177  33.9324315  72.5478188  51.0030065
  33.5210446  73.4900228  49.8917493  36.6799594  71.1616452  53.9405897
  36.7021291  71.2255786  52.9857877  37.0967653  70.3220961  54.1346404
  47.0583218  80.8971712  51.9785120  47.5014364  80.1479037  51.5804243
  46.1809728  80.8881848  51.5958852  27.8086809  79.2719854  61.3188536
  27.0668545  79.4202490  61.9053166  27.4879553  79.5328120  60.4555285
  44.0910423  84.9001759  48.9879049  44.6161747  85.2389032  48.2628369
  44.0032775  83.9648774  48.8042184  33.2949483  74.9893539  65.0129110
  33.3437638  75.8655662  64.6306880  33.8371997  74.4470932  64.4400753
  43.7804329  85.5334663  64.2930247  42.9899872  85.5158802  63.7534747
  43.5437683  86.0722956  65.0479284  43.9002204  82.3827129  61.6062976
  43.9500209  82.2177136  62.5478499  43.7916127  81.5154388  61.2160856
  41.1905966  78.3658057  62.9222282  42.0915829  78.2264522  62.6306280
  41.2653941  78.5312512  63.8620460  35.5248771  75.7424912  61.7675469
  34.6552081  76.0358478  61.4958057  35.7608252  76.3265357  62.4882732
  45.4020401  84.8024071  61.8504997  45.1105209  85.1654051  62.6868458
  44.7892532  84.0891079  61.6718329  46.6016083  82.3676950  54.3707567
  47.4362974  82.8066754  54.5345128  46.7375212  81.8915604  53.5515813
  43.6507589  79.9256685  60.3185055  44.1261710  80.1184331  59.5103907
  42.7273154  79.9815871  60.0728439  30.5391095  81.0880852  49.9016134
  30.2937137  80.1843182  50.0996344  30.7087010  81.0898003  48.9595612
  38.2287805  71.9604529  59.2840889  38.7469749  72.6965556  58.9587378
  37.8742938  72.2668522  60.1187648  29.8086743  76.8209210  47.4002295
  29.1155988  76.8953565  46.7442331  29.5638495  76.0569554  47.9223812
  38.4800399  68.3804811  54.8041786  38.7602153  67.7128000  55.4302212
  39.2651006  68.5733907  54.2916450  42.3509258  76.8022445  58.5513361
  43.3026681  76.9020543  58.5725585  42.1812708  76.0100714  59.0611445
  40.3723637  73.8878028  58.7372762  39.7773569  74.1683041  58.0419250
  40.0873334  74.3771929  59.5089503  44.8297336  80.0228565  57.6655660
  44.7973656  79.0844566  57.8515344  45.4397959  80.1012602  56.9321485
  36.6680666  78.8924618  43.7082865  37.6139771  78.7630826  43.7771283
  36.2894911  78.1539280  44.1852293  44.9791824  76.8139608  57.7113944
  44.4630873  76.0298065  57.5243873  45.8631773  76.4858325  57.8760463
  42.6402551  70.5580624  53.6709756  42.4427372  70.2495712  54.5553088
  43.2502257  71.2842263  53.8007686  50.6473885  81.0844572  56.8061697
  51.3777274  80.8229860  57.3669401  50.0380831  80.3473294  56.8463765
  48.7289183  79.2252434  57.4036148  48.0022346  79.0908399  56.7952640
  48.3136469  79.5329263  58.2092867  36.5519359  82.9442364  65.1683522
  37.4722368  83.1220963  65.3623568  36.5168942  81.9998409  65.0163221
  34.8523584  76.8174594  43.6437750  33.9455039  76.5207707  43.7200463
  35.1299565  76.5204412  42.7772036  25.7701524  78.1380958  54.0936796
  25.4504308  77.2846266  53.8011170  25.2234952  78.3529536  54.8494763
  36.4685649  71.3611484  49.7981991  35.6586378  71.0158569  50.1737237
  37.1570066  71.0519028  50.3869603  38.3976198  70.4389531  51.4206288
  38.9507236  70.8584984  52.0796311  38.6346284  69.5125279  51.4629244
  34.4209297  76.4276604  67.2009052  34.3206024  77.3770961  67.1321143
  34.2030839  76.0994843  66.3285122  33.6222368  73.6761530  43.7849729
  34.4841532  74.0016428  44.0445546  33.8072712  72.8893025  43.2722795
  41.7755005  72.5490056  50.9284952  41.1953674  73.2074860  50.5463004
  41.5090937  71.7267401  50.5172369  40.2258571  71.9495114  53.1306272
  40.7258349  72.0611648  52.3220591  40.8694179  71.6456167  53.7707081
  34.2840567  79.8573743  66.0174113  33.8007649  80.6574103  66.2238002
  34.3701506  79.8681688  65.0641557  40.5579883  74.7090146  49.9841300
  39.6705738  74.9939797  49.7661495  40.9733872  74.5483910  49.1368577
  43.9094419  74.7336667  53.6995639  44.6854809  75.2233120  53.9720256
  43.1842553  75.1594722  54.1567509  46.3466977  75.4464287  54.7569580
  46.9411468  75.2060023  54.0462888  46.4193561  74.7271417  55.3843116
  40.5320906  80.2244682  50.1991590  40.4756108  80.6813234  49.3599223
  41.0849249  79.4635367  50.0214433  44.3425712  76.0134414  51.0241710
  44.0862647  75.6131050  51.8549918  43.7178580  76.7278208  50.8991849
  48.6538050  78.7530487  53.5313001  48.0937608  78.8223677  54.3044563
  48.0481554  78.5771472  52.8112498  41.6109794  84.9117350  46.1287780
  42.4455397  84.4798549  45.9465255  41.4494136  84.7399364  47.0564675
  41.2655686  81.4149464  47.4944120  41.2104490  81.2493735  46.5532564
  40.6401741  82.1225496  47.6506309  26.0548201  76.6517528  61.3205542
  26.7007064  76.1416482  61.8092767  25.8465352  77.3886210  61.8948967
  38.5801593  83.7198375  66.8197682  39.4492753  83.8939028  66.4584317
  38.1008344  84.5392792  66.6973412  34.5751811  70.9157573  47.0729438
  34.5630481  71.8599412  47.2297709  35.4675233  70.7327718  46.7788899
  38.3903931  67.5100349  51.3275375  37.6236326  66.9558836  51.4732057
  38.8014636  67.5822218  52.1889526  30.3945692  73.7985145  65.4180556
  31.2577153  73.4421950  65.6283881  29.8211102  73.4599040  66.1055960
  52.7169185  86.8035263  58.6623752  52.3852509  87.6730673  58.4384967
  52.1214798  86.4871547  59.3417783  54.4759494  89.7246787  57.5194976
  53.8333875  90.0179320  56.8734771  53.9714423  89.6099707  58.3248173
  49.8152316  84.6504844  58.2795066  49.4716586  85.5406485  58.2034176
  50.1831279  84.4606501  57.4164651  48.8948857  87.0209499  56.2444299
  48.3913652  86.9839634  55.4312104  49.1879464  87.9302242  56.3040956
  45.0476729  86.2091685  51.3501917  44.3941142  85.8940703  50.7258532
  45.0057204  85.5867426  52.0761740  51.6139982  83.9098403  53.3812803
  51.9198859  83.0495766  53.0938719  52.3392587  84.5016023  53.1811797
  51.8841600  86.3392638  55.8796724  50.9704680  86.5696865  56.0478931
  52.3134702  86.4231082  56.7310757  45.8630300  86.2417411  57.6778739
  46.6856370  85.7677889  57.5557630  46.1068364  87.0207895  58.1777425
  47.5193348  86.4908370  53.9405897  47.5415045  86.5547703  52.9857877
  47.9361407  85.6512879  54.1346404  49.0681560  87.2896446  59.2840889
  49.5863504  88.0257473  58.9587378  48.7136693  87.5960440  60.1187648
  49.3194154  83.7096729  54.8041786  49.5995908  83.0419918  55.4302212
  50.1044761  83.9025825  54.2916450  53.4796305  85.8872542  53.6709756
  53.2821127  85.5787630  54.5553088  54.0896011  86.6134181  53.8007686
  47.3079404  86.6903402  49.7981991  46.4980132  86.3450487  50.1737237
  47.9963821  86.3810945  50.3869603  49.2369952  85.7681449  51.4206288
  49.7900991  86.1876902  52.0796311  49.4740038  84.8417197  51.4629244
  52.6148759  87.8781974  50.9284952  52.0347428  88.5366778  50.5463004
  52.3484692  87.0559318  50.5172369  51.0652326  87.2787031  53.1306272
  51.5652104  87.3903566  52.3220591  51.7087933  86.9748084  53.7707081
  49.2297685  82.8392267  51.3275375  48.4630081  82.2850754  51.4732057
  49.6408390  82.9114136  52.1889526   6.8819052  11.1181453  42.9488264
   7.5197462  10.9988201  42.2451604   6.7639895  12.0662297  43.0076216
   3.6908758  11.0708881  42.8849788   3.3527270  10.9549946  41.9970323
   4.5598526  10.6700046  42.8650794   4.1728541  12.2243733  48.8435994
   4.1617182  11.8296531  47.9716498   4.3349181  11.4909806  49.4369765
   5.1295133  16.5915325  34.1861144   4.4783112  17.1769406  33.7995158
   5.9239495  17.1221520  34.2456182   0.8935802  15.0080845  47.7915178
   0.6025668  15.9126476  47.6761844   1.5292787  15.0497372  48.5059247
   1.8192009  12.3857693  44.3816537   2.4155581  12.1613716  43.6673500
   1.8766981  11.6442439  44.9841985   6.4360320   8.8432907  40.0241472
   7.2223410   8.4252330  39.6731889   6.6999025   9.7478999  40.1923120
   6.6070398  14.2805757  34.7230129   5.9716231  14.3540384  35.4351033
   6.2767804  14.8699356  34.0449208  11.8368748   8.7808140  40.9274450
  12.5693919   8.2107357  41.1612280  11.0808103   8.3929741  41.3680956
   3.4544867  11.2035382  38.1237793   3.0903074  10.6766003  38.8350714
   4.3111983  10.8133851  37.9504278   5.8525687  14.6942260  44.7864972
   5.5526411  15.5967299  44.6780779   5.5076747  14.4274444  45.6386124
   9.2522831   7.2124801  42.4662409   8.3439709   7.1440209  42.1721170
   9.2010427   7.6896746  43.2944234   8.7724641   9.1604412  34.9326142
   9.6842497   9.3931799  34.7573840   8.2634288   9.7441456  34.3701221
   7.0565409  13.5829040  48.5687435   7.4648765  13.1411451  47.8242067
   6.3342670  13.0081668  48.8221628   7.3794224  14.1430231  42.3239724
   6.7503086  14.3075945  41.6215791   6.9919886  14.5571840  43.0950688
  11.2583455  15.0784668  39.6784087  10.5734494  15.4583570  39.1281121
  11.3427305  15.6879995  40.4116035   8.5134387  12.7244627  46.2779431
   8.7251282  13.3676387  45.6013812   8.4664135  11.8906944  45.8101361
   2.9322185  13.8804639  39.5889809   3.3960531  14.1592342  38.7994431
   2.6678984  12.9788083  39.4062899   9.6280215  15.6016583  44.4501788
  10.4497659  15.1996770  44.1684470   9.6242618  15.4984817  45.4017904
   3.3936818  15.1500626  46.6062499   3.4581251  15.6121033  47.4420670
   2.6847742  14.5197991  46.7344808  17.7186208  11.9455331  40.7986760
  16.9649916  11.3762729  40.6430764  17.8533749  11.9117996  41.7457394
   3.1084836  16.8168734  36.4741479   2.9730511  17.6620269  36.9026327
   3.6494649  17.0188011  35.7107413   4.7353313  17.4392300  50.6041821
   4.2917167  16.6528679  50.2862726   5.3970526  17.6271451  49.9385712
   6.8334551  17.7195100  48.6323222   6.8153026  18.5403981  48.1403491
   7.7554471  17.5949175  48.8573363   3.2907605  15.2339230  49.4746731
   3.8235942  14.4727518  49.2446039   2.7621686  14.9412881  50.2170885
   6.4227582  10.3307907  33.5112808   5.9074206  11.1012511  33.7501195
   6.1504891   9.6573043  34.1345869  11.3961857  13.0840261  35.4465981
  10.6191299  12.7451421  35.0021143  12.0753338  13.0892884  34.7720946
   4.6560317  14.3625222  36.9865543   4.1281679  13.6277982  36.6738780
   4.1547820  15.1399898  36.7405511   9.6353163  12.5574243  42.1032589
   8.9776838  13.2473504  42.1912718  10.4393563  12.9470675  42.4466575
   8.4458622  10.9118615  40.1536531   8.9590504  11.5448607  40.6558240
   9.0959846  10.3119811  39.7879891   2.8012918  12.1805432  29.9900516
   1.8939979  11.9494686  30.1891665   3.2983950  11.3843052  30.1774497
   5.7080997  20.8902940  32.9097202   5.0342695  21.1934636  33.5182160
   6.0946818  21.6932020  32.5602659   5.7074501   9.7859487  37.5297552
   6.4546320  10.2980884  37.2204674   5.9766090   9.4643539  38.3901945
   3.9801151  12.2818027  34.5124506   3.0712370  11.9977060  34.6096976
   4.0096235  12.7017106  33.6527813   9.2120418  15.8924617  38.2815673
   8.7582746  15.0515527  38.3380864   8.5814385  16.5286015  38.6190454
   7.6553358  17.7301113  39.2165492   7.9476332  18.2906171  38.4977857
   8.1651978  18.0229674  39.9718651   3.6777239  13.8226771  31.8512584
   3.2396669  13.1062630  31.3918222   4.4187680  14.0502886  31.2897676
   2.6186983  18.5081465  40.3058945   2.5763162  18.7342311  39.3767477
   3.5349682  18.2744839  40.4544746   6.0652617   8.9765532  47.2039574
   6.4202004   9.2037005  48.0634040   6.7124748   9.3083909  46.5816829
  11.7950354  12.0983968  37.9088903  11.6568252  12.2885564  36.9810092
  11.4386572  12.8603351  38.3656954  11.8219733  14.1660495  42.9200174
  12.2556240  14.0735784  43.7683229  12.5351314  14.1417995  42.2820190
   5.5547628  17.7662589  44.4533275   5.6084650  18.3353525  45.2210991
   4.6862410  17.9364474  44.0887312  12.6835283  14.2084196  45.4533060
  12.8771173  15.1130006  45.6992335  12.5835901  13.7491615  46.2871645
   7.7450391  14.3590938  51.0273940   7.5935898  14.1301490  50.1104024
   7.7355071  15.3161540  51.0405285   4.5135728  11.9322851  46.0120207
   5.4427788  12.0834011  45.8389174   4.0926758  12.0206872  45.1568853
   3.3124060  15.9573516  43.7818745   3.1735145  15.5892300  44.6544683
   2.5238656  16.4721155  43.6102702   3.9072212  21.0582612  35.1244281
   4.0823967  20.5870655  35.9389904   3.2205000  21.6848378  35.3525542
   4.8629275  15.3355118  41.1707582   4.5279107  15.2955888  42.0665232
   4.3633221  14.6699834  40.6977993   7.7988466  12.6811153  31.4444642
   7.1817637  11.9557981  31.3477695   7.3304955  13.4420513  31.1011716
   9.4542598  17.3910061  49.1050422   9.3955144  16.7069281  48.4381005
   9.8562117  18.1329051  48.6531048   9.4560005  15.3549645  47.3364402
   8.5686784  15.0175567  47.4590801  10.0258556  14.6232676  47.5733167
   2.9861159  20.0151097  44.3025645   2.9131330  20.8206069  44.8144950
   2.5438552  20.2143063  43.4773667   2.7750938  19.2522867  37.8128467
   1.9918460  19.7944547  37.9066691   3.4743684  19.7696847  38.2122708
  13.9377346  10.7657862  42.0980964  13.9267222  11.6482578  41.7274897
  13.0694725  10.4129413  41.9035501   5.4459842  19.9137931  46.4583804
   6.1587815  20.5485396  46.3859705   4.9549871  20.0101797  45.6423806
   7.1677369  13.8189184  38.0301096   6.2333648  13.9390646  37.8605800
   7.3454038  12.9161651  37.7661105  10.5549921   9.6606503  38.5651130
  11.0210373  10.4934495  38.4911432  11.0057421   9.1951485  39.2696388
   8.6226152  16.0050324  35.5637282   8.8985996  15.8906919  36.4731156
   7.7530650  15.6067809  35.5249455   8.2973042  10.2176982  45.1041925
   7.6444492  10.4652890  44.4494378   8.6753422   9.4041120  44.7704402
   5.2580216  20.2536675  39.2070095   5.4402610  19.4358331  39.6697848
   6.0813202  20.4704368  38.7694985   5.5922381  19.1804860  36.4685144
   6.1210148  18.6697315  35.8555306   5.8550601  18.8647391  37.3330677
   4.3460615  10.9596793  51.5907962   3.6701252  10.8590923  52.2610337
   5.1688249  10.8036007  52.0543959   3.0883398  22.2663721  45.8265578
   3.6401706  22.4295342  46.5914663   3.4289591  22.8568158  45.1545603
   7.9394272  17.0924978  51.6814233   8.4834176  17.7054936  51.1869187
   7.3581117  17.6504557  52.1981246   6.2251785  20.2145696  42.8129260
   6.1002924  19.4135436  42.3040206   6.8830876  20.7091890  42.3243230
   8.2886693  18.0154716  44.4408810   7.3417029  17.8960067  44.3687137
   8.6369467  17.1277214  44.5235072   5.2933127  17.8107432  40.6413163
   5.1458089  16.8824140  40.8220733   6.1186620  17.8327523  40.1570238
   8.8967249  18.6335991  41.7278035   9.8213796  18.4278853  41.5902487
   8.7282552  18.3852392  42.6367377   8.6862565  19.1521659  37.0840127
   8.8599442  18.5868081  36.3313979   9.1791456  19.9522554  36.9019617
  14.5401956  11.9158082  38.7030427  14.9833102  11.1665407  38.3049550
  13.6628466  11.9068218  38.3204159   9.6737737  18.4688423  34.1837025
  10.3688642  19.0895116  34.4024340  10.0160887  17.6183774  34.4589403
  11.5729160  15.9188129  35.7124356  12.0980484  16.2575401  34.9873676
  11.4851513  14.9835144  35.5287490   3.2349209  19.8322202  47.8414232
   3.5436336  19.5871349  48.7136932   4.0324691  20.0368841  47.3533103
   3.2569821  21.9860112  40.0719609   2.8174811  21.4936491  40.7652466
   4.0077938  21.4433080  39.8311684  11.2623066  16.5521032  51.0175554
  10.4718610  16.5345171  50.4780053  11.0256421  17.0909326  51.7724590
  11.3820941  13.4013499  48.3308282  11.4318946  13.2363506  49.2723805
  11.2734865  12.5340758  47.9406163   8.6724704   9.3844427  49.6467589
   9.5734567   9.2450891  49.3551587   8.7472678   9.5498881  50.5865767
  12.8839138  15.8210440  48.5750304  12.5923947  16.1840421  49.4113765
  12.2711270  15.1077448  48.3963636  14.0834821  13.3863320  41.0952874
  14.9181712  13.8253124  41.2590434  14.2193949  12.9101973  40.2761120
  11.1326327  10.9443055  47.0430362  11.6080448  11.1370701  46.2349213
  10.2091892  11.0002241  46.7973746   3.7652606  18.5750175  33.0912119
   3.1926573  19.1940362  32.6382591   4.3385399  19.1249536  33.6252041
   9.8327996   7.8208815  45.2758667  10.7845418   7.9206912  45.2970892
   9.6631446   7.0287083  45.7856752   6.9849865  18.8587325  34.2220701
   7.9180539  18.7932887  34.4253576   6.8973078  19.6943592  33.7635234
   9.6137882  18.1753195  31.1824649   9.5351514  17.8413059  32.0760406
  10.4347549  18.6674963  31.1816121  12.3116073  11.0414935  44.3900967
  12.2792393  10.1030935  44.5760651  12.9216697  11.1198971  43.6566792
  12.4610562   7.8325978  44.4359250  11.9449610   7.0484435  44.2489179
  13.3450510   7.5044695  44.6005770  18.1292623  12.1030941  43.5307004
  18.8596012  11.8416229  44.0914707  17.5199569  11.3659663  43.5709072
  16.2107920  10.2438804  44.1281455  15.4841084  10.1094769  43.5197947
  15.7955207  10.5515633  44.9338173   4.0338097  13.9628734  51.8928828
   4.9541106  14.1407333  52.0868875   3.9987680  13.0184779  51.7408527
  11.3913157   5.7523037  40.4240946  12.1673547   6.2419489  40.6965563
  10.6661291   6.1781091  40.8812816  13.8285715   6.4650656  41.4814887
  14.4230206   6.2246392  40.7708195  13.9012299   5.7457787  42.1088423
   7.1841834  15.4921191  30.8034627   7.8877684  15.6971193  31.4192282
   6.4604483  16.0597953  31.0683710   8.0139644  11.2431052  36.9236897
   7.9574846  11.6999603  36.0844529   8.5667987  10.4821736  36.7459740
  11.8244450   7.0320784  37.7487017  11.5681384   6.6317419  38.5795224
  11.1997318   7.7464578  37.6237156  16.1356788   9.7716857  40.2558308
  15.5756346   9.8410046  41.0289870  15.5300291   9.5957842  39.5357804
   9.0928531  15.9303720  32.8533087   9.9274135  15.4984918  32.6710562
   8.9312874  15.7585733  33.7809981   8.7474424  12.4335833  34.2189426
   8.6923227  12.2680105  33.2777870   8.1220479  13.1411866  34.3751616
   6.0620331  14.7384745  53.5442989   6.9311490  14.9125397  53.1829624
   5.5827082  15.5579162  53.4218718   1.9860113  20.6112833  41.8842501
   1.0355744  20.6114694  41.7706874   2.2892599  19.8645567  41.3678536
  10.3889328  28.2536275  38.8746679   9.8254194  28.1626212  38.1062967
  10.2741723  27.4336180  39.3549172  15.0122296  27.5535651  48.8435994
  15.0010936  27.1588449  47.9716498  15.1742935  26.8201723  49.4369765
   7.9353760  29.7487467  41.7130900   8.7275052  29.4078292  41.2977199
   8.1750410  29.8582442  42.6333053  15.9688887  31.9207243  34.1861144
  15.3176867  32.5061324  33.7995158  16.7633250  32.4513438  34.2456182
   9.8944514  29.0096380  34.5848279  10.6675390  28.4625367  34.4461154
  10.2469913  29.8740630  34.7962740  11.7329557  30.3372763  47.7915178
  11.4419423  31.2418393  47.6761844  12.3686541  30.3789290  48.5059247
  12.6585764  27.7149611  44.3816537  13.2549336  27.4905633  43.6673500
  12.7160735  26.9734357  44.9841985  12.2310792  25.1689046  32.2166728
  12.4836313  24.6470568  31.4550191  11.2935351  25.0055192  32.3193412
  11.9507081  27.0717152  34.4191103  11.8343339  26.3962056  35.0872188
  12.0609341  26.5849526  33.6023256  20.1987922  17.8221632  45.3869059
  19.8671247  18.6917043  45.1630274  19.6033536  17.5057916  46.0663089
  13.9344109  21.5617199  33.1199141  14.1018511  22.4297436  33.4869612
  13.7441278  21.7244481  32.1960430  16.6919442  30.0234178  44.7864972
  16.3920165  30.9259217  44.6780779  16.3470501  29.7566361  45.6386124
  10.1431923  26.4747975  40.8201676   9.2182420  26.3424189  41.0279368
  10.3916337  27.2542194  41.3171618  13.9133330  24.0174857  34.1045808
  13.7932955  24.4631907  34.9431288  13.2185918  24.3660174  33.5459346
   7.5040734  26.1181248  41.6545465   7.6333116  26.3715727  42.5684877
   6.8238186  26.7108956  41.3350120  11.6740222  36.7878498  37.7535939
  11.5964251  37.7386324  37.8324420  11.0701865  36.4424371  38.4110866
  14.1657451  23.9606364  50.4097306  13.3890786  24.5200284  50.4000171
  14.8048015  24.4463147  50.9312176  12.4203824  26.7691817  49.9715273
  13.1618508  27.3076861  49.6950097  11.7140809  27.3958106  50.1286825
  17.8959163  28.9120958  48.5687435  18.3042519  28.4703368  47.8242067
  17.1736425  28.3373585  48.8221628  14.2490233  23.8493564  45.9420992
  15.0951429  24.2732978  46.0855641  14.1888871  23.1927189  46.6359555
  19.3528142  28.0536545  46.2779431  19.5645037  28.6968305  45.6013812
  19.3057890  27.2198862  45.8101361  10.6640021  28.7568038  42.5269572
  11.2341378  29.1855306  41.8887056  11.2548133  28.4750623  43.2253758
  12.7084826  25.3319709  36.3979374  13.4108869  25.7840752  36.8653300
  12.3765455  24.6903528  37.0259267  11.1565188  23.9231465  50.7730583
  10.5263848  24.6047746  51.0065980  11.0501275  23.8114547  49.8283721
   6.4510160  23.5903261  41.6996507   5.6609214  23.8460790  41.2236618
   6.9421407  24.4051599  41.8048548   8.4024905  23.9547841  38.6579984
   7.6056069  24.0666535  39.1763480   8.1750498  24.2934493  37.7920875
  14.2330573  30.4792544  46.6062499  14.2975005  30.9412951  47.4420670
  13.5241497  29.8489909  46.7344808   4.7347863  23.8433752  44.1311498
   4.9855901  24.7280762  44.3969074   5.2707411  23.6638353  43.3586590
  13.9478591  32.1460651  36.4741479  13.8124265  32.9912187  36.9026327
  14.4888403  32.3479929  35.7107413  10.4345930  18.2252231  53.1355834
  10.0412876  17.6718430  53.8103478  11.2512071  18.5362810  53.5262352
   7.4007988  29.6636089  37.0469404   7.9132509  30.4579340  37.1974969
   8.0530701  28.9662380  36.9803006   9.2102873  32.7801846  39.1292157
   9.3869501  33.7019810  38.9413141  10.0059706  32.4660265  39.5586537
  13.3513891  19.6410110  50.7276091  14.0923605  20.2417263  50.6480553
  13.5831814  18.8987748  50.1694133   8.4955229  24.8266478  49.0054320
   8.3808744  23.9251735  49.3061419   7.6399747  25.0730174  48.6539137
  15.5747067  32.7684218  50.6041821  15.1310921  31.9820596  50.2862726
  16.2364281  32.9563368  49.9385712  10.3334188  34.2980019  45.1302500
  10.8841613  34.1697083  44.3579493   9.4945664  34.5974908  44.7797392
  14.1301359  30.5631147  49.4746731  14.6629696  29.8019435  49.2446039
  13.6015440  30.2704799  50.2170885  17.2971054  15.6691213  45.0040372
  16.9535324  16.5592855  44.9279483  17.6650017  15.4792871  44.1409957
   5.3656905  27.9924744  37.8228975   6.2032127  28.4021752  37.6062682
   5.5435173  27.0524186  37.7929168  17.2621337  25.6599824  33.5112808
  16.7467960  26.4304429  33.7501195  16.9898645  24.9864961  34.1345869
  14.8468448  20.5049525  38.5698046  13.9910044  20.1156376  38.3903685
  15.2595400  20.5841486  37.7097831  16.3767595  18.0395868  42.9689606
  15.8732390  18.0026004  42.1557411  16.6698201  18.9488611  43.0286262
  12.6210480  18.1234598  41.9755787  13.4863477  17.9277407  41.6161677
  12.6887989  17.8944950  42.9025144  10.2272800  20.3536806  39.3472154
  10.8016551  20.1311988  38.6145347  10.8143782  20.4225501  40.1000756
  10.5542387  22.3841267  33.3668039   9.7179699  22.7215954  33.6877314
  10.4147156  22.2490247  32.4295176  12.5295467  17.2278055  38.0747224
  11.8759880  16.9127072  37.4503838  12.4875941  16.6053795  38.8007047
  13.6406672  27.5097350  29.9900516  12.7333734  27.2786603  30.1891665
  14.1377704  26.7134969  30.1774497  16.5474751  36.2194857  32.9097202
  15.8736450  36.5226554  33.5182160  16.9340573  37.0223938  32.5602659
  14.8194906  27.6109945  34.5124506  13.9106125  27.3268978  34.6096976
  14.8489989  28.0309023  33.6527813  19.0958720  14.9284772  40.1058110
  19.4017597  14.0682136  39.8184025  19.8211325  15.5202393  39.9057104
   5.3883076  25.3315459  38.4939708   5.1907476  24.7384820  37.7690775
   4.8329740  25.0267669  39.2115647  14.5170993  29.1518689  31.8512584
  14.0790423  28.4354548  31.3918222  15.2581434  29.3794803  31.2897676
  11.3072160  23.8415625  38.3724680  10.4940025  24.1409796  38.7789872
  11.8031154  23.4471314  39.0899162  13.4580737  33.8373382  40.3058945
  13.4156916  34.0634228  39.3767477  14.3743436  33.6036757  40.4544746
  16.9046371  24.3057450  47.2039574  17.2595759  24.5328923  48.0634040
  17.5518502  24.6375827  46.5816829  10.7986234  21.4133981  43.9885915
  11.4385614  21.2722740  43.2908878   9.9663765  21.1268494  43.6124517
  11.5746538  30.7136411  40.1020907  12.3687137  30.2186731  39.9003482
  10.8638231  30.1854274  39.7388613  16.3941383  33.0954507  44.4533275
  16.4478405  33.6645443  45.2210991  15.5256164  33.2656392  44.0887312
   7.8829302  24.8579493  36.1780660   6.9526890  24.7963948  36.3950622
   7.9786774  24.3355446  35.3817301   7.8014851  21.3834306  38.7658902
   8.0621668  22.2979639  38.6568062   8.6232023  20.9158748  38.9155515
   9.2739776  22.7972063  45.9357726   9.9462829  22.5889425  45.2870375
   8.4469563  22.5994149  45.4962959  15.1765348  19.4234004  47.9523387
  14.5293263  20.1223954  47.8587864  15.9466363  19.8570148  48.3199635
  18.5844146  29.6882856  51.0273940  18.4329652  29.4593408  50.1104024
  18.5748825  30.6453457  51.0405285  15.3529482  27.2614769  46.0120207
  16.2821542  27.4125928  45.8389174  14.9320512  27.3498790  45.1568853
  14.1517814  31.2865433  43.7818745  14.0128900  30.9184218  44.6544683
  13.3632410  31.8013073  43.6102702   9.6767273  26.0714666  46.6960163
   9.5387071  25.3394905  47.2971703  10.5872197  25.9823566  46.4144351
  18.6382221  28.0103070  31.4444642  18.0211392  27.2849898  31.3477695
  18.1698709  28.7712430  31.1011716  12.3049574  25.7834625  46.1843843
  13.0149192  25.1427817  46.1430462  12.2618882  26.0347520  47.1070024
  11.0178508  22.7699843  48.0039483  10.4815865  22.3190582  48.6561079
  10.4295216  22.9045752  47.2609947   9.3127051  39.5363892  41.8984141
   9.5523650  40.1682417  42.5763160   8.4696248  39.1851932  42.1849500
  10.4280767  22.2288495  30.5665946   9.5510233  22.1077295  30.2028193
  10.9038520  21.4374573  30.3144835  20.2953760  30.6841563  47.3364402
  19.4080539  30.3467484  47.4590801  20.8652311  29.9524594  47.5733167
   1.9482907  27.0165654  40.6607453   2.6353947  26.7027384  40.0728469
   1.7931036  27.9207019  40.3874705   6.7517629  21.9055851  45.0892477
   6.6675818  21.2981520  44.3542887   5.9300336  22.3964869  45.0901973
  13.8254913  35.3443015  44.3025645  13.7525085  36.1497986  44.8144950
  13.3832306  35.5434981  43.4773667  13.6144693  34.5814785  37.8128467
  12.8312215  35.1236465  37.9066691  14.3137438  35.0988765  38.2122708
  11.3365510  32.9924292  47.2789375  12.0374970  33.6260775  47.4318769
  10.8660625  33.3339024  46.5185014  19.3660338  17.3579008  42.6042031
  18.4523418  17.5883235  42.7724238  19.7953439  17.4417452  43.4556063
  16.4316136  34.5096778  36.4685144  16.9603902  33.9989233  35.8555306
  16.6944355  34.1939308  37.3330677  15.1854369  26.2888711  51.5907962
  14.5095006  26.1882840  52.2610337  16.0082003  26.1327925  52.0543959
   6.9333228  32.5260647  44.2120477   7.5186665  31.7804335  44.3448382
   6.7358067  32.8364604  45.0957141   9.7871884  35.5611895  39.2282920
   9.1182259  36.0458022  38.7446960   9.6484753  35.8081115  40.1426298
   1.5250883  25.0966248  42.9324921   1.5634983  24.5629838  43.7262039
   1.0191176  24.5701453  42.3135898  13.9277152  37.5955638  45.8265578
  14.4795460  37.7587260  46.5914663  14.2683346  38.1860076  45.1545603
   8.9041645  19.9430788  46.4287463   8.9682972  20.8045619  46.0164861
   8.8408766  19.3304790  45.6959821   8.3793918  22.0153921  50.0760497
   9.0065957  21.6330998  50.6898021   7.5221837  21.7968123  50.4416190
  18.7788027  32.4216896  51.6814233  19.3227931  33.0346854  51.1869187
  18.1974871  32.9796474  52.1981246   5.1559461  23.8230350  36.0078852
   5.4512902  22.9141028  35.9545906   4.2547496  23.8018089  35.6859854
  17.0645539  35.5437614  42.8129260  16.9396679  34.7427354  42.3040206
  17.7224631  36.0383807  42.3243230   8.6853708  21.8986346  41.9906401
   7.9640293  22.5122314  41.8513874   9.4746963  22.4344111  41.9123046
  11.4880021  19.2340773  48.2647052  12.0114423  19.4803069  49.0273362
  11.2692355  20.0660808  47.8450190   6.8847302  21.5044447  36.1318177
   6.5560008  20.6241826  35.9493283   7.2386673  21.4492116  37.0194566
  16.1326881  33.1399350  40.6413163  15.9851844  32.2116058  40.8220733
  16.9580375  33.1619441  40.1570238   9.9989125  21.7917417  36.4993655
  10.3385198  22.3203338  35.7772263  10.4461246  22.1297823  37.2752221
  12.6932566  20.1754468  45.9496723  12.3529387  19.3762281  46.3517403
  11.9871573  20.4756179  45.3773556  13.3449038  17.2603780  44.4024046
  14.1675107  16.7864259  44.2802936  13.5887102  18.0394264  44.9022732
  11.9857273  20.2892039  34.6986948  12.7065635  20.6673292  34.1950664
  11.3622577  21.0080916  34.8021925  16.1288395  20.9937188  35.6345280
  16.3452010  21.8761826  35.3334108  15.6482463  20.6023401  34.9050922
  10.8687617  23.9522901  42.2116024  10.7232198  24.2663204  43.1040306
  10.3912821  24.5707801  41.6586923   5.3433279  26.4928245  45.1503686
   4.7986747  27.2688053  45.2823960   6.2212629  26.8399050  44.9922807
  12.1320896  19.8239829  37.5284484  12.2536807  18.8956475  37.7275372
  11.8422938  19.8378515  36.6162800  15.0012086  17.5094740  40.6651204
  15.0233783  17.5734073  39.7103184  15.4180145  16.6699248  40.8591710
   6.1299301  25.6198142  48.0433842   5.3881037  25.7680777  48.6298473
   5.8092045  25.8806407  47.1800592  14.0742964  35.1614120  47.8414232
  14.3830090  34.9163267  48.7136932  14.8718446  35.3660758  47.3533103
   6.5755915  33.5063570  40.0744237   7.4013934  33.2067342  39.6942881
   6.2249967  32.7371193  40.5234026  11.5437448  32.8590039  42.1441911
  10.9217457  32.1960744  41.8444139  12.2142315  32.8851171  41.4615558
   4.7764520  31.4249897  41.0333171   3.9396428  30.9972071  40.8517172
   4.7488165  31.6182340  41.9703962  11.6161975  21.3371827  51.7374417
  11.6650131  22.2133949  51.3552186  12.1584489  20.7949220  51.1646060
  11.1050955  31.4093962  35.6200371  11.2539075  32.0929426  34.9667044
  11.9117398  31.3899052  36.1349827  13.8461264  22.0903199  48.4920775
  12.9764573  22.3836765  48.2203364  14.0820744  22.6743644  49.2128039
   8.8603588  27.4359140  36.6261440   8.6149630  26.5321470  36.8241650
   9.0299502  27.4376290  35.6840918  16.5500298  18.3082816  46.0086196
  17.0682241  19.0443843  45.6832684  16.1955430  18.6146809  46.8432955
   8.1299235  23.1687497  34.1247602   7.4368480  23.2431852  33.4687638
   7.8850987  22.4047841  34.6469119  16.8012892  14.7283099  41.5287092
  17.0814645  14.0606288  42.1547519  17.5863499  14.9212194  41.0161756
  14.6046360  33.9042092  33.0912119  14.0320327  34.5232280  32.6382591
  15.1779154  34.4541454  33.6252041  17.8243620  34.1879243  34.2220701
  18.7574293  34.1224804  34.4253576  17.7366833  35.0235509  33.7635234
  14.9893159  25.2402905  30.4328171  15.9352263  25.1109113  30.5016589
  14.6107404  24.5017567  30.9097599  20.9615043  16.9058911  40.3955063
  20.7639864  16.5973999  41.2798395  21.5714749  17.6320550  40.5252993
  14.8731851  29.2920651  51.8928828  15.7934861  29.4699250  52.0868875
  14.8381434  28.3476697  51.7408527  13.1736076  23.1652882  30.3683056
  12.2667531  22.8685994  30.4445770  13.4512057  22.8682700  29.5017343
   4.0914016  24.4859245  40.8182103   3.7716801  23.6324553  40.5256477
   3.5447444  24.7007823  41.5740070   7.8693924  27.2021686  44.5351609
   8.0879934  28.1338794  44.5539643   8.2819698  26.8429660  45.3206413
  14.7898142  17.7089771  36.5227298  13.9798870  17.3636856  36.8982544
  15.4782558  17.3997315  37.1114909  16.7188690  16.7867818  38.1451594
  17.2719728  17.2063271  38.8041617  16.9558776  15.8603566  38.1874550
  12.7421789  22.7754892  53.9254358  12.6418516  23.7249249  53.8566449
  12.5243331  22.4473131  53.0530428  11.9434860  20.0239817  30.5095036
  12.8054024  20.3494715  30.7690853  12.1285205  19.2371313  29.9968101
   3.9602276  28.1062156  42.7875224   3.2665748  27.6916109  42.2745179
   4.7075267  28.1482693  42.1908643  20.0967497  18.8968343  37.6530259
  19.5166166  19.5553147  37.2708311  19.8303430  18.0745688  37.2417676
  18.5471063  18.2973401  39.8551579  19.0470842  18.4089935  39.0465898
  19.1906671  17.9934454  40.4952387  12.6053059  26.2052031  52.7419420
  12.1220141  27.0052391  52.9483309  12.6913998  26.2159975  51.7886864
   5.8739019  28.0380410  40.6641239   5.8509707  28.1368098  39.7123122
   6.1839655  28.8845561  40.9858405   8.5326397  30.0956565  44.7787854
   9.4869650  30.0640508  44.7117785   8.3338920  29.6347189  45.5938080
   9.1225779  28.6657681  47.3458651   9.9418668  29.1601760  47.3693489
   9.3962586  27.7489649  47.3176219  18.8792375  21.0568434  36.7086607
  17.9918230  21.3418084  36.4906802  19.2946364  20.8962197  35.8613884
   6.8876625  35.6376185  41.7958052   6.7531093  34.8776586  41.2296050
   6.4708688  36.3617085  41.3286840  18.0235588  30.8213108  30.8034627
  18.7271439  31.0263111  31.4192282  17.2998237  31.3889870  31.0683710
  10.0445751  36.5345502  42.0076494   9.9278135  37.4790934  41.9055184
   9.2238198  36.2319063  42.3962293   4.3760693  22.9995815  48.0450848
   5.0219557  22.4894769  48.5338074   4.1677844  23.7364497  48.6194274
  16.9014085  30.0676663  53.5442989  17.7705245  30.2417315  53.1829624
  16.4220837  30.8871079  53.4218718  12.8964303  17.2635860  33.7974745
  12.8842973  18.2077700  33.9543015  13.7887725  17.0806005  33.5034206
  11.0700265  37.1873764  45.2232423  11.9727512  37.2197374  45.5398918
  10.8437635  36.2574215  45.2378758  12.8253867  35.9404750  41.8842501
  11.8749498  35.9406612  41.7706874  13.1286354  35.1937485  41.3678536
  16.7116423  13.8578636  38.0520681  15.9448819  13.3037123  38.1977364
  17.1227128  13.9300505  38.9134833   8.7158184  20.1463432  52.1425863
   9.5789646  19.7900237  52.3529187   8.1423595  19.8077327  52.8301267
  22.5723311  45.6664680  47.7915178  22.2813177  46.5710311  47.6761844
  23.2080296  45.7081208  48.5059247  15.5741617  39.1725670  44.1311498
  15.8249656  40.0572679  44.3969074  16.1101166  38.9930271  43.3586590
  19.3348984  40.1558395  49.0054320  19.2202499  39.2543652  49.3061419
  18.4793502  40.4022092  48.6539137  26.4140822  48.0976136  50.6041821
  25.9704676  47.3112514  50.2862726  27.0758035  48.2855286  49.9385712
  21.1727943  49.6271937  45.1302500  21.7235368  49.4989001  44.3579493
  20.3339419  49.9266826  44.7797392  28.5122060  48.3778935  48.6323222
  28.4940535  49.1987817  48.1403491  29.4341980  48.2533011  48.8573363
  24.9695114  45.8923065  49.4746731  25.5023451  45.1311353  49.2446039
  24.4409195  45.5996717  50.2170885  29.4237900  45.0174774  51.0273940
  29.2723407  44.7885325  50.1104024  29.4142580  45.9745375  51.0405285
  20.5161028  41.4006584  46.6960163  20.3780826  40.6686822  47.2971703
  21.4265951  41.3115484  46.4144351  31.1330107  48.0493896  49.1050422
  31.0742653  47.3653116  48.4381005  31.5349626  48.7912886  48.6531048
  20.1520806  54.8655810  41.8984141  20.3917404  55.4974334  42.5763160
  19.3090002  54.5143850  42.1849500  17.5911384  37.2347768  45.0892477
  17.5069572  36.6273438  44.3542887  16.7694090  37.7256787  45.0901973
  24.6648668  50.6734933  44.3025645  24.5918839  51.4789904  44.8144950
  24.2226061  50.8726898  43.4773667  27.1247351  50.5721767  46.4583804
  27.8375324  51.2069231  46.3859705  26.6337380  50.6685633  45.6423806
  22.1759265  48.3216210  47.2789375  22.8768724  48.9552693  47.4318769
  21.7054380  48.6630942  46.5185014  17.7726983  47.8552565  44.2120477
  18.3580420  47.1096253  44.3448382  17.5751821  48.1656522  45.0957141
  12.3644638  40.4258165  42.9324921  12.4028737  39.8921756  43.7262039
  11.8584930  39.8993371  42.3135898  24.7670907  52.9247556  45.8265578
  25.3189215  53.0879177  46.5914663  25.1077100  53.5151994  45.1545603
  29.6181781  47.7508813  51.6814233  30.1621685  48.3638772  51.1869187
  29.0368626  48.3088392  52.1981246  27.9039294  50.8729532  42.8129260
  27.7790433  50.0719271  42.3040206  28.5618385  51.3675725  42.3243230
  16.1827034  41.8220163  45.1503686  15.6380502  42.5979971  45.2823960
  17.0606383  42.1690968  44.9922807  16.9693055  40.9490059  48.0433842
  16.2274791  41.0972695  48.6298473  16.6485800  41.2098325  47.1800592
  24.9136718  50.4906038  47.8414232  25.2223844  50.2455184  48.7136932
  25.7112200  50.6952676  47.3533103  32.9410575  47.2104868  51.0175554
  32.1506119  47.1929006  50.4780053  32.7043930  47.7493161  51.7724590
  33.0608450  44.0597334  48.3308282  33.1106455  43.8947341  49.2723805
  32.9522374  43.1924593  47.9406163  34.5626647  46.4794275  48.5750304
  34.2711456  46.8424256  49.4113765  33.9498779  45.7661284  48.3963636
  18.7087678  42.5313604  44.5351609  18.9273688  43.4630711  44.5539643
  19.1213452  42.1721578  45.3206413  19.3720151  45.4248483  44.7787854
  20.3263405  45.3932425  44.7117785  19.1732675  44.9639107  45.5938080
  19.9619533  43.9949599  47.3458651  20.7812422  44.4893678  47.3693489
  20.2356341  43.0781567  47.3176219  17.7270380  50.9668102  41.7958052
  17.5924848  50.2068503  41.2296050  17.3102442  51.6909002  41.3286840
  20.8839506  51.8637419  42.0076494  20.7671890  52.8082852  41.9055184
  20.0631952  51.5610981  42.3962293  15.2154447  38.3287733  48.0450848
  15.8613311  37.8186687  48.5338074  15.0071599  39.0656414  48.6194274
  27.7407840  45.3968580  53.5442989  28.6098999  45.5709233  53.1829624
  27.2614591  46.2162997  53.4218718  21.9094020  52.5165681  45.2232423
  22.8121267  52.5489292  45.5398918  21.6831390  51.5866132  45.2378758
  36.2090022  57.0584634  42.8849788  35.8708533  56.9425699  41.9970323
  37.0779790  56.6575799  42.8650794  32.0676837  58.9120111  38.8746679
  31.5041703  58.8210048  38.1062967  31.9529232  58.0920015  39.3549172
  36.6909805  58.2119486  48.8435994  36.6798445  57.8172284  47.9716498
  36.8530444  57.4785559  49.4369765  29.6141269  60.4071302  41.7130900
  30.4062561  60.0662127  41.2977199  29.8537919  60.5166277  42.6333053
  37.6476396  62.5791078  34.1861144  36.9964376  63.1645159  33.7995158
  38.4420759  63.1097273  34.2456182  31.5732023  59.6680216  34.5848279
  32.3462899  59.1209203  34.4461154  31.9257422  60.5324465  34.7962740
  33.4117066  60.9956598  47.7915178  33.1206932  61.9002229  47.6761844
  34.0474050  61.0373126  48.5059247  34.3373273  58.3733446  44.3816537
  34.9336845  58.1489469  43.6673500  34.3948244  57.6318192  44.9841985
  33.9098301  55.8272882  32.2166728  34.1623822  55.3054403  31.4550191
  32.9722860  55.6639027  32.3193412  33.6294590  57.7300988  34.4191103
  33.5130848  57.0545891  35.0872188  33.7396850  57.2433362  33.6023256
  31.8219432  57.1331810  40.8201676  30.8969929  57.0008024  41.0279368
  32.0703846  57.9126030  41.3171618  29.1828243  56.7765084  41.6545465
  29.3120625  57.0299563  42.5684877  28.5025695  57.3692792  41.3350120
  33.3527731  67.4462334  37.7535939  33.2751760  68.3970159  37.8324420
  32.7489374  67.1008206  38.4110866  35.8444960  54.6190199  50.4097306
  35.0678295  55.1784119  50.4000171  36.4835524  55.1046982  50.9312176
  34.0991333  57.4275653  49.9715273  34.8406017  57.9660697  49.6950097
  33.3928318  58.0541941  50.1286825  35.9277742  54.5077400  45.9420992
  36.7738938  54.9316813  46.0855641  35.8676380  53.8511024  46.6359555
  32.3427530  59.4151873  42.5269572  32.9128887  59.8439142  41.8887056
  32.9335642  59.1334458  43.2253758  32.8352697  54.5815301  50.7730583
  32.2051357  55.2631582  51.0065980  32.7288784  54.4698382  49.8283721
  28.1297669  54.2487097  41.6996507  27.3396723  54.5044625  41.2236618
  28.6208916  55.0635435  41.8048548  30.0812414  54.6131676  38.6579984
  29.2843578  54.7250370  39.1763480  29.8538007  54.9518328  37.7920875
  35.9118082  61.1376379  46.6062499  35.9762514  61.5996786  47.4420670
  35.2029006  60.5073744  46.7344808  26.4135372  54.5017587  44.1311498
  26.6643410  55.3864597  44.3969074  26.9494920  54.3222189  43.3586590
  35.6266100  62.8044487  36.4741479  35.4911774  63.6496022  36.9026327
  36.1675912  63.0063764  35.7107413  32.1133439  48.8836067  53.1355834
  31.7200385  48.3302265  53.8103478  32.9299580  49.1946645  53.5262352
  29.0795497  60.3219925  37.0469404  29.5920018  61.1163175  37.1974969
  29.7318210  59.6246215  36.9803006  30.8890382  63.4385681  39.1292157
  31.0657010  64.3603646  38.9413141  31.6847215  63.1244100  39.5586537
  35.0301400  50.2993946  50.7276091  35.7711114  50.9001099  50.6480553
  35.2619323  49.5571583  50.1694133  30.1742738  55.4850313  49.0054320
  30.0596253  54.5835570  49.3061419  29.3187256  55.7314010  48.6539137
  37.2534576  63.4268053  50.6041821  36.8098430  62.6404432  50.2862726
  37.9151790  63.6147204  49.9385712  32.0121697  64.9563855  45.1302500
  32.5629122  64.8280918  44.3579493  31.1733173  65.2558744  44.7797392
  39.3515814  63.7070853  48.6323222  39.3334289  64.5279734  48.1403491
  40.2735734  63.5824928  48.8573363  35.8088868  61.2214983  49.4746731
  36.3417205  60.4603271  49.2446039  35.2802949  60.9288634  50.2170885
  27.0444414  58.6508579  37.8228975  27.8819636  59.0605587  37.6062682
  27.2222681  57.7108021  37.7929168  35.3194181  58.1681185  29.9900516
  34.4121243  57.9370439  30.1891665  35.8165213  57.3718805  30.1774497
  38.2262260  66.8778693  32.9097202  37.5523959  67.1810389  33.5182160
  38.6128082  67.6807773  32.5602659  27.0670585  55.9899294  38.4939708
  26.8694985  55.3968655  37.7690775  26.5117249  55.6851505  39.2115647
  36.1958502  59.8102524  31.8512584  35.7577932  59.0938383  31.3918222
  36.9368943  60.0378639  31.2897676  35.1368246  64.4957218  40.3058945
  35.0944425  64.7218064  39.3767477  36.0530945  64.2620592  40.4544746
  33.2534047  61.3720247  40.1020907  34.0474646  60.8770567  39.9003482
  32.5425740  60.8438110  39.7388613  29.5616811  55.5163328  36.1780660
  28.6314399  55.4547784  36.3950622  29.6574283  54.9939281  35.3817301
  30.9527285  53.4555898  45.9357726  31.6250338  53.2473260  45.2870375
  30.1257072  53.2577984  45.4962959  36.8552857  50.0817839  47.9523387
  36.2080772  50.7807789  47.8587864  37.6253872  50.5153983  48.3199635
  37.0316991  57.9198604  46.0120207  37.9609051  58.0709764  45.8389174
  36.6108021  58.0082625  45.1568853  35.8305323  61.9449269  43.7818745
  35.6916409  61.5768053  44.6544683  35.0419919  62.4596908  43.6102702
  36.4253475  67.0458365  35.1244281  36.6005231  66.5746408  35.9389904
  35.7386263  67.6724131  35.3525542  31.3554782  56.7298501  46.6960163
  31.2174580  55.9978740  47.2971703  32.2659706  56.6407401  46.4144351
  33.9837083  56.4418461  46.1843843  34.6936701  55.8011653  46.1430462
  33.9406391  56.6931355  47.1070024  41.9723862  63.3785814  49.1050422
  41.9136408  62.6945034  48.4381005  42.3743380  64.1204804  48.6531048
  32.6966017  53.4283678  48.0039483  32.1603374  52.9774417  48.6561079
  32.1082725  53.5629587  47.2609947  30.9914560  70.1947728  41.8984141
  31.2311159  70.8266252  42.5763160  30.1483757  69.8435768  42.1849500
  23.6270416  57.6749490  40.6607453  24.3141456  57.3611220  40.0728469
  23.4718545  58.5790854  40.3874705  28.4305138  52.5639686  45.0892477
  28.3463327  51.9565356  44.3542887  27.6087845  53.0548704  45.0901973
  35.5042422  66.0026850  44.3025645  35.4312594  66.8081822  44.8144950
  35.0619815  66.2018816  43.4773667  35.2932202  65.2398620  37.8128467
  34.5099724  65.7820300  37.9066691  35.9924947  65.7572600  38.2122708
  37.9641106  65.9013684  46.4583804  38.6769078  66.5361149  46.3859705
  37.4731134  65.9977550  45.6423806  33.0153019  63.6508128  47.2789375
  33.7162479  64.2844611  47.4318769  32.5448134  63.9922859  46.5185014
  37.7761479  66.2412428  39.2070095  37.9583874  65.4234084  39.6697848
  38.5994465  66.4580121  38.7694985  38.1103645  65.1680613  36.4685144
  38.6391411  64.6573068  35.8555306  38.3731864  64.8523144  37.3330677
  36.8641878  56.9472546  51.5907962  36.1882515  56.8466676  52.2610337
  37.6869512  56.7911760  52.0543959  28.6120737  63.1844483  44.2120477
  29.1974174  62.4388171  44.3448382  28.4145576  63.4948439  45.0957141
  31.4659393  66.2195730  39.2282920  30.7969768  66.7041858  38.7446960
  31.3272262  66.4664951  40.1426298  23.2038392  55.7550083  42.9324921
  23.2422492  55.2213674  43.7262039  22.6978685  55.2285288  42.3135898
  35.6064661  68.2539474  45.8265578  36.1582969  68.4171095  46.5914663
  35.9470855  68.8443911  45.1545603  30.5829154  50.6014623  46.4287463
  30.6470481  51.4629454  46.0164861  30.5196275  49.9888625  45.6959821
  30.0581427  52.6737756  50.0760497  30.6853466  52.2914833  50.6898021
  29.2009346  52.4551958  50.4416190  40.4575536  63.0800731  51.6814233
  41.0015440  63.6930689  51.1869187  39.8762380  63.6380310  52.1981246
  26.8346970  54.4814185  36.0078852  27.1300411  53.5724864  35.9545906
  25.9335005  54.4601925  35.6859854  38.7433048  66.2021449  42.8129260
  38.6184188  65.4011189  42.3040206  39.4012140  66.6967643  42.3243230
  33.1667530  49.8924608  48.2647052  33.6901932  50.1386905  49.0273362
  32.9479864  50.7244643  47.8450190  34.3720075  50.8338303  45.9496723
  34.0316896  50.0346116  46.3517403  33.6659082  51.1340014  45.3773556
  32.5475126  54.6106736  42.2116024  32.4019707  54.9247039  43.1040306
  32.0700329  55.2291637  41.6586923  36.2597639  52.0346625  44.3050041
  36.0015417  52.9563695  44.3034372  35.7282680  51.6377059  44.9950506
  27.0220788  57.1512081  45.1503686  26.4774256  57.9271889  45.2823960
  27.9000138  57.4982885  44.9922807  27.8086810  56.2781977  48.0433842
  27.0668546  56.4264612  48.6298473  27.4879554  56.5390243  47.1800592
  35.7530473  65.8197955  47.8414232  36.0617599  65.5747102  48.7136932
  36.5505955  66.0244594  47.3533103  35.7751085  67.9735865  40.0719609
  35.3356075  67.4812244  40.7652466  36.5259202  67.4308833  39.8311684
  28.2543424  64.1647406  40.0744237  29.0801443  63.8651178  39.6942881
  27.9037476  63.3955028  40.5234026  33.2224957  63.5173874  42.1441911
  32.6004966  62.8544579  41.8444139  33.8929824  63.5435006  41.4615558
  26.4552029  62.0833732  41.0333171  25.6183937  61.6555907  40.8517172
  26.4275674  62.2766176  41.9703962  33.2949484  51.9955662  51.7374417
  33.3437640  52.8717785  51.3552186  33.8371998  51.4533055  51.1646060
  32.7838464  62.0677797  35.6200371  32.9326584  62.7513262  34.9667044
  33.5904907  62.0482887  36.1349827  35.5248773  52.7487034  48.4920775
  34.6552082  53.0420600  48.2203364  35.7608253  53.3327479  49.2128039
  30.5391097  58.0942975  36.6261440  30.2937139  57.1905305  36.8241650
  30.7087011  58.0960125  35.6840918  38.2287806  48.9666651  46.0086196
  38.7469750  49.7027678  45.6832684  37.8742939  49.2730645  46.8432955
  36.2833869  64.5625928  33.0912119  35.7107836  65.1816115  32.6382591
  36.8566663  65.1125289  33.6252041  39.5031129  64.8463078  34.2220701
  40.4361802  64.7808640  34.4253576  39.4154342  65.6819345  33.7635234
  42.1319146  64.1628948  31.1824649  42.0532777  63.8288812  32.0760406
  42.9528812  64.6550716  31.1816121  36.5519360  59.9504487  51.8928828
  37.4722370  60.1283086  52.0868875  36.5168943  59.0060532  51.7408527
  25.7701525  55.1443080  40.8182103  25.4504310  54.2908389  40.5256477
  25.2234953  55.3591658  41.5740070  29.5481433  57.8605521  44.5351609
  29.7667443  58.7922629  44.5539643  29.9607207  57.5013496  45.3206413
  34.4209298  53.4338727  53.9254358  34.3206025  54.3833084  53.8566449
  34.2030840  53.1056966  53.0530428  25.6389785  58.7645992  42.7875224
  24.9453257  58.3499945  42.2745179  26.3862776  58.8066528  42.1908643
  34.2840568  56.8635866  52.7419420  33.8007650  57.6636226  52.9483309
  34.3701507  56.8743811  51.7886864  27.5526528  58.6964246  40.6641239
  27.5297216  58.7951933  39.7123122  27.8627164  59.5429396  40.9858405
  30.2113906  60.7540401  44.7787854  31.1657159  60.7224343  44.7117785
  30.0126429  60.2931024  45.5938080  30.8013288  59.3241517  47.3458651
  31.6206177  59.8185595  47.3693489  31.0750095  58.4073485  47.3176219
  28.5664134  66.2960020  41.7958052  28.4318602  65.5360421  41.2296050
  28.1496197  67.0200920  41.3286840  39.7023097  61.4796944  30.8034627
  40.4058948  61.6846946  31.4192282  38.9785746  62.0473706  31.0683710
  31.7233260  67.1929337  42.0076494  31.6065644  68.1374770  41.9055184
  30.9025707  66.8902899  42.3962293  26.0548202  53.6579651  48.0450848
  26.7007066  53.1478605  48.5338074  25.8465353  54.3948332  48.6194274
  38.5801594  60.7260498  53.5442989  39.4492754  60.9001150  53.1829624
  38.1008346  61.5454915  53.4218718  32.7487774  67.8457599  45.2232423
  33.6515021  67.8781209  45.5398918  32.5225144  66.9158050  45.2378758
  34.5041376  66.5988586  41.8842501  33.5537007  66.5990447  41.7706874
  34.8073863  65.8521320  41.3678536  30.3945693  50.8047268  52.1425863
  31.2577155  50.4484072  52.3529187  29.8211104  50.4661162  52.8301267
  42.9070592  74.2412028  38.8746679  42.3435457  74.1501965  38.1062967
  42.7922987  73.4211933  39.3549172  47.5303559  73.5411404  48.8435994
  47.5192200  73.1464202  47.9716498  47.6924199  72.8077476  49.4369765
  40.4535024  75.7363220  41.7130900  41.2456316  75.3954045  41.2977199
  40.6931674  75.8458195  42.6333053  48.4870151  77.9082996  34.1861144
  47.8358130  78.4937077  33.7995158  49.2814513  78.4389191  34.2456182
  42.4125778  74.9972133  34.5848279  43.1856654  74.4501120  34.4461154
  42.7651177  75.8616383  34.7962740  44.2510820  76.3248516  47.7915178
  43.9600686  77.2294146  47.6761844  44.8867805  76.3665043  48.5059247
  44.7492056  71.1564799  32.2166728  45.0017576  70.6346321  31.4550191
  43.8116615  70.9930945  32.3193412  49.9645416  75.5973428  34.7230129
  49.3291249  75.6708055  35.4351033  49.6342822  76.1867027  34.0449208
  44.4688344  73.0592905  34.4191103  44.3524602  72.3837809  35.0872188
  44.5790604  72.5725279  33.6023256  49.2100705  76.0109931  44.7864972
  48.9101428  76.9134970  44.6780779  48.8651765  75.7442114  45.6386124
  42.6613187  72.4623728  40.8201676  41.7363683  72.3299942  41.0279368
  42.9097600  73.2417947  41.3171618  40.0221998  72.1057001  41.6545465
  40.1514379  72.3591480  42.5684877  39.3419449  72.6984709  41.3350120
  44.1921485  82.7754251  37.7535939  44.1145515  83.7262077  37.8324420
  43.5883129  82.4300124  38.4110866  44.9385087  72.7567570  49.9715273
  45.6799772  73.2952614  49.6950097  44.2322073  73.3833859  50.1286825
  50.4140427  74.8996711  48.5687435  50.8223783  74.4579121  47.8242067
  49.6917688  74.3249338  48.8221628  50.7369242  75.4597901  42.3239724
  50.1078104  75.6243615  41.6215791  50.3494904  75.8739511  43.0950688
  54.6158473  76.3952339  39.6784087  53.9309512  76.7751241  39.1281121
  54.7002323  77.0047666  40.4116035  51.8709405  74.0412298  46.2779431
  52.0826300  74.6844058  45.6013812  51.8239153  73.2074615  45.8101361
  46.2897203  75.1972309  39.5889809  46.7535549  75.4760012  38.7994431
  46.0254002  74.2955754  39.4062899  43.1821284  74.7443791  42.5269572
  43.7522642  75.1731059  41.8887056  43.7729396  74.4626376  43.2253758
  43.6746451  69.9107218  50.7730583  43.0445112  70.5923499  51.0065980
  43.5682539  69.7990300  49.8283721  38.9691423  69.5779014  41.6996507
  38.1790477  69.8336543  41.2236618  39.4602671  70.3927352  41.8048548
  52.9855233  76.9184254  44.4501788  53.8072677  76.5164441  44.1684470
  52.9817636  76.8152488  45.4017904  40.9206169  69.9423594  38.6579984
  40.1237332  70.0542288  39.1763480  40.6931761  70.2810246  37.7920875
  46.7511836  76.4668297  46.6062499  46.8156269  76.9288704  47.4420670
  46.0422760  75.8365662  46.7344808  37.2529126  69.8309505  44.1311498
  37.5037165  70.7156515  44.3969074  37.7888675  69.6514106  43.3586590
  61.0761226  73.2623002  40.7986760  60.3224934  72.6930400  40.6430764
  61.2108767  73.2285667  41.7457394  46.4659854  78.1336404  36.4741479
  46.3305529  78.9787940  36.9026327  47.0069667  78.3355682  35.7107413
  39.9189252  75.6511842  37.0469404  40.4313772  76.4455093  37.1974969
  40.5711964  74.9538133  36.9803006  41.7284136  78.7677599  39.1292157
  41.9050765  79.6895563  38.9413141  42.5240970  78.4536018  39.5586537
  41.0136493  70.8142231  49.0054320  40.8990008  69.9127488  49.3061419
  40.1581010  71.0605927  48.6539137  48.0928330  78.7559971  50.6041821
  47.6492185  77.9696349  50.2862726  48.7545544  78.9439121  49.9385712
  42.8515452  80.2855773  45.1302500  43.4022877  80.1572836  44.3579493
  42.0126928  80.5850662  44.7797392  50.1909569  79.0362771  48.6323222
  50.1728044  79.8571652  48.1403491  51.1129489  78.9116846  48.8573363
  46.6482623  76.5506900  49.4746731  47.1810960  75.7895189  49.2446039
  46.1196704  76.2580552  50.2170885  37.8838168  73.9800497  37.8228975
  38.7213390  74.3897505  37.6062682  38.0616436  73.0399939  37.7929168
  49.7802600  71.6475577  33.5112808  49.2649224  72.4180182  33.7501195
  49.5079909  70.9740714  34.1345869  54.7536875  74.4007932  35.4465981
  53.9766317  74.0619092  35.0021143  55.4328356  74.4060555  34.7720946
  48.0135335  75.6792893  36.9865543  47.4856697  74.9445652  36.6738780
  47.5122838  76.4567569  36.7405511  52.9928181  73.8741913  42.1032589
  52.3351856  74.5641175  42.1912718  53.7968581  74.2638345  42.4466575
  51.8033640  72.2286286  40.1536531  52.3165522  72.8616278  40.6558240
  52.4534864  71.6287481  39.7879891  43.0723650  68.3717020  33.3668039
  42.2360962  68.7091707  33.6877314  42.9328420  68.2366000  32.4295176
  46.1587936  73.4973103  29.9900516  45.2514997  73.2662357  30.1891665
  46.6558968  72.7010722  30.1774497  49.0656014  82.2070610  32.9097202
  48.3917713  82.5102307  33.5182160  49.4521836  83.0099691  32.5602659
  47.3376169  73.5985698  34.5124506  46.4287388  73.3144731  34.6096976
  47.3671253  74.0184776  33.6527813  52.5695436  77.2092287  38.2815673
  52.1157764  76.3683197  38.3380864  51.9389403  77.8453686  38.6190454
  51.0128376  79.0468784  39.2165492  51.3051350  79.6073841  38.4977857
  51.5226996  79.3397345  39.9718651  37.9064339  71.3191212  38.4939708
  37.7088739  70.7260573  37.7690775  37.3511003  71.0143422  39.2115647
  47.0352257  75.1394442  31.8512584  46.5971687  74.4230301  31.3918222
  47.7762698  75.3670556  31.2897676  43.8253423  69.8291378  38.3724680
  43.0121289  70.1285549  38.7789872  44.3212417  69.4347067  39.0899162
  45.9762001  79.8249135  40.3058945  45.9338180  80.0509982  39.3767477
  46.8924700  79.5912510  40.4544746  55.1525372  73.4151639  37.9088903
  55.0143270  73.6053235  36.9810092  54.7961590  74.1771021  38.3656954
  55.1794751  75.4828166  42.9200174  55.6131258  75.3903455  43.7683229
  55.8926332  75.4585666  42.2820190  44.0927802  76.7012164  40.1020907
  44.8868400  76.2062484  39.9003482  43.3819494  76.1730027  39.7388613
  48.9122646  79.0830260  44.4533275  48.9659668  79.6521196  45.2210991
  48.0437427  79.2532145  44.0887312  40.4010565  70.8455246  36.1780660
  39.4708153  70.7839701  36.3950622  40.4968037  70.3231199  35.3817301
  40.3196114  67.3710059  38.7658902  40.5802931  68.2855392  38.6568062
  41.1413287  66.9034501  38.9155515  56.0410301  75.5251866  45.4533060
  56.2346191  76.4297677  45.6992335  55.9410919  75.0659285  46.2871645
  51.1025409  75.6758609  51.0273940  50.9510916  75.4469161  50.1104024
  51.0930089  76.6329210  51.0405285  47.8710746  73.2490522  46.0120207
  48.8002806  73.4001681  45.8389174  47.4501776  73.3374543  45.1568853
  46.6699078  77.2741186  43.7818745  46.5310163  76.9059971  44.6544683
  45.8813674  77.7888826  43.6102702  47.2647230  82.3750283  35.1244281
  47.4398985  81.9038326  35.9389904  46.5780018  83.0016049  35.3525542
  48.2204293  76.6522789  41.1707582  47.8854125  76.6123559  42.0665232
  47.7208238  75.9867505  40.6977993  42.1948537  72.0590419  46.6960163
  42.0568335  71.3270658  47.2971703  43.1053460  71.9699319  46.4144351
  51.1563484  73.9978823  31.4444642  50.5392655  73.2725651  31.3477695
  50.6879973  74.7588184  31.1011716  52.8117616  78.7077732  49.1050422
  52.7530162  78.0236952  48.4381005  53.2137134  79.4496722  48.6531048
  43.5359771  68.7575596  48.0039483  42.9997128  68.3066335  48.6561079
  42.9476480  68.8921505  47.2609947  42.9462030  68.2164248  30.5665946
  42.0691497  68.0953048  30.2028193  43.4219783  67.4250326  30.3144835
  52.8135023  76.6717316  47.3364402  51.9261802  76.3343237  47.4590801
  53.3833574  75.9400347  47.5733167  34.4664170  73.0041407  40.6607453
  35.1535210  72.6903137  40.0728469  34.3112299  73.9082772  40.3874705
  39.2698893  67.8931604  45.0892477  39.1857081  67.2857273  44.3542887
  38.4481599  68.3840622  45.0901973  46.3436177  81.3318768  44.3025645
  46.2706348  82.1373739  44.8144950  45.9013570  81.5310734  43.4773667
  46.1325956  80.5690538  37.8128467  45.3493478  81.1112218  37.9066691
  46.8318702  81.0864518  38.2122708  57.2952364  72.0825533  42.0980964
  57.2842240  72.9650248  41.7274897  56.4269743  71.7297084  41.9035501
  48.8034860  81.2305602  46.4583804  49.5162832  81.8653067  46.3859705
  48.3124889  81.3269468  45.6423806  50.5252387  75.1356855  38.0301096
  49.5908666  75.2558317  37.8605800  50.7029056  74.2329321  37.7661105
  43.8546774  78.9800045  47.2789375  44.5556233  79.6136528  47.4318769
  43.3841889  79.3214777  46.5185014  51.9801170  77.3217995  35.5637282
  52.2561014  77.2074590  36.4731156  51.1105668  76.9235480  35.5249455
  51.6548060  71.5344653  45.1041925  51.0019510  71.7820560  44.4494378
  52.0328440  70.7208791  44.7704402  48.6155234  81.5704346  39.2070095
  48.7977628  80.7526002  39.6697848  49.4388220  81.7872038  38.7694985
  48.9497399  80.4972531  36.4685144  49.4785166  79.9864986  35.8555306
  49.2125619  80.1815061  37.3330677  47.7035633  72.2764464  51.5907962
  47.0276270  72.1758593  52.2610337  48.5263267  72.1203678  52.0543959
  39.4514492  78.5136400  44.2120477  40.0367929  77.7680088  44.3448382
  39.2539330  78.8240357  45.0957141  42.3053147  81.5487648  39.2282920
  41.6363522  82.0333775  38.7446960  42.1666017  81.7956868  40.1426298
  34.0432147  71.0842001  42.9324921  34.0816246  70.5505591  43.7262039
  33.5372439  70.5577206  42.3135898  46.4458416  83.5831391  45.8265578
  46.9976724  83.7463013  46.5914663  46.7864609  84.1735829  45.1545603
  41.4222909  65.9306541  46.4287463  41.4864235  66.7921372  46.0164861
  41.3590029  65.3180543  45.6959821  40.8975181  68.0029674  50.0760497
  41.5247220  67.6206751  50.6898021  40.0403100  67.7843876  50.4416190
  51.2969290  78.4092649  51.6814233  51.8409194  79.0222607  51.1869187
  50.7156135  78.9672227  52.1981246  37.6740724  69.8106103  36.0078852
  37.9694165  68.9016781  35.9545906  36.7728760  69.7893842  35.6859854
  49.5826803  81.5313367  42.8129260  49.4577942  80.7303107  42.3040206
  50.2405894  82.0259560  42.3243230  41.2034971  67.8862099  41.9906401
  40.4821557  68.4998067  41.8513874  41.9928227  68.4219864  41.9123046
  51.6461711  79.3322387  44.4408810  50.6992047  79.2127738  44.3687137
  51.9944484  78.4444885  44.5235072  39.4028566  67.4920200  36.1318177
  39.0741272  66.6117579  35.9493283  39.7567936  67.4367869  37.0194566
  48.6508145  79.1275103  40.6413163  48.5033107  78.1991811  40.8220733
  49.4761638  79.1495194  40.1570238  52.2542266  79.9503662  41.7278035
  53.1788814  79.7446523  41.5902487  52.0857570  79.7020063  42.6367377
  52.0437583  80.4689329  37.0840127  52.2174460  79.9035752  36.3313979
  52.5366474  81.2690224  36.9019617  37.8614543  72.4803998  45.1503686
  37.3168011  73.2563806  45.2823960  38.7393892  72.8274803  44.9922807
  57.8976974  73.2325752  38.7030427  58.3408120  72.4833077  38.3049550
  57.0203484  73.2235889  38.3204159  53.0312755  79.7856094  34.1837025
  53.7263660  80.4062786  34.4024340  53.3735905  78.9351445  34.4589403
  38.6480564  71.6073895  48.0433842  37.9062300  71.7556530  48.6298473
  38.3273309  71.8682160  47.1800592  54.9304178  77.2355799  35.7124356
  55.4555502  77.5743072  34.9873676  54.8426531  76.3002815  35.5287490
  46.5924227  81.1489873  47.8414232  46.9011353  80.9039020  48.7136932
  47.3899709  81.3536511  47.3533103  46.6144839  83.3027783  40.0719609
  46.1749829  82.8104161  40.7652466  47.3652956  82.7600750  39.8311684
  39.0937178  79.4939323  40.0744237  39.9195198  79.1943095  39.6942881
  38.7431230  78.7246946  40.5234026  44.0618711  78.8465792  42.1441911
  43.4398720  78.1836497  41.8444139  44.7323578  78.8726924  41.4615558
  37.2945783  77.4125650  41.0333171  36.4577691  76.9847824  40.8517172
  37.2669429  77.6058093  41.9703962  44.1343239  67.3247580  51.7374417
  44.1831394  68.2009702  51.3552186  44.6765753  66.7824973  51.1646060
  54.6198084  77.8688703  51.0175554  53.8293628  77.8512842  50.4780053
  54.3831439  78.4076997  51.7724590  54.7395959  74.7181169  48.3308282
  54.7893964  74.5531177  49.2723805  54.6309883  73.8508428  47.9406163
  43.6232218  77.3969715  35.6200371  43.7720338  78.0805179  34.9667044
  44.4298662  77.3774805  36.1349827  52.0299722  70.7012097  49.6467589
  52.9309585  70.5618562  49.3551587  52.1047696  70.8666552  50.5865767
  56.2414156  77.1378111  48.5750304  55.9498965  77.5008091  49.4113765
  55.6286288  76.4245119  48.3963636  57.4409839  74.7030991  41.0952874
  58.2756730  75.1420795  41.2590434  57.5768967  74.2269644  40.2761120
  54.4901345  72.2610725  47.0430362  54.9655466  72.4538372  46.2349213
  53.5666910  72.3169911  46.7973746  41.3784851  73.4234893  36.6261440
  41.1330893  72.5197223  36.8241650  41.5480766  73.4252043  35.6840918
  40.6480499  69.1563250  34.1247602  39.9549744  69.2307605  33.4687638
  40.4032251  68.3923594  34.6469119  47.1227624  79.8917845  33.0912119
  46.5501591  80.5108033  32.6382591  47.6960417  80.4417207  33.6252041
  50.3424883  80.1754996  34.2220701  51.2755557  80.1100557  34.4253576
  50.2548096  81.0111262  33.7635234  52.9712900  79.4920866  31.1824649
  52.8926532  79.1580730  32.0760406  53.7922567  79.9842634  31.1816121
  55.6691091  72.3582605  44.3900967  55.6367411  71.4198606  44.5760651
  56.2791715  72.4366642  43.6566792  47.5074422  71.2278658  30.4328171
  48.4533527  71.0984866  30.5016589  47.1288667  70.4893320  30.9097599
  55.8185580  69.1493649  44.4359250  55.3024628  68.3652105  44.2489179
  56.7025528  68.8212365  44.6005770  61.4867641  73.4198612  43.5307004
  62.2171030  73.1583900  44.0914707  60.8774587  72.6827334  43.5709072
  59.5682938  71.5606475  44.1281455  58.8416102  71.4262440  43.5197947
  59.1530225  71.8683303  44.9338173  47.3913115  75.2796404  51.8928828
  48.3116124  75.4575003  52.0868875  47.3562698  74.3352450  51.7408527
  45.6917339  69.1528635  30.3683056  44.7848795  68.8561747  30.4445770
  45.9693320  68.8558453  29.5017343  36.6095280  70.4734998  40.8182103
  36.2898064  69.6200306  40.5256477  36.0628708  70.6883576  41.5740070
  40.3875187  73.1897439  44.5351609  40.6061197  74.1214547  44.5539643
  40.8000961  72.8305413  45.3206413  45.2603053  68.7630645  53.9254358
  45.1599779  69.7125002  53.8566449  45.0424595  68.4348884  53.0530428
  44.4616124  66.0115570  30.5095036  45.3235288  66.3370468  30.7690853
  44.6466468  65.2247066  29.9968101  36.4783540  74.0937909  42.7875224
  35.7847011  73.6791862  42.2745179  37.2256531  74.1358446  42.1908643
  45.1234323  72.1927784  52.7419420  44.6401404  72.9928144  52.9483309
  45.2095262  72.2035728  51.7886864  38.3920282  74.0256163  40.6641239
  38.3690970  74.1243851  39.7123122  38.7020919  74.8721314  40.9858405
  41.0507660  76.0832318  44.7787854  42.0050914  76.0516261  44.7117785
  40.8520184  75.6222942  45.5938080  41.6407042  74.6533434  47.3458651
  42.4599931  75.1477513  47.3693489  41.9143850  73.7365402  47.3176219
  39.4057889  81.6251938  41.7958052  39.2712357  80.8652339  41.2296050
  38.9889951  82.3492838  41.3286840  50.5416852  76.8088861  30.8034627
  51.2452702  77.0138864  31.4192282  49.8179501  77.3765623  31.0683710
  51.3714662  72.5598723  36.9236897  51.3149864  73.0167274  36.0844529
  51.9243005  71.7989407  36.7459740  59.4931806  71.0884528  40.2558308
  58.9331364  71.1577717  41.0289870  58.8875309  70.9125512  39.5357804
  42.5627015  82.5221255  42.0076494  42.4459399  83.4666687  41.9055184
  41.7419461  82.2194816  42.3962293  52.4503549  77.2471391  32.8533087
  53.2849153  76.8152589  32.6710562  52.2887892  77.0753404  33.7809981
  52.1049441  73.7503504  34.2189426  52.0498245  73.5847775  33.2777870
  51.4795497  74.4579537  34.3751616  36.8941956  68.9871568  48.0450848
  37.5400820  68.4770522  48.5338074  36.6859108  69.7240250  48.6194274
  49.4195349  76.0552416  53.5442989  50.2886508  76.2293068  53.1829624
  48.9402100  76.8746833  53.4218718  43.5881529  83.1749517  45.2232423
  44.4908776  83.2073127  45.5398918  43.3618899  82.2449968  45.2378758
  45.3435131  81.9280503  41.8842501  44.3930762  81.9282365  41.7706874
  45.6467617  81.1813238  41.3678536  41.2339447  66.1339185  52.1425863
  42.0970909  65.7775990  52.3529187  40.6604858  65.7953080  52.8301267
  57.8877531  87.7168470  42.8849788  57.5496042  87.6009534  41.9970323
  58.7567299  87.3159635  42.8650794  53.7464346  89.5703946  38.8746679
  53.1829211  89.4793883  38.1062967  53.6316741  88.7503851  39.3549172
  58.3697314  88.8703321  48.8435994  58.3585954  88.4756120  47.9716498
  58.5317953  88.1369394  49.4369765  56.0160782  89.0317282  44.3816537
  56.6124354  88.8073304  43.6673500  56.0735753  88.2902027  44.9841985
  55.5885810  86.4856717  32.2166728  55.8411331  85.9638238  31.4550191
  54.6510369  86.3222863  32.3193412  60.6329093  85.4892495  40.0241472
  61.4192182  85.0711919  39.6731889  60.8967797  86.3938588  40.1923120
  55.3082099  88.3884823  34.4191103  55.1918357  87.7129726  35.0872188
  55.4184359  87.9017197  33.6023256  57.6513640  87.8494970  38.1237793
  57.2871847  87.3225591  38.8350714  58.5080756  87.4593439  37.9504278
  63.5562940  79.1389303  45.3869059  63.2246265  80.0084714  45.1630274
  62.9608554  78.8225587  46.0663089  57.2919127  82.8784870  33.1199141
  57.4593529  83.7465106  33.4869612  57.1016296  83.0412152  32.1960430
  53.5006941  87.7915646  40.8201676  52.5757438  87.6591860  41.0279368
  53.7491355  88.5709865  41.3171618  63.4491604  83.8584389  42.4662409
  62.5408481  83.7899797  42.1721170  63.3979199  84.3356334  43.2944234
  57.2708348  85.3342527  34.1045808  57.1507973  85.7799578  34.9431288
  56.5760936  85.6827845  33.5459346  50.8615752  87.4348919  41.6545465
  50.9908134  87.6883398  42.5684877  50.1813204  88.0276627  41.3350120
  57.5232469  85.2774035  50.4097306  56.7465804  85.8367955  50.4000171
  58.1623033  85.7630818  50.9312176  65.3153250  82.0600827  44.2440283
  64.6727630  82.3533361  43.5980077  64.8108179  81.9453748  45.0493479
  55.7778842  88.0859488  49.9715273  56.5193526  88.6244532  49.6950097
  55.0715827  88.7125777  50.1286825  57.6065251  85.1661235  45.9420992
  58.4526447  85.5900649  46.0855641  57.5463889  84.5094859  46.6359555
  60.7564697  82.8265604  47.6002165  60.5125629  83.5807664  47.0636441
  61.0324627  83.2050951  48.4349412  60.3129389  81.9822037  43.1816003
  59.4513868  82.2803290  43.4732741  60.3391823  82.1992435  42.2497036
  56.0659844  86.6487379  36.3979374  56.7683887  87.1008423  36.8653300
  55.7340472  86.0071198  37.0259267  54.5140206  85.2399136  50.7730583
  53.8838866  85.9215417  51.0065980  54.4076293  85.1282218  49.8283721
  49.8085178  84.9070932  41.6996507  49.0184232  85.1628461  41.2236618
  50.2996425  85.7219270  41.8048548  51.7599923  85.2715511  38.6579984
  50.9631087  85.3834206  39.1763480  51.5325516  85.6102164  37.7920875
  48.0922881  85.1601423  44.1311498  48.3430919  86.0448432  44.3969074
  48.6282429  84.9806024  43.3586590  53.7920948  79.5419902  53.1355834
  53.3987894  78.9886100  53.8103478  54.6087089  79.8530480  53.5262352
  56.7088909  80.9577781  50.7276091  57.4498623  81.5584934  50.6480553
  56.9406832  80.2155419  50.1694133  51.8530247  86.1434148  49.0054320
  51.7383762  85.2419406  49.3061419  50.9974765  86.3897845  48.6539137
  60.6546072  76.9858884  45.0040372  60.3110342  77.8760526  44.9279483
  61.0225035  76.7960542  44.1409957  58.2043466  81.8217196  38.5698046
  57.3485062  81.4324046  38.3903685  58.6170418  81.9009157  37.7097831
  59.7342613  79.3563539  42.9689606  59.2307408  79.3193674  42.1557411
  60.0273219  80.2656282  43.0286262  55.9785498  79.4402269  41.9755787
  56.8438495  79.2445078  41.6161677  56.0463007  79.2112621  42.9025144
  60.4082658  84.8494587  35.3372589  60.1032794  85.1640736  36.1882732
  61.3613100  84.9276007  35.3799922  53.5847818  81.6704477  39.3472154
  54.1591569  81.4479658  38.6145347  54.1718800  81.7393171  40.1000756
  53.9117405  83.7008938  33.3668039  53.0754717  84.0383624  33.6877314
  53.7722174  83.5657918  32.4295176  55.8870485  78.5445726  38.0747224
  55.2334898  78.2294743  37.4503838  55.8450959  77.9221466  38.8007047
  56.9981690  88.8265021  29.9900516  56.0908752  88.5954274  30.1891665
  57.4952722  88.0302640  30.1774497  59.1208226  85.0327659  42.3994871
  58.2030787  85.2542606  42.2416559  59.5368369  85.1073970  41.5406579
  59.9043273  86.4319075  37.5297552  60.6515092  86.9440472  37.2204674
  60.1734863  86.1103128  38.3901945  62.3522111  83.4676191  39.5116341
  61.6144867  82.9553577  39.8426583  62.6048884  83.0276573  38.6999618
  62.4533738  76.2452443  40.1058110  62.7592615  75.3849807  39.8184025
  63.1786343  76.8370063  39.9057104  48.7458094  86.6483130  38.4939708
  48.5482494  86.0552490  37.7690775  48.1904758  86.3435340  39.2115647
  56.7254818  86.5406236  40.6134301  56.7803427  85.5880073  40.5376778
  55.9146020  86.6965675  41.0975600  54.6647177  85.1583296  38.3724680
  53.8515043  85.4577467  38.7789872  55.1606172  84.7638985  39.0899162
  60.2621389  85.6225120  47.2039574  60.6170777  85.8496594  48.0634040
  60.9093520  85.9543497  46.5816829  54.1561252  82.7301651  43.9885915
  54.7960632  82.5890411  43.2908878  53.3238783  82.4436165  43.6124517
  51.2404320  86.1747164  36.1780660  50.3101908  86.1131619  36.3950622
  51.3361792  85.6523116  35.3817301  51.1589869  82.7001976  38.7658902
  51.4196686  83.6147310  38.6568062  51.9807041  82.2326419  38.9155515
  52.6314794  84.1139734  45.9357726  53.3037847  83.9057096  45.2870375
  51.8044581  83.9161820  45.4962959  58.5340366  80.7401675  47.9523387
  57.8868281  81.4391624  47.8587864  59.3041381  81.1737818  48.3199635
  53.0342291  87.3882337  46.6960163  52.8962089  86.6562575  47.2971703
  53.9447215  87.2991237  46.4144351  55.6624592  87.1002296  46.1843843
  56.3724210  86.4595488  46.1430462  55.6193900  87.3515191  47.1070024
  54.3753526  84.0867514  48.0039483  53.8390883  83.6358252  48.6561079
  53.7870234  84.2213423  47.2609947  53.7855785  83.5456165  30.5665946
  52.9085251  83.4244966  30.2028193  54.2613538  82.7542244  30.3144835
  50.1092647  83.2223522  45.0892477  50.0250836  82.6149191  44.3542887
  49.2875354  83.7132540  45.0901973  60.2816361  81.7077085  40.4562672
  60.7785061  80.9547047  40.1363742  59.5103343  81.7441402  39.8905881
  56.8651330  83.8494468  40.1834357  56.4949117  83.2965508  40.8715262
  57.3610422  83.2452602  39.6309357  62.7235356  78.6746679  42.6042031
  61.8098436  78.9050905  42.7724238  63.1528457  78.7585123  43.4556063
  58.5429387  87.6056382  51.5907962  57.8670024  87.5050511  52.2610337
  59.3657021  87.4495595  52.0543959  44.8825901  86.4133918  42.9324921
  44.9210001  85.8797509  43.7262039  44.3766194  85.8869124  42.3135898
  52.2616663  81.2598459  46.4287463  52.3257990  82.1213290  46.0164861
  52.1983784  80.6472460  45.6959821  51.7368936  83.3321591  50.0760497
  52.3640975  82.9498669  50.6898021  50.8796855  83.1135793  50.4416190
  48.5134479  85.1398020  36.0078852  48.8087920  84.2308699  35.9545906
  47.6122514  85.1185760  35.6859854  52.0428726  83.2154017  41.9906401
  51.3215311  83.8289985  41.8513874  52.8321981  83.7511782  41.9123046
  54.8455039  80.5508444  48.2647052  55.3689441  80.7970740  49.0273362
  54.6267372  81.3828478  47.8450190  50.2422320  82.8212118  36.1318177
  49.9135026  81.9409497  35.9493283  50.5961691  82.7659787  37.0194566
  53.3564143  83.1085088  36.4993655  53.6960216  83.6371009  35.7772263
  53.8036264  83.4465494  37.2752221  56.0507584  81.4922139  45.9496723
  55.7104405  80.6929952  46.3517403  55.3446591  81.7923849  45.3773556
  56.7024056  78.5771451  44.4024046  57.5250125  78.1031929  44.2802936
  56.9462120  79.3561935  44.9022732  55.3432291  81.6059710  34.6986948
  56.0640653  81.9840962  34.1950664  54.7197595  82.3248586  34.8021925
  59.4863413  82.3104858  35.6345280  59.7027028  83.1929496  35.3334108
  59.0057481  81.9191072  34.9050922  54.2262635  85.2690572  42.2116024
  54.0807216  85.5830875  43.1040306  53.7487838  85.8875472  41.6586923
  56.0859018  82.2593120  42.2596914  56.0720586  81.3634213  41.9229212
  56.8031446  82.2663783  42.8935200  57.9385148  82.6930460  44.3050041
  57.6802926  83.6147531  44.3034372  57.4070189  82.2960894  44.9950506
  55.4895914  81.1407500  37.5284484  55.6111825  80.2124146  37.7275372
  55.1997956  81.1546186  36.6162800  58.3587104  78.8262410  40.6651204
  58.3808801  78.8901744  39.7103184  58.7755163  77.9866919  40.8591710
  49.4874319  86.9365812  48.0433842  48.7456055  87.0848448  48.6298473
  49.1667063  87.1974078  47.1800592  54.9736993  82.6539497  51.7374417
  55.0225149  83.5301620  51.3552186  55.5159507  82.1116890  51.1646060
  57.2036282  83.4070870  48.4920775  56.3339591  83.7004436  48.2203364
  57.4395762  83.9911315  49.2128039  52.2178606  88.7526810  36.6261440
  51.9724648  87.8489140  36.8241650  52.3874520  88.7543961  35.6840918
  59.9075315  79.6250487  46.0086196  60.4257259  80.3611514  45.6832684
  59.5530448  79.9314480  46.8432955  51.4874253  84.4855168  34.1247602
  50.7943498  84.5599523  33.4687638  51.2426005  83.7215512  34.6469119
  60.1587910  76.0450769  41.5287092  60.4389663  75.3773958  42.1547519
  60.9438517  76.2379865  41.0161756  62.0511147  81.5523986  45.4618068
  61.4561080  81.8328999  44.7664557  61.7660844  82.0417887  46.2334810
  58.3468177  86.5570576  30.4328171  59.2927281  86.4276784  30.5016589
  57.9682422  85.8185238  30.9097599  64.3190061  78.2226582  40.3955063
  64.1214882  77.9141670  41.2798395  64.9289767  78.9488221  40.5252993
  56.5311094  84.4820552  30.3683056  55.6242549  84.1853665  30.4445770
  56.8087075  84.1850370  29.5017343  47.4489034  85.8026916  40.8182103
  47.1291819  84.9492224  40.5256477  46.9022462  86.0175494  41.5740070
  58.1473160  79.0257442  36.5227298  57.3373888  78.6804527  36.8982544
  58.8357576  78.7164986  37.1114909  60.0763708  78.1035489  38.1451594
  60.6294746  78.5230942  38.8041617  60.3133794  77.1771237  38.1874550
  56.0996807  84.0922562  53.9254358  55.9993534  85.0416919  53.8566449
  55.8818349  83.7640801  53.0530428  55.3009878  81.3407487  30.5095036
  56.1629042  81.6662386  30.7690853  55.4860223  80.5538983  29.9968101
  63.4542515  80.2136014  37.6530259  62.8741184  80.8720818  37.2708311
  63.1878448  79.3913359  37.2417676  61.9046081  79.6141072  39.8551579
  62.4045860  79.7257606  39.0465898  62.5481689  79.3102124  40.4952387
  55.9628077  87.5219701  52.7419420  55.4795159  88.3220061  52.9483309
  56.0489016  87.5327646  51.7886864  62.2367393  82.3736104  36.7086607
  61.3493248  82.6585755  36.4906802  62.6521382  82.2129868  35.8613884
  65.5881929  82.3982625  40.4240946  66.3642319  82.8879078  40.6965563
  64.8630063  82.8240679  40.8812816  47.7335711  84.3163486  48.0450848
  48.3794575  83.8062440  48.5338074  47.5252862  85.0532168  48.6194274
  56.2539321  78.5803531  33.7974745  56.2417991  79.5245370  33.9543015
  57.1462743  78.3973676  33.5034206  60.0691441  75.1746307  38.0520681
  59.3023837  74.6204794  38.1977364  60.4802146  75.2468176  38.9134833
  52.0733202  81.4631103  52.1425863  52.9364664  81.1067908  52.3529187
  51.4998613  81.1244998  52.8301267  17.7212808   3.4535494  29.6733570
  18.3591218   3.3342241  28.9696910  17.6033651   4.4016337  29.7321522
  14.5302514   3.4062922  29.6095095  14.1921025   3.2903986  28.7215630
  15.3992282   3.0054087  29.5896101  15.0122297   4.5597773  35.5681300
  15.0010938   4.1650572  34.6961804  15.1742936   3.8263846  36.1615072
  15.9688888   8.9269366  20.9106451  15.3176868   9.5123446  20.5240465
  16.7633251   9.4575561  20.9701488  11.7329558   7.3434885  34.5160484
  11.4419424   8.2480516  34.4007151  12.3686542   7.3851413  35.2304554
  12.6585765   4.7211734  31.1061844  13.2549337   4.4967756  30.3918807
  12.7160736   3.9796479  31.7087292  17.2754076   1.1786947  26.7486778
  18.0617165   0.7606371  26.3977195  17.5392780   2.0833040  26.9168427
  22.6762503   1.1162181  27.6519757  23.4087675   0.5461397  27.8857586
  21.9201859   0.7283781  28.0926262  14.2938623   3.5389422  24.8483099
  13.9296830   3.0120043  25.5596021  15.1505739   3.1487891  24.6749585
  16.6919443   7.0296301  31.5110278  16.3920166   7.9321339  31.4026085
  16.3470503   6.7628484  32.3631431  20.0916587  -0.4521159  29.1907715
  19.1833464  -0.5205751  28.8966476  20.0404183   0.0250786  30.0189541
  11.6740223  13.7940621  24.4781246  11.5964253  14.7448446  24.5569726
  11.0701867  13.4486494  25.1356172  17.8959165   5.9183080  35.2932741
  18.3042521   5.4765491  34.5487374  17.1736426   5.3435708  35.5466934
  18.2187979   6.4784271  29.0485030  17.5896842   6.6429985  28.3461098
  17.8313641   6.8925880  29.8195994  22.0977211   7.4138709  26.4029394
  21.4128249   7.7937610  25.8526427  22.1821061   8.0234035  27.1361342
  19.3528143   5.0598668  33.0024737  19.5645038   5.7030428  32.3259119
  19.3057891   4.2260984  32.5346667  13.7715941   6.2158679  26.3135115
  14.2354287   6.4946382  25.5239738  13.5072739   5.3142124  26.1308206
  10.6640022   5.7630161  29.2514878  11.2341379   6.1917429  28.6132363
  11.2548134   5.4812745  29.9499064  20.4673971   7.9370623  31.1747095
  21.2891415   7.5350810  30.8929776  20.4636374   7.8338857  32.1263211
  14.2330574   7.4854666  33.3307805  14.2975007   7.9475074  34.1665977
  13.5241498   6.8552031  33.4590115  28.5579964   4.2809372  27.5232066
  27.8043672   3.7116770  27.3676071  28.6927505   4.2472036  28.4702701
  13.9478592   9.1522774  23.1986786  13.8124267   9.9974310  23.6271633
  14.4888404   9.3542052  22.4352719   9.2102874   9.7863968  25.8537464
   9.3869502  10.7081933  25.6658448  10.0059708   9.4722387  26.2831844
  15.5747068   9.7746340  37.3287128  15.1310922   8.9882719  37.0108032
  16.2364282   9.9625491  36.6631018  10.3334189  11.3042142  31.8547806
  10.8841615  11.1759205  31.0824800   9.4945665  11.6037031  31.5042699
  17.6728306  10.0549140  35.3568529  17.6546782  10.8758021  34.8648798
  18.5948226   9.9303216  35.5818670  14.1301361   7.5693270  36.1992037
  14.6629697   6.8081558  35.9691345  13.6015442   7.2766922  36.9416192
  22.2355612   5.4194302  22.1711288  21.4585055   5.0805461  21.7266450
  22.9147093   5.4246925  21.4966253  15.4954073   6.6979262  23.7110849
  14.9675435   5.9632022  23.3984087  14.9941576   7.4753939  23.4650818
  20.4746919   4.8928283  28.8277896  19.8170594   5.5827544  28.9158024
  21.2787318   5.2824715  29.1711882  19.2852378   3.2472656  26.8781837
  19.7984260   3.8802647  27.3803547  19.9353602   2.6473851  26.5125197
  16.5474752  13.2256980  19.6342509  15.8736451  13.5288677  20.2427466
  16.9340574  14.0286060  19.2847966  16.5468257   2.1213527  24.2542858
  17.2940076   2.6334924  23.9449980  16.8159846   1.7997580  25.1147252
  20.0514174   8.2278657  25.0060980  19.5976501   7.3869567  25.0626170
  19.4208141   8.8640055  25.3435760  18.4947113  10.0655154  25.9410798
  18.7870088  10.6260211  25.2223164  19.0045734  10.3583715  26.6963957
  13.4580739  10.8435505  27.0304251  13.4156917  11.0696351  26.1012783
  14.3743438  10.6098879  27.1790053  16.9046372   1.3119572  33.9284881
  17.2595760   1.5391045  34.7879346  17.5518504   1.6437949  33.3062136
  22.6344109   4.4338008  24.6334210  22.4962008   4.6239604  23.7055399
  22.2780328   5.1957391  25.0902261  22.6613489   6.5014535  29.6445481
  23.0949996   6.4089824  30.4928535  23.3745070   6.4772036  29.0065497
  11.5746539   7.7198534  26.8266214  12.3687138   7.2248854  26.6248789
  10.8638232   7.1916397  26.4633920  16.3941384  10.1016629  31.1778582
  16.4478406  10.6707566  31.9456298  15.5256165  10.2718514  30.8132619
  23.5229039   6.5438236  32.1778367  23.7164929   7.4484046  32.4237641
  23.4229657   6.0845655  33.0116952  18.5844147   6.6944979  37.7519247
  18.4329654   6.4655530  36.8349331  18.5748827   7.6515580  37.7650592
  15.3529484   4.2676891  32.7365514  16.2821544   4.4188051  32.5634481
  14.9320514   4.3560912  31.8814160  14.1517815   8.2927556  30.5064051
  14.0128901   7.9246340  31.3789989  13.3632412   8.8075195  30.3348009
  14.7465967  13.3936652  21.8489588  14.9217723  12.9224695  22.6635210
  14.0598755  14.0202418  22.0770848  15.7023031   7.6709158  27.8952889
  15.3672863   7.6309928  28.7910539  15.2026976   7.0053874  27.4223299
  20.2936354   9.7264101  35.8295729  20.2348900   9.0423321  35.1626312
  20.6955872  10.4683091  35.3776355   9.3127053  16.5426015  28.6229448
   9.5523651  17.1744539  29.3008466   8.4696249  16.1914055  28.9094807
  20.2953761   7.6903685  34.0609709  19.4080540   7.3529607  34.1836108
  20.8652312   6.9586716  34.2978474  13.8254915  12.3505137  31.0270952
  13.7525086  13.1560109  31.5390256  13.3832308  12.5497103  30.2018973
  13.6144694  11.5876907  24.5373773  12.8312216  12.1298588  24.6311998
  14.3137439  12.1050887  24.9368015  24.7771102   3.1011902  28.8226270
  24.7660978   3.9836618  28.4520203  23.9088481   2.7483453  28.6280807
  16.2853598  12.2491971  33.1829111  16.9981570  12.8839436  33.1105012
  15.7943627  12.3455837  32.3669112  18.0071125   6.1543224  24.7546402
  17.0727404   6.2744687  24.5851107  18.1847793   5.2515691  24.4906412
  21.3943676   1.9960543  25.2896436  21.8604129   2.8288535  25.2156739
  21.8451177   1.5305525  25.9941695  11.3365512   9.9986415  34.0034681
  12.0374971  10.6322898  34.1564076  10.8660627  10.3401146  33.2430321
  19.4619907   8.3404365  22.2882588  19.7379751   8.2260959  23.1976462
  18.5924406   7.9421850  22.2494761  19.1366798   2.5531022  31.8287232
  18.4838248   2.8006930  31.1739684  19.5147177   1.7395161  31.4949709
  16.0973971  12.5890716  25.9315402  16.2796366  11.7712372  26.3943154
  16.9206957  12.8058408  25.4940292  16.4316137  11.5158901  23.1930450
  16.9603903  11.0051355  22.5800613  16.6944357  11.2001431  24.0575983
  15.1854371   3.2950833  38.3153269  14.5095008   3.1944963  38.9855644
  16.0082004   3.1390047  38.7789266   6.9333230   9.5322770  30.9365784
   7.5186666   8.7866458  31.0693688   6.7358068   9.8426727  31.8202448
   9.7871885  12.5674017  25.9528226   9.1182260  13.0520145  25.4692266
   9.6484755  12.8143238  26.8671605  13.9277153  14.6017761  32.5510885
  14.4795462  14.7649382  33.3159970  14.2683347  15.1922199  31.8790910
  18.7788028   9.4279018  38.4059539  19.3227932  10.0408977  37.9114494
  18.1974873   9.9858597  38.9226552  17.0645541  12.5499736  29.5374567
  16.9396680  11.7489476  29.0285512  17.7224632  13.0445930  29.0488537
  19.1280449  10.3508757  31.1654117  18.1810785  10.2314108  31.0932444
  19.4763222   9.4631255  31.2480378  16.1326882  10.1461473  27.3658469
  15.9851845   9.2178180  27.5466039  16.9580376  10.1681563  26.8815544
  19.7361004  10.9690031  28.4523342  20.6607552  10.7632893  28.3147793
  19.5676308  10.7206433  29.3612683  19.5256321  11.4875699  23.8085433
  19.6993198  10.9222121  23.0559286  20.0185212  12.2876594  23.6264923
  25.3795712   4.2512122  25.4275733  25.8226858   3.5019447  25.0294856
  24.5022222   4.2422258  25.0449465  20.5131493  10.8042463  20.9082332
  21.2082398  11.4249156  21.1269646  20.8554643   9.9537815  21.1834710
  22.4122916   8.2542169  22.4369662  22.9374240   8.5929442  21.7118983
  22.3245269   7.3189184  22.2532797  14.0742965  12.1676243  34.5659539
  14.3830091  11.9225389  35.4382239  14.8718447  12.3722881  34.0778409
  14.0963577  14.3214152  26.7964916  13.6568567  13.8290531  27.4897772
  14.8471694  13.7787120  26.5556991   6.5755916  10.5125693  26.7989544
   7.4013936  10.2129465  26.4188187   6.2249968   9.7433315  27.2479332
  11.5437449   9.8652161  28.8687217  10.9217458   9.2022866  28.5689445
  12.2142316   9.8913293  28.1860865  22.1016822   8.8875072  37.7420860
  21.3112366   8.8699211  37.2025360  21.8650177   9.4263366  38.4969897
  22.2214697   5.7367539  35.0553589  22.2712702   5.5717546  35.9969112
  22.1128621   4.8694798  34.6651470  19.5118460   1.7198467  36.3712896
  20.4128322   1.5804932  36.0796893  19.5866434   1.8852922  37.3111073
  23.7232894   8.1564480  35.2995611  23.4317702   8.5194461  36.1359071
  23.1105025   7.4431489  35.1208943  24.9228576   5.7217360  27.8198181
  25.7575468   6.1607164  27.9835741  25.0587705   5.2456013  27.0006427
  21.9720082   3.2797095  33.7675669  22.4474204   3.4724741  32.9594520
  21.0485648   3.3356281  33.5219052  20.6721751   0.1562855  32.0003974
  21.6239174   0.2560953  32.0216198  20.5025202  -0.6358876  32.5102058
  17.8243621  11.1941365  20.9466008  18.7574294  11.1286927  21.1498883
  17.7366834  12.0297632  20.4880540  20.4531638  10.5107235  17.9069955
  20.3745269  10.1767099  18.8005713  21.2741305  11.0029003  17.9061428
  23.1509829   3.3768975  31.1146274  23.1186149   2.4384976  31.3005958
  23.7610453   3.4553012  30.3812099  23.3004318   0.1680018  31.1604557
  22.7843366  -0.6161525  30.9734486  24.1844266  -0.1601265  31.3251076
  28.9686379   4.4384982  30.2552311  29.6989767   4.1770270  30.8160014
  28.3593324   3.7013704  30.2954379  27.0501676   2.5792844  30.8526762
  26.3234840   2.4448809  30.2443253  26.6348963   2.8869673  31.6583480
  14.8731852   6.2982774  38.6174135  15.7934862   6.4761373  38.8114181
  14.8381436   5.3538819  38.4653834  22.2306912  -1.9122923  27.1486253
  23.0067302  -1.4226470  27.4210870  21.5055047  -1.4864869  27.6058122
  24.6679471  -1.1995304  28.2060193  25.2623962  -1.4399568  27.4953502
  24.7406055  -1.9188173  28.8333730   6.8876627  12.6438307  28.5203358
   6.7531095  11.8838708  27.9541356   6.4708689  13.3679207  28.0532147
  18.8533400   3.5785092  23.6482204  18.7968601   4.0353644  22.8089836
  19.4061742   2.8175777  23.4705046  22.6638206  -0.6325176  24.4732323
  22.4075140  -1.0328540  25.3040531  22.0391074   0.0818618  24.3482462
  26.9750544   2.1070897  26.9803615  26.4150102   2.1764087  27.7535177
  26.3694047   1.9311882  26.2603111  10.0445753  13.5407624  28.7321801
   9.9278137  14.4853057  28.6300491   9.2238199  13.2381186  29.1207600
  19.9322287   8.2657760  19.5778394  20.7667891   7.8338959  19.3955868
  19.7706630   8.0939774  20.5055288  16.9014086   7.0738785  40.2688296
  17.7705246   7.2479438  39.9074931  16.4220838   7.8933202  40.1464025
  11.0700267  14.1935886  31.9477729  11.9727513  14.2259497  32.2644224
  10.8437637  13.2636337  31.9624065  12.8253869  12.9466873  28.6087808
  11.8749500  12.9468734  28.4952180  13.1286355  12.1999607  28.0923843
  21.2283084  20.5890316  25.5991986  20.6647949  20.4980253  24.8308274
  21.1135479  19.7690220  26.0794478  18.7747516  22.0841507  28.4376206
  19.5668808  21.7432332  28.0222506  19.0144166  22.1936482  29.3578360
  20.7338270  21.3450421  21.3093585  21.5069146  20.7979408  21.1706461
  21.0863669  22.2094670  21.5208047  23.0704548  17.5043087  18.9412035
  23.3230069  16.9824608  18.1795498  22.1329107  17.3409232  19.0438719
  28.1147831  16.5078865  26.7486778  28.9010920  16.0898288  26.3977195
  28.3786535  17.4124957  26.9168427  28.2857908  21.9451715  21.4475435
  27.6503741  22.0186342  22.1596340  27.9555314  22.5345314  20.7694514
  33.5156258  16.4454098  27.6519757  34.2481430  15.8753315  27.8857586
  32.7595613  16.0575699  28.0926262  22.7900837  19.4071193  21.1436410
  22.6737095  18.7316096  21.8117494  22.9003096  18.9203567  20.3268563
  25.1332378  18.8681340  24.8483099  24.7690585  18.3411961  25.5596021
  25.9899493  18.4779809  24.6749585  31.0381678  10.1575672  32.1114365
  30.7065003  11.0271083  31.8875580  30.4427292   9.8411956  32.7908396
  24.7737864  13.8971239  19.8444448  24.9412267  14.7651476  20.2114919
  24.5835034  14.0598521  18.9205737  20.9825679  18.8102015  27.5446983
  20.0576176  18.6778229  27.7524674  21.2310092  19.5896234  28.0416925
  30.9310341  14.8770759  29.1907715  30.0227219  14.8086167  28.8966476
  30.8797937  15.3542703  30.0189541  24.7527085  16.3528897  20.8291115
  24.6326711  16.7985948  21.6676595  24.0579674  16.7014215  20.2704653
  18.3434490  18.4535289  28.3790772  18.4726871  18.7069768  29.2930183
  17.6631941  19.0462997  28.0595427  25.0051207  16.2960404  37.1342613
  24.2284541  16.8554324  37.1245477  25.6441770  16.7817187  37.6557483
  32.7971988  13.0787197  30.9685589  32.1546368  13.3719730  30.3225384
  32.2926916  12.9640117  31.7738786  30.4512152  16.8250370  21.6571449
  31.3630008  17.0577757  21.4819146  29.9421799  17.4087414  21.0946527
  25.0883989  16.1847605  32.6666298  25.9345184  16.6087018  32.8100947
  25.0282627  15.5281229  33.3604861  28.2383435  13.8451973  34.3247472
  27.9944366  14.5994034  33.7881748  28.5143365  14.2237321  35.1594719
  27.7948126  13.0008406  29.9061310  26.9332605  13.2989660  30.1978047
  27.8210561  13.2178805  28.9742342  23.5478582  17.6673749  23.1224680
  24.2502625  18.1194793  23.5898607  23.2159210  17.0257568  23.7504573
  21.9958943  16.2585506  37.4975890  21.3657604  16.9401787  37.7311287
  21.8895031  16.1468587  36.5529028  17.2903916  15.9257302  28.4241814
  16.5002970  16.1814830  27.9481925  17.7815163  16.7405640  28.5293854
  19.2418661  16.2901881  25.3825291  18.4449824  16.4020575  25.9008786
  19.0144253  16.6288533  24.5166181  15.5741619  16.1787792  30.8556805
  15.8249657  17.0634802  31.1214381  16.1101167  15.9992394  30.0831897
  21.2739686  10.5606272  39.8601141  20.8806632  10.0072470  40.5348785
  22.0905826  10.8716850  40.2507658  18.2401744  21.9990130  23.7714711
  18.7526264  22.7933380  23.9220275  18.8924457  21.3016420  23.7048312
  24.1907647  11.9764151  37.4521397  24.9317360  12.5771304  37.3725860
  24.4225570  11.2341788  36.8939440  19.3348985  17.1620518  35.7299627
  19.2202500  16.2605775  36.0306726  18.4793503  17.4084215  35.3784444
  28.1364810   8.0045254  31.7285679  27.7929079   8.8946895  31.6524790
  28.5043773   7.8146911  30.8655264  16.2050661  20.3278784  24.5474281
  17.0425883  20.7375792  24.3307989  16.3828928  19.3878226  24.5174475
  28.1015093  17.9953865  20.2358114  27.5861716  18.7658469  20.4746502
  27.8292401  17.3219001  20.8591176  25.6862204  12.8403565  25.2943353
  24.8303800  12.4510416  25.1148991  26.0989155  12.9195526  24.4343138
  27.2161350  10.3749909  29.6934912  26.7126146  10.3380044  28.8802718
  27.5091957  11.2842651  29.7531569  23.4604236  10.4588638  28.7001094
  24.3257233  10.2631447  28.3406984  23.5281745  10.2298990  29.6270451
  33.0749367  20.7486219  22.1711288  32.2978810  20.4097379  21.7266450
  33.7540848  20.7538842  21.4966253  27.8901396  15.8680957  22.0617895
  27.5851531  16.1827106  22.9128039  28.8431838  15.9462377  22.1045228
  21.0666555  12.6890846  26.0717461  21.6410307  12.4666028  25.3390654
  21.6537538  12.7579541  26.8246062  30.1246133  18.5764573  26.8781837
  30.6378014  19.2094565  27.3803547  30.7747356  17.9765769  26.5125197
  21.3936142  14.7195307  20.0913346  20.5573455  15.0569994  20.4122621
  21.2540912  14.5844287  19.1540483  23.3689223   9.5632095  24.7992530
  22.7153635   9.2481112  24.1749145  23.3269697   8.9407836  25.5252353
  24.4800428  19.8451390  16.7145822  23.5727490  19.6140644  16.9136971
  24.9771460  19.0489010  16.9019804  26.6026963  16.0514029  29.1240178
  25.6849525  16.2728976  28.9661866  27.0187107  16.1260339  28.2651885
  27.3862011  17.4505444  24.2542858  28.1333830  17.9626842  23.9449980
  27.6553601  17.1289497  25.1147252  25.6588661  19.9463985  21.2369812
  24.7499881  19.6623018  21.3342282  25.6883745  20.3663064  20.3773119
  29.8340848  14.4862561  26.2361647  29.0963605  13.9739947  26.5671890
  30.0867622  14.0462942  25.4244924  29.9352476   7.2638813  26.8303417
  30.2411352   6.4036176  26.5429332  30.6605080   7.8556433  26.6302411
  16.2276832  17.6669499  25.2185015  16.0301232  17.0738860  24.4936081
  15.6723496  17.3621709  25.9360953  24.2073555  17.5592606  27.3379608
  24.2622165  16.6066442  27.2622084  23.3964757  17.7152045  27.8220906
  25.3564749  21.4872729  18.5757891  24.9184179  20.7708588  18.1163528
  26.0975190  21.7148844  18.0142982  22.1465915  16.1769666  25.0969987
  21.3333781  16.4763836  25.5035179  22.6424909  15.7825354  25.8144469
  21.6379990  13.7488021  30.7131222  22.2779369  13.6076780  30.0154185
  20.8057521  13.4622534  30.3369824  18.7223057  17.1933533  22.9025967
  17.7920645  17.1317989  23.1195929  18.8180529  16.6709486  22.1062608
  18.6408606  13.7188346  25.4904208  18.9015424  14.6333679  25.3813369
  19.4625779  13.2512789  25.6400821  20.1133532  15.1326103  32.6603033
  20.7856585  14.9243465  32.0115682  19.2863318  14.9348189  32.2208265
  26.0159104  11.7588044  34.6768694  25.3687019  12.4577994  34.5833170
  26.7860119  12.1924188  35.0444942  20.5161029  18.4068706  33.4205470
  20.3780827  17.6748945  34.0217009  21.4265953  18.3177606  33.1389658
  29.4775977  20.3457110  18.1689949  28.8605147  19.6203939  18.0723001
  29.0092465  21.1066471  17.8257023  21.8572264  15.1053883  34.7284789
  21.3209621  14.6544622  35.3806386  21.2688972  15.2399792  33.9855254
  21.2674523  14.5642535  17.2911253  20.3903989  14.4431336  16.9273500
  21.7432276  13.7728613  17.0390142  12.7876663  19.3519695  27.3852760
  13.4747703  19.0381425  26.7973775  12.6324791  20.2561059  27.1120011
  17.5911385  14.2409891  31.8137784  17.5069574  13.6335561  31.0788194
  16.7694091  14.7318909  31.8147280  27.7635099  12.7263455  27.1807979
  28.2603798  11.9733417  26.8609049  26.9922080  12.7627771  26.6151188
  24.3470068  14.8680838  26.9079663  23.9767855  14.3151878  27.5960569
  24.8429160  14.2638971  26.3554663  32.2337431  17.3252461  25.2896436
  32.6997883  18.1580453  25.2156739  32.6844931  16.8597443  25.9941695
  30.2054094   9.6933048  29.3287338  29.2917173   9.9237275  29.4969545
  30.6347195   9.7771492  30.1801370  17.7726984  24.8614688  30.9365784
  18.3580421  24.1158376  31.0693688  17.5751823  25.1718644  31.8202448
  12.3644639  17.4320288  29.6570227  12.4028738  16.8983879  30.4507345
  11.8584932  16.9055493  29.0381204  19.7435401  12.2784828  33.1532769
  19.8076728  13.1399659  32.7410167  19.6802521  11.6658830  32.4205128
  19.2187674  14.3507961  36.8005804  19.8459713  13.9685038  37.4143328
  18.3615593  14.1322163  37.1661496  15.9953216  16.1584390  22.7324159
  16.2906658  15.2495068  22.6791212  15.0941252  16.1372129  22.4105161
  19.5247463  14.2340387  28.7151707  18.8034049  14.8476354  28.5759180
  20.3140719  14.7698151  28.6368353  22.3273777  11.5694813  34.9892359
  22.8508179  11.8157110  35.7518668  22.1086110  12.4014848  34.5695496
  17.7241058  13.8398488  22.8563484  17.3953764  12.9595867  22.6738590
  18.0780429  13.7846156  23.7439873  20.8382881  14.1271457  23.2238961
  21.1778954  14.6557379  22.5017570  21.2855002  14.4651864  23.9997528
  23.5326322  12.5108508  32.6742029  23.1923142  11.7116321  33.0762709
  22.8265328  12.8110219  32.1018863  24.1842794   9.5957821  31.1269352
  25.0068863   9.1218299  31.0048243  24.4280857  10.3748304  31.6268039
  22.8251028  12.6246079  21.4232254  23.5459391  13.0027332  20.9195971
  22.2016332  13.3434956  21.5267232  26.9682151  13.3291228  22.3590586
  27.1845766  14.2115866  22.0579415  26.4876218  12.9377441  21.6296228
  21.7081373  16.2876941  28.9361331  21.5625953  16.6017244  29.8285613
  21.2306576  16.9061842  28.3832230  23.5677756  13.2779489  28.9842221
  23.5539324  12.3820583  28.6474519  24.2850184  13.2850153  29.6180507
  25.4203886  13.7116829  31.0295348  25.1621664  14.6333900  31.0279678
  24.8888927  13.3147264  31.7195812  16.1827035  18.8282286  31.8748992
  15.6380503  19.6042094  32.0069267  17.0606385  19.1753090  31.7168114
  22.9714651  12.1593870  24.2529791  23.0930563  11.2310516  24.4520678
  22.6816694  12.1732556  23.3408106  25.8405842   9.8448780  27.3896511
  25.8627539   9.9088113  26.4348490  26.2573901   9.0053289  27.5837017
  16.9693057  17.9552182  34.7679149  16.2274793  18.1034817  35.3543780
  16.6485801  18.2160448  33.9045899  17.4149670  25.8417611  26.7989544
  18.2407690  25.5421383  26.4188187  17.0643722  25.0725233  27.2479332
  15.6158275  23.7603937  27.7578477  14.7790184  23.3326111  27.5762479
  15.5881921  23.9536380  28.6949269  22.4555731  13.6725867  38.4619723
  22.5043886  14.5487990  38.0797493  22.9978245  13.1303260  37.8891367
  24.6855019  14.4257239  35.2166082  23.8158329  14.7190805  34.9448671
  24.9214500  15.0097684  35.9373346  19.6997343  19.7713180  23.3506747
  19.4543385  18.8675510  23.5486957  19.8693258  19.7730330  22.4086225
  27.3894053  10.6436856  32.7331502  27.9075997  11.3797883  32.4077991
  27.0349186  10.9500850  33.5678262  18.9692991  15.5041537  20.8492908
  18.2762236  15.5785892  20.1932944  18.7244743  14.7401881  21.3714425
  27.6406647   7.0637139  28.2532399  27.9208401   6.3960328  28.8792826
  28.4257254   7.2566234  27.7407063  29.5329885  12.5710356  32.1863375
  28.9379817  12.8515369  31.4909864  29.2479582  13.0604257  32.9580116
  25.8286914  17.5756945  17.1573478  26.7746019  17.4463154  17.2261896
  25.4501159  16.8371607  17.6342906  31.8008799   9.2412951  27.1200370
  31.6033620   8.9328040  28.0043702  32.4108505   9.9674590  27.2498299
  24.0129832  15.5006922  17.0928363  23.1061287  15.2040035  17.1691077
  24.2905813  15.2036740  16.2262649  14.9307772  16.8213285  27.5427409
  14.6110556  15.9678593  27.2501783  14.3841200  17.0361863  28.2985377
  18.7087680  19.5375726  31.2596916  18.9273689  20.4692834  31.2784950
  19.1213453  19.1783701  32.0451720  25.6291897  10.0443812  23.2472604
  24.8192626   9.6990897  23.6227850  26.3176314   9.7351355  23.8360216
  27.5582446   9.1221858  24.8696901  28.1113484   9.5417312  25.5286924
  27.7952532   8.1957606  24.9119857  22.7828616  12.3593857  17.2340342
  23.6447780  12.6848755  17.4936160  22.9678960  11.5725353  16.7213408
  14.7996032  20.4416197  29.5120531  14.1059503  20.0270150  28.9990485
  15.5469023  20.4836733  28.9153950  30.9361253  11.2322384  24.3775565
  30.3559922  11.8907188  23.9953618  30.6697185  10.4099728  23.9662983
  29.3864819  10.6327441  26.5796886  29.8864597  10.7443976  25.7711204
  30.0300427  10.3288494  27.2197694  16.7132774  20.3734451  27.3886546
  16.6903463  20.4722138  26.4368429  17.0233411  21.2199601  27.7103712
  19.3720152  22.4310606  31.5033160  20.3263406  22.3994548  31.4363092
  19.1732676  21.9701229  32.3183386  29.7186131  13.3922474  23.4331914
  28.8311986  13.6772125  23.2152108  30.1340120  13.2316237  22.5859190
  33.0700667  13.4168995  27.1486253  33.8461057  13.9065447  27.4210870
  32.3448801  13.8427049  27.6058122  35.5073225  14.1296614  28.2060193
  36.1017716  13.8892350  27.4953502  35.5799809  13.4103745  28.8333730
  17.7270381  27.9730225  28.5203358  17.5924849  27.2130626  27.9541356
  17.3102443  28.6971125  28.0532147  29.6927154  18.9077010  23.6482204
  29.6362356  19.3645561  22.8089836  30.2455497  18.1467694  23.4705046
  33.5031960  14.6966742  24.4732323  33.2468895  14.2963377  25.3040531
  32.8784828  15.4110536  24.3482462  37.8144298  17.4362815  26.9803615
  37.2543856  17.5056004  27.7535177  37.2087802  17.2603800  26.2603111
  30.4261934  20.0981791  20.9434733  30.3710738  19.9326062  20.0023177
  29.8007989  20.8057824  21.0996923  15.2154449  15.3349855  34.7696155
  15.8613312  14.8248809  35.2583380  15.0071600  16.0718537  35.3439580
  23.7358059   9.5989900  20.5220051  23.7236729  10.5431740  20.6788322
  24.6281481   9.4160045  20.2279512  27.5510179   6.1932677  24.7765988
  26.7842574   5.6391163  24.9222670  27.9620884   6.2654545  25.6380140
  19.5551940  12.4817473  38.8671169  20.4183401  12.1254277  39.0774494
  18.9817350  12.1431367  39.5546574  37.6476397  39.5853201  20.9106451
  36.9964377  40.1707282  20.5240465  38.4420760  40.1159396  20.9701488
  33.9098302  32.8335004  18.9412035  34.1623823  32.3116526  18.1795498
  32.9722861  32.6701150  19.0438719  39.1251662  37.2743633  21.4475435
  38.4897495  37.3478260  22.1596340  38.7949069  37.8637232  20.7694514
  35.6131619  29.2263157  19.8444448  35.7806021  30.0943394  20.2114919
  35.4228788  29.3890439  18.9205737  35.5920840  31.6820815  20.8291115
  35.4720465  32.1277865  21.6676595  34.8973428  32.0306132  20.2704653
  41.2905906  32.1542288  21.6571449  42.2023762  32.3869675  21.4819146
  40.7815553  32.7379332  21.0946527  38.9408847  33.3245782  20.2358114
  38.4255471  34.0950387  20.4746502  38.6686156  32.6510918  20.8591176
  43.9143121  36.0778137  22.1711288  43.1372564  35.7389296  21.7266450
  44.5934602  36.0830760  21.4966253  38.7295150  31.1972874  22.0617895
  38.4245286  31.5119024  22.9128039  39.6825592  31.2754294  22.1045228
  37.1741582  37.3563098  23.7110849  36.6462944  36.6215857  23.3984087
  36.6729085  38.1337774  23.4650818  35.3194182  35.1743308  16.7145822
  34.4121244  34.9432561  16.9136971  35.8165214  34.3780927  16.9019804
  38.2262261  43.8840815  19.6342509  37.5523960  44.1872512  20.2427466
  38.6128083  44.6869896  19.2847966  36.1958504  36.8164647  18.5757891
  35.7577934  36.1000505  18.1163528  36.9368944  37.0440761  18.0142982
  40.3169731  35.6749028  18.1689949  39.6998902  34.9495856  18.0723001
  39.8486220  36.4358388  17.8257023  32.1068277  29.8934452  17.2911253
  31.2297743  29.7723253  16.9273500  32.5826030  29.1020531  17.0390142
  46.4558611  33.7595738  28.8226270  46.4448487  34.6420453  28.4520203
  45.5875990  33.4067289  28.6280807  39.6858634  36.8127060  24.7546402
  38.7514913  36.9328522  24.5851107  39.8635302  35.9099526  24.4906412
  41.1407416  38.9988200  22.2882588  41.4167260  38.8844795  23.1976462
  40.2711915  38.6005685  22.2494761  47.0583221  34.9095957  25.4275733
  47.5014367  34.1603282  25.0294856  46.1809731  34.9006094  25.0449465
  42.1919002  41.4626299  20.9082332  42.8869907  42.0832991  21.1269646
  42.5342152  40.6121650  21.1834710  36.2833870  41.5688050  19.8157425
  35.7107838  42.1878237  19.3627897  36.8566664  42.1187412  20.3497347
  39.5031130  41.8525200  20.9466008  40.4361803  41.7870762  21.1498883
  39.4154343  42.6881467  20.4880540  42.1319147  41.1691071  17.9069955
  42.0532778  40.8350934  18.8005713  42.9528814  41.6612839  17.9061428
  36.6680669  32.9048863  17.1573478  37.6139774  32.7755071  17.2261896
  36.2894914  32.1663525  17.6342906  34.8523586  30.8298840  17.0928363
  33.9455041  30.5331952  17.1691077  35.1299567  30.5328658  16.2262649
  33.6222371  27.6885775  17.2340342  34.4841535  28.0140673  17.4936160
  33.8072715  26.9017271  16.7213408  40.5579885  28.7214392  23.4331914
  39.6705740  29.0064042  23.2152108  40.9733874  28.5608155  22.5859190
  43.9094421  28.7460913  27.1486253  44.6854811  29.2357365  27.4210870
  43.1842555  29.1718967  27.6058122  39.7023099  38.4859066  17.5279933
  40.4058949  38.6909069  18.1437589  38.9785747  39.0535828  17.7929017
  44.3425715  30.0258659  24.4732323  44.0862649  29.6255295  25.3040531
  43.7178583  30.7402453  24.3482462  48.6538053  32.7654733  26.9803615
  48.0937611  32.8347922  27.7535177  48.0481556  32.5895717  26.2603111
  41.6109796  38.9241595  19.5778394  42.4455400  38.4922794  19.3955868
  41.4494139  38.7523609  20.5055288  41.2655688  35.4273709  20.9434733
  41.2104492  35.2617980  20.0023177  40.6401744  36.1349742  21.0996923
  48.4870152  54.9145119  20.9106451  47.8358132  55.4999199  20.5240465
  49.2814515  55.4451314  20.9701488  44.7492057  48.1626922  18.9412035
  45.0017578  47.6408443  18.1795498  43.8116616  47.9993067  19.0438719
  49.9645417  52.6035551  21.4475435  49.3291250  52.6770177  22.1596340
  49.6342823  53.1929150  20.7694514  55.1943767  47.1037934  27.6519757
  55.9268939  46.5337150  27.8857586  54.4383122  46.7159534  28.0926262
  46.8119886  49.5265175  24.8483099  46.4478094  48.9995796  25.5596021
  47.6687002  49.1363644  24.6749585  46.4525373  44.5555075  19.8444448
  46.6199776  45.4235311  20.2114919  46.2622543  44.7182356  18.9205737
  46.4314594  47.0112732  20.8291115  46.3114220  47.4569783  21.6676595
  45.7367183  47.3598050  20.2704653  44.1921486  59.7816374  24.4781246
  44.1145516  60.7324199  24.5569726  43.5883130  59.4362247  25.1356172
  52.1299661  47.4834205  21.6571449  53.0417517  47.7161592  21.4819146
  51.6209308  48.0671250  21.0946527  54.6158475  53.4014462  26.4029394
  53.9309513  53.7813363  25.8526427  54.7002324  54.0109788  27.1361342
  61.0761227  50.2685125  27.5232066  60.3224936  49.6992523  27.3676071
  61.2108769  50.2347789  28.4702701  46.4659855  55.1398527  23.1986786
  46.3305530  55.9850063  23.6271633  47.0069668  55.3417805  22.4352719
  49.7802602  48.6537700  20.2358114  49.2649225  49.4242305  20.4746502
  49.5079910  47.9802836  20.8591176  47.3649713  43.4987401  25.2943353
  46.5091309  43.1094251  25.1148991  47.7776664  43.5779362  24.4343138
  54.7536876  51.4070055  22.1711288  53.9766319  51.0681214  21.7266450
  55.4328357  51.4122678  21.4966253  49.5688905  46.5264792  22.0617895
  49.2639040  46.8410941  22.9128039  50.5219347  46.6046212  22.1045228
  48.0135337  52.6855015  23.7110849  47.4856698  51.9507775  23.3984087
  47.5122839  53.4629692  23.4650818  43.0723651  45.3779143  20.0913346
  42.2360964  45.7153829  20.4122621  42.9328421  45.2428123  19.1540483
  46.1587937  50.5035226  16.7145822  45.2514999  50.2724479  16.9136971
  46.6558969  49.7072845  16.9019804  49.0656016  59.2132733  19.6342509
  48.3917714  59.5164430  20.2427466  49.4521838  60.0161813  19.2847966
  49.0649520  48.1089280  24.2542858  49.8121339  48.6210677  23.9449980
  49.3341110  47.7873333  25.1147252  47.3376170  50.6047821  21.2369812
  46.4287390  50.3206853  21.3342282  47.3671254  51.0246899  20.3773119
  52.5695438  54.2154410  25.0060980  52.1157765  53.3745320  25.0626170
  51.9389404  54.8515808  25.3435760  51.5128357  45.1446396  26.2361647
  50.7751114  44.6323782  26.5671890  51.7655131  44.7046778  25.4244924
  47.0352258  52.1456564  18.5757891  46.5971688  51.4292423  18.1163528
  47.7762699  52.3732679  18.0142982  55.1525373  50.4213761  24.6334210
  55.0143271  50.6115357  23.7055399  54.7961592  51.1833144  25.0902261
  47.2647231  59.3812405  21.8489588  47.4398987  58.9100448  22.6635210
  46.5780019  60.0078171  22.0770848  51.1563486  51.0040946  18.1689949
  50.5392656  50.2787774  18.0723001  50.6879974  51.7650306  17.8257023
  41.8308316  62.5301768  28.6229448  42.0704914  63.1620292  29.3008466
  40.9877513  62.1789808  28.9094807  42.9462032  45.2226370  17.2911253
  42.0691498  45.1015171  16.9273500  43.4219785  44.4312448  17.0390142
  46.1325958  57.5752661  24.5373773  45.3493480  58.1174341  24.6311998
  46.8318703  58.0926640  24.9368015  57.2952365  49.0887655  28.8226270
  57.2842241  49.9712371  28.4520203  56.4269745  48.7359206  28.6280807
  50.5252388  52.1418977  24.7546402  49.5908667  52.2620440  24.5851107
  50.7029057  51.2391444  24.4906412  53.9124940  47.9836296  25.2896436
  54.3785392  48.8164288  25.2156739  54.3632440  47.5181278  25.9941695
  51.9801171  54.3280118  22.2882588  52.2561015  54.2136712  23.1976462
  51.1105670  53.9297603  22.2494761  48.9497400  57.5034654  23.1930450
  49.4785167  56.9927108  22.5800613  49.2125620  57.1877184  24.0575983
  42.3053148  58.5549770  25.9528226  41.6363524  59.0395898  25.4692266
  42.1666018  58.8018991  26.8671605  48.6469660  43.9875063  22.3590586
  48.8633275  44.8699701  22.0579415  48.1663727  43.5961277  21.6296228
  52.0437584  57.4751452  23.8085433  52.2174461  56.9097874  23.0559286
  52.5366475  58.2752347  23.6264923  57.8976975  50.2387875  25.4275733
  58.3408121  49.4895200  25.0294856  57.0203485  50.2298011  25.0449465
  53.0312756  56.7918216  20.9082332  53.7263661  57.4124909  21.1269646
  53.3735907  55.9413568  21.1834710  54.9304180  54.2417922  22.4369662
  55.4555504  54.5805195  21.7118983  54.8426532  53.3064937  22.2532797
  43.6232219  54.4031838  22.3445678  43.7720340  55.0867302  21.6912351
  44.4298663  54.3836928  22.8595134  57.4409840  51.7093113  27.8198181
  58.2756731  52.1482917  27.9835741  57.5768969  51.2331766  27.0006427
  47.1227625  56.8979968  19.8157425  46.5501592  57.5170155  19.3627897
  47.6960419  57.4479330  20.3497347  50.3424885  57.1817118  20.9466008
  51.2755558  57.1162680  21.1498883  50.2548098  58.0173385  20.4880540
  52.9712901  56.4982989  17.9069955  52.8926533  56.1642852  18.8005713
  53.7922568  56.9904756  17.9061428  47.5074423  48.2340781  17.1573478
  48.4533528  48.1046989  17.2261896  47.1288668  47.4955443  17.6342906
  61.4867642  50.4260735  30.2552311  62.2171031  50.1646023  30.8160014
  60.8774588  49.6889457  30.2954379  59.5682940  48.5668597  30.8526762
  58.8416103  48.4324562  30.2443253  59.1530226  48.8745426  31.6583480
  45.6917341  46.1590757  17.0928363  44.7848796  45.8623870  17.1691077
  45.9693322  45.8620575  16.2262649  44.4616125  43.0177692  17.2340342
  45.3235289  43.3432591  17.4936160  44.6466469  42.2309188  16.7213408
  51.3973640  44.0506309  23.4331914  50.5099495  44.3355960  23.2152108
  51.8127629  43.8900073  22.5859190  57.1860734  44.7880449  28.2060193
  57.7805225  44.5476185  27.4953502  57.2587318  44.0687580  28.8333730
  39.4057890  58.6314060  28.5203358  39.2712358  57.8714461  27.9541356
  38.9889952  59.3554960  28.0532147  50.5416853  53.8150984  17.5279933
  51.2452703  54.0200986  18.1437589  49.8179502  54.3827746  17.7929017
  51.3714663  49.5660845  23.6482204  51.3149865  50.0229397  22.8089836
  51.9243006  48.8051530  23.4705046  55.1819469  45.3550577  24.4732323
  54.9256404  44.9547213  25.3040531  54.5572337  46.0694371  24.3482462
  59.4931807  48.0946650  26.9803615  58.9331365  48.1639840  27.7535177
  58.8875311  47.9187635  26.2603111  42.5627016  59.5283377  28.7321801
  42.4459400  60.4728810  28.6300491  41.7419462  59.2256939  29.1207600
  52.4503551  54.2533513  19.5778394  53.2849154  53.8214712  19.3955868
  52.2887893  54.0815527  20.5055288  52.1049443  50.7565626  20.9434733
  52.0498247  50.5909898  20.0023177  51.4795498  51.4641659  21.0996923
  45.4145568  40.2573735  20.5220051  45.4024238  41.2015575  20.6788322
  46.3068990  40.0743881  20.2279512  49.2297688  36.8516512  24.7765988
  48.4630083  36.2974999  24.9222670  49.6408393  36.9238381  25.6380140
  61.0787826  64.7703164  29.6733570  61.7166236  64.6509912  28.9696910
  60.9608669  65.7184008  29.7321522  59.3263906  70.2437036  20.9106451
  58.6751886  70.8291117  20.5240465  60.1208269  70.7743231  20.9701488
  53.2519533  67.3326174  21.3093585  54.0250409  66.7855161  21.1706461
  53.6044932  68.1970423  21.5208047  55.5885811  63.4918840  18.9412035
  55.8411332  62.9700361  18.1795498  54.6510370  63.3284985  19.0438719
  60.8039171  67.9327468  21.4475435  60.1685004  68.0062095  22.1596340
  60.4736578  68.5221067  20.7694514  66.0337521  62.4329851  27.6519757
  66.7662693  61.8629068  27.8857586  65.2776877  62.0451452  28.0926262
  55.3082100  65.3946946  21.1436410  55.1918358  64.7191849  21.8117494
  55.4184360  64.9079320  20.3268563  63.5562942  56.1451425  32.1114365
  63.2246266  57.0146836  31.8875580  62.9608555  55.8287709  32.7908396
  57.2919128  59.8846992  19.8444448  57.4593530  60.7527229  20.2114919
  57.1016297  60.0474274  18.9205737  60.0494461  68.3463971  31.5110278
  59.7495184  69.2489010  31.4026085  59.7045521  68.0796155  32.3631431
  63.4491605  60.8646512  29.1907715  62.5408482  60.7961920  28.8966476
  63.3979201  61.3418456  30.0189541  57.2708349  62.3404650  20.8291115
  57.1507974  62.7861701  21.6676595  56.5760937  62.6889968  20.2704653
  55.0315241  75.1108292  24.4781246  54.9539271  76.0616117  24.5569726
  54.4276885  74.7654164  25.1356172  65.3153251  59.0662950  30.9685589
  64.6727632  59.3595483  30.3225384  64.8108180  58.9515870  31.7738786
  62.9693415  62.8126123  21.6571449  63.8811271  63.0453510  21.4819146
  62.4603062  63.3963167  21.0946527  61.5762997  67.7951942  29.0485030
  60.9471860  67.9597656  28.3461098  61.1888659  68.2093551  29.8195994
  65.4552229  68.7306379  26.4029394  64.7703267  69.1105281  25.8526427
  65.5396079  69.3401706  27.1361342  62.7103161  66.3766338  33.0024737
  62.9220056  67.0198098  32.3259119  62.6632909  65.5428655  32.5346667
  57.1290959  67.5326350  26.3135115  57.5929305  67.8114053  25.5239738
  56.8647757  66.6309794  26.1308206  56.0659845  63.6549502  23.1224680
  56.7683889  64.1070546  23.5898607  55.7340474  63.0133321  23.7504573
  63.8248989  69.2538294  31.1747095  64.6466432  68.8518481  30.8929776
  63.8211392  69.1506528  32.1263211  57.5905592  68.8022337  33.3307805
  57.6550025  69.2642744  34.1665977  56.8816516  68.1719702  33.4590115
  71.9154982  65.5977042  27.5232066  71.1618690  65.0284440  27.3676071
  72.0502523  65.5639707  28.4702701  57.3053610  70.4690445  23.1986786
  57.1699285  71.3141980  23.6271633  57.8463422  70.6709722  22.4352719
  50.7583007  67.9865883  23.7714711  51.2707528  68.7809133  23.9220275
  51.4105720  67.2892173  23.7048312  52.5677892  71.1031639  25.8537464
  52.7444520  72.0249604  25.6658448  53.3634725  70.7890058  26.2831844
  58.9322086  71.0914011  37.3287128  58.4885940  70.3050390  37.0108032
  59.5939300  71.2793162  36.6631018  53.6909207  72.6209813  31.8547806
  54.2416633  72.4926876  31.0824800  52.8520683  72.9204702  31.5042699
  61.0303324  71.3716811  35.3568529  61.0121800  72.1925692  34.8648798
  61.9523244  71.2470886  35.5818670  60.6546073  53.9921007  31.7285679
  60.3110343  54.8822648  31.6524790  61.0225036  53.8022664  30.8655264
  60.6196356  63.9829618  20.2358114  60.1042980  64.7534222  20.4746502
  60.3473665  63.3094754  20.8591176  58.2043467  58.8279318  25.2943353
  57.3485064  58.4386169  25.1148991  58.6170419  58.9071279  24.4343138
  65.5930630  66.7361972  22.1711288  64.8160073  66.3973132  21.7266450
  66.2722111  66.7414595  21.4966253  60.4082659  61.8556710  22.0617895
  60.1032795  62.1702859  22.9128039  61.3613101  61.9338130  22.1045228
  58.8529091  68.0146933  23.7110849  58.3250453  67.2799693  23.3984087
  58.3516594  68.7921609  23.4650818  63.8321937  66.2095954  28.8277896
  63.1745612  66.8995215  28.9158024  64.6362336  66.5992386  29.1711882
  62.6427396  64.5640326  26.8781837  63.1559278  65.1970318  27.3803547
  63.2928620  63.9641522  26.5125197  53.9117406  60.7071060  20.0913346
  53.0754718  61.0445747  20.4122621  53.7722176  60.5720040  19.1540483
  55.8870486  55.5507848  24.7992530  55.2334899  55.2356865  24.1749145
  55.8450961  54.9283589  25.5252353  56.9981691  65.8327143  16.7145822
  56.0908753  65.6016397  16.9136971  57.4952723  65.0364763  16.9019804
  59.9049770  74.5424651  19.6342509  59.2311469  74.8456347  20.2427466
  60.2915592  75.3453731  19.2847966  59.9043275  63.4381197  24.2542858
  60.6515094  63.9502595  23.9449980  60.1734864  63.1165250  25.1147252
  58.1769925  65.9339738  21.2369812  57.2681144  65.6498771  21.3342282
  58.2065009  66.3538817  20.3773119  63.4089192  69.5446328  25.0060980
  62.9551519  68.7037238  25.0626170  62.7783159  70.1807726  25.3435760
  62.3522112  60.4738314  26.2361647  61.6144869  59.9615700  26.5671890
  62.6048885  60.0338695  25.4244924  61.8522131  71.3822824  25.9410798
  62.1445106  71.9427882  25.2223164  62.3620752  71.6751385  26.6963957
  62.4533739  53.2514566  26.8303417  62.7592616  52.3911929  26.5429332
  63.1786344  53.8432186  26.6302411  57.8746013  67.4748482  18.5757891
  57.4365443  66.7584341  18.1163528  58.6156453  67.7024597  18.0142982
  56.8155757  72.1603175  27.0304251  56.7731935  72.3864022  26.1012783
  57.7318455  71.9266550  27.1790053  65.9919127  65.7505679  24.6334210
  65.8537026  65.9407275  23.7055399  65.6355346  66.5125062  25.0902261
  66.0188507  67.8182206  29.6445481  66.4525014  67.7257495  30.4928535
  66.7320088  67.7939706  29.0065497  54.9321557  69.0366204  26.8266214
  55.7262156  68.5416525  26.6248789  54.2213250  68.5084068  26.4633920
  59.7516402  71.4184300  31.1778582  59.8053424  71.9875236  31.9456298
  58.8831183  71.5886185  30.8132619  51.2404321  63.1809286  22.9025967
  50.3101909  63.1193742  23.1195929  51.3361793  62.6585239  22.1062608
  66.8804057  67.8605907  32.1778367  67.0739947  68.7651717  32.4237641
  66.7804675  67.4013326  33.0116952  57.5092833  69.6095226  30.5064051
  57.3703919  69.2414011  31.3789989  56.7207430  70.1242866  30.3348009
  58.1040985  74.7104323  21.8489588  58.2792741  74.2392366  22.6635210
  57.4173773  75.3370089  22.0770848  59.0598049  68.9876829  27.8952889
  58.7247881  68.9477599  28.7910539  58.5601994  68.3221545  27.4223299
  61.9957240  66.3332864  18.1689949  61.3786411  65.6079692  18.0723001
  61.5273729  67.0942224  17.8257023  63.6511372  71.0431772  35.8295729
  63.5923918  70.3590992  35.1626312  64.0530890  71.7850762  35.3776355
  52.6702071  77.8593686  28.6229448  52.9098669  78.4912210  29.3008466
  51.8271267  77.5081726  28.9094807  53.7855786  60.5518288  17.2911253
  52.9085252  60.4307089  16.9273500  54.2613539  59.7604366  17.0390142
  63.6528779  69.0071356  34.0609709  62.7655558  68.6697278  34.1836108
  64.2227330  68.2754387  34.2978474  45.3057926  65.3395448  27.3852760
  45.9928966  65.0257178  26.7973775  45.1506055  66.2436812  27.1120011
  57.1829933  73.6672808  31.0270952  57.1100104  74.4727780  31.5390256
  56.7407326  73.8664774  30.2018973  56.9719712  72.9044578  24.5373773
  56.1887234  73.4466258  24.6311998  57.6712457  73.4218558  24.9368015
  68.1346120  64.4179573  28.8226270  68.1235996  65.3004289  28.4520203
  67.2663499  64.0651124  28.6280807  59.6428616  73.5659642  33.1829111
  60.3556588  74.2007107  33.1105012  59.1518645  73.6623508  32.3669112
  61.3646143  67.4710895  24.7546402  60.4302422  67.5912357  24.5851107
  61.5422811  66.5683362  24.4906412  64.7518694  63.3128214  25.2896436
  65.2179147  64.1456206  25.2156739  65.2026195  62.8473196  25.9941695
  54.6940530  71.3154086  34.0034681  55.3949989  71.9490569  34.1564076
  54.2235645  71.6568817  33.2430321  62.8194925  69.6572035  22.2882588
  63.0954769  69.5428630  23.1976462  61.9499424  69.2589520  22.2494761
  62.7235357  55.6808801  29.3287338  61.8098437  55.9113028  29.4969545
  63.1528459  55.7647245  30.1801370  62.4941816  63.8698693  31.8287232
  61.8413266  64.1174601  31.1739684  62.8722195  63.0562831  31.4949709
  59.4548989  73.9058386  25.9315402  59.6371384  73.0880042  26.3943154
  60.2781975  74.1226079  25.4940292  59.7891155  72.8326571  23.1930450
  60.3178921  72.3219026  22.5800613  60.0519375  72.5169102  24.0575983
  53.1446903  73.8841688  25.9528226  52.4757278  74.3687816  25.4692266
  53.0059773  74.1310909  26.8671605  57.2852171  75.9185432  32.5510885
  57.8370479  76.0817053  33.3159970  57.6258365  76.5089869  31.8790910
  62.1363046  70.7446689  38.4059539  62.6802950  71.3576647  37.9114494
  61.5549891  71.3026268  38.9226552  48.5134480  62.1460143  22.7324159
  48.8087921  61.2370821  22.6791212  47.6122516  62.1247883  22.4105161
  60.4220559  73.8667407  29.5374567  60.2971698  73.0657147  29.0285512
  61.0799650  74.3613601  29.0488537  62.4855467  71.6676427  31.1654117
  61.5385803  71.5481778  31.0932444  62.8338240  70.7798925  31.2480378
  50.2422322  59.8274241  22.8563484  49.9135028  58.9471620  22.6738590
  50.5961692  59.7721909  23.7439873  59.4901900  71.4629143  27.3658469
  59.3426863  70.5345851  27.5466039  60.3155394  71.4849234  26.8815544
  53.3564145  60.1147211  23.2238961  53.6960217  60.6433132  22.5017570
  53.8036265  60.4527617  23.9997528  63.0936022  72.2857702  28.4523342
  64.0182570  72.0800564  28.3147793  62.9251326  72.0374103  29.3612683
  55.3432292  58.6121832  21.4232254  56.0640654  58.9903085  20.9195971
  54.7197596  59.3310709  21.5267232  59.4863415  59.3166981  22.3590586
  59.7027029  60.1991619  22.0579415  59.0057482  58.9253194  21.6296228
  62.8831338  72.8043370  23.8085433  63.0568216  72.2389792  23.0559286
  63.3760230  73.6044265  23.6264923  55.4895915  58.1469623  24.2529791
  55.6111826  57.2186269  24.4520678  55.1997957  58.1608309  23.3408106
  58.3587105  55.8324533  27.3896511  58.3808802  55.8963866  26.4348490
  58.7755164  54.9929042  27.5837017  68.7370730  65.5679793  25.4275733
  69.1801876  64.8187118  25.0294856  67.8597240  65.5589929  25.0449465
  63.8706511  72.1210134  20.9082332  64.5657416  72.7416827  21.1269646
  64.2129661  71.2705485  21.1834710  65.7697934  69.5709840  22.4369662
  66.2949258  69.9097112  21.7118983  65.6820287  68.6356855  22.2532797
  57.4317983  73.4843913  34.5659539  57.7405109  73.2393060  35.4382239
  58.2293465  73.6890552  34.0778409  57.4538595  75.6381823  26.7964916
  57.0143585  75.1458202  27.4897772  58.2046712  75.0954791  26.5556991
  49.9330934  71.8293364  26.7989544  50.7588954  71.5297136  26.4188187
  49.5824986  71.0600986  27.2479332  54.9012467  71.1819832  28.8687217
  54.2792476  70.5190537  28.5689445  55.5717334  71.2080964  28.1860865
  65.4591840  70.2042743  37.7420860  64.6687384  70.1866882  37.2025360
  65.2225195  70.7431037  38.4969897  65.5789715  67.0535210  35.0553589
  65.6287720  66.8885217  35.9969112  65.4703639  66.1862469  34.6651470
  54.4625974  69.7323755  22.3445678  54.6114094  70.4159220  21.6912351
  55.2692417  69.7128845  22.8595134  67.0807912  69.4732151  35.2995611
  66.7892720  69.8362132  36.1359071  66.4680043  68.7599159  35.1208943
  68.2803594  67.0385031  27.8198181  69.1150486  67.4774835  27.9835741
  68.4162723  66.5623684  27.0006427  65.3295100  64.5964766  33.7675669
  65.8049222  64.7892412  32.9594520  64.4060666  64.6523952  33.5219052
  52.2178607  65.7588933  23.3506747  51.9724649  64.8551263  23.5486957
  52.3874521  65.7606083  22.4086225  51.4874254  61.4917290  20.8492908
  50.7943499  61.5661645  20.1932944  51.2426006  60.7277634  21.3714425
  60.1587911  53.0512892  28.2532399  60.4389665  52.3836081  28.8792826
  60.9438518  53.2441987  27.7407063  57.9621379  72.2271886  19.8157425
  57.3895346  72.8462073  19.3627897  58.5354173  72.7771247  20.3497347
  64.0296769  61.4730526  32.0003974  64.9814192  61.5728623  32.0216198
  63.8600220  60.6808794  32.5102058  62.0511149  58.5586109  32.1863375
  61.4561081  58.8391122  31.4909864  61.7660845  59.0480010  32.9580116
  61.1818639  72.5109036  20.9466008  62.1149312  72.4454598  21.1498883
  61.0941852  73.3465303  20.4880540  63.8106656  71.8274906  17.9069955
  63.7320287  71.4934770  18.8005713  64.6316323  72.3196674  17.9061428
  66.5084847  64.6936645  31.1146274  66.4761167  63.7552646  31.3005958
  67.1185471  64.7720682  30.3812099  58.3468178  63.5632698  17.1573478
  59.2927283  63.4338907  17.2261896  57.9682423  62.8247360  17.6342906
  66.6579336  61.4847689  31.1604557  66.1418384  60.7006146  30.9734486
  67.5419284  61.1566406  31.3251076  64.3190062  55.2288704  27.1200370
  64.1214884  54.9203793  28.0043702  64.9289768  55.9550343  27.2498299
  72.3261397  65.7552652  30.2552311  73.0564785  65.4937940  30.8160014
  71.7168342  65.0181374  30.2954379  70.4076694  63.8960515  30.8526762
  69.6809858  63.7616480  30.2443253  69.9923981  64.2037344  31.6583480
  56.5311095  61.4882675  17.0928363  55.6242550  61.1915788  17.1691077
  56.8087076  61.1912493  16.2262649  58.1473161  56.0319565  23.2472604
  57.3373889  55.6866650  23.6227850  58.8357578  55.7227108  23.8360216
  60.0763709  55.1097611  24.8696901  60.6294748  55.5293065  25.5286924
  60.3133795  54.1833359  24.9119857  55.3009880  58.3469610  17.2340342
  56.1629044  58.6724508  17.4936160  55.4860224  57.5601106  16.7213408
  63.4542516  57.2198137  24.3775565  62.8741185  57.8782941  23.9953618
  63.1878449  56.3975481  23.9662983  61.9046083  56.6203194  26.5796886
  62.4045861  56.7319729  25.7711204  62.5481690  56.3164247  27.2197694
  62.2367394  59.3798227  23.4331914  61.3493249  59.6647878  23.2152108
  62.6521383  59.2191990  22.5859190  65.5881930  59.4044748  27.1486253
  66.3642320  59.8941200  27.4210870  64.8630064  59.8302802  27.6058122
  68.0254489  60.1172367  28.2060193  68.6198980  59.8768103  27.4953502
  68.0981073  59.3979498  28.8333730  50.2451645  73.9605978  28.5203358
  50.1106113  73.2006379  27.9541356  49.8283707  74.6846878  28.0532147
  61.3810608  69.1442902  17.5279933  62.0846458  69.3492904  18.1437589
  60.6573256  69.7119663  17.7929017  62.2108418  64.8952763  23.6482204
  62.1543619  65.3521314  22.8089836  62.7636760  64.1343447  23.4705046
  66.0213224  60.6842495  24.4732323  65.7650158  60.2839130  25.3040531
  65.3966092  61.3986289  24.3482462  70.3325562  63.4238568  26.9803615
  69.7725120  63.4931757  27.7535177  69.7269065  63.2479553  26.2603111
  53.4020770  74.8575295  28.7321801  53.2853155  75.8020728  28.6300491
  52.5813217  74.5548857  29.1207600  63.2897305  69.5825431  19.5778394
  64.1242909  69.1506629  19.3955868  63.1281648  69.4107444  20.5055288
  62.9443197  66.0857544  20.9434733  62.8892001  65.9201816  20.0023177
  62.3189252  66.7933577  21.0996923  56.2539323  55.5865653  20.5220051
  56.2417993  56.5307493  20.6788322  57.1462745  55.4035799  20.2279512
  54.4275285  75.5103557  31.9477729  55.3302531  75.5427167  32.2644224
  54.2012655  74.5804008  31.9624065  56.1828887  74.2634544  28.6087808
  55.2324518  74.2636405  28.4952180  56.4861373  73.5167278  28.0923843
  60.0691442  52.1808430  24.7765988  59.3023838  51.6266916  24.9222670
  60.4802147  52.2530299  25.6380140  68.7271286  80.0522510  29.6095095
  68.3889798  79.9363575  28.7215630  69.5961055  79.6513675  29.5896101
  64.5858102  81.9057986  25.5991986  64.0222967  81.8147923  24.8308274
  64.4710497  81.0857891  26.0794478  69.2091069  81.2057362  35.5681300
  69.1979710  80.8110160  34.6961804  69.3711709  80.4723434  36.1615072
  62.1322534  83.4009178  28.4376206  62.9243826  83.0600003  28.0222506
  62.3719184  83.5104153  29.3578360  66.8554537  81.3671322  31.1061844
  67.4518110  81.1427344  30.3918807  66.9129509  80.6256068  31.7087292
  71.4722849  77.8246536  26.7486778  72.2585938  77.4065959  26.3977195
  71.7361553  78.7292628  26.9168427  68.4907395  80.1849010  24.8483099
  68.1265603  79.6579631  25.5596021  69.3474511  79.7947480  24.6749585
  74.3956696  71.4743343  32.1114365  74.0640021  72.3438754  31.8875580
  73.8002309  71.1579627  32.7908396  64.3400697  80.1269686  27.5446983
  63.4151194  79.9945900  27.7524674  64.5885110  80.9063905  28.0416925
  74.2885359  76.1938429  29.1907715  73.3802237  76.1253838  28.8966476
  74.2372955  76.6710374  30.0189541  61.7009508  79.7702959  28.3790772
  61.8301889  80.0237438  29.2930183  61.0206959  80.3630667  28.0595427
  68.3626225  77.6128075  37.1342613  67.5859559  78.1721995  37.1245477
  69.0016788  78.0984858  37.6557483  76.1547006  74.3954868  30.9685589
  75.5121386  74.6887401  30.3225384  75.6501934  74.2807788  31.7738786
  66.6172598  80.4213528  36.6960580  67.3587282  80.9598572  36.4195403
  65.9109583  81.0479817  36.8532132  68.4459007  77.5015275  32.6666298
  69.2920202  77.9254689  32.8100947  68.3857645  76.8448900  33.3604861
  71.5958453  75.1619644  34.3247472  71.3519384  75.9161704  33.7881748
  71.8718383  75.5404991  35.1594719  71.1523144  74.3176077  29.9061310
  70.2907623  74.6157330  30.1978047  71.1785579  74.5346476  28.9742342
  64.8608795  82.4089749  29.2514878  65.4310152  82.8377017  28.6132363
  65.4516907  82.1272334  29.9499064  66.9053600  78.9841420  23.1224680
  67.6077643  79.4362463  23.5898607  66.5734228  78.3425239  23.7504573
  65.3533961  77.5753176  37.4975890  64.7232622  78.2569457  37.7311287
  65.2470049  77.4636258  36.5529028  60.6478934  77.2424972  28.4241814
  59.8577988  77.4982501  27.9481925  61.1390181  78.0573310  28.5293854
  62.5993679  77.6069552  25.3825291  61.8024842  77.7188246  25.9008786
  62.3719271  77.9456204  24.5166181  58.9316637  77.4955463  30.8556805
  59.1824675  78.3802473  31.1214381  59.4676185  77.3160064  30.0831897
  64.6314704  71.8773942  39.8601141  64.2381650  71.3240141  40.5348785
  65.4480844  72.1884521  40.2507658  61.5976762  83.3157800  23.7714711
  62.1101282  84.1101051  23.9220275  62.2499475  82.6184091  23.7048312
  67.5482665  73.2931821  37.4521397  68.2892378  73.8938974  37.3725860
  67.7800588  72.5509459  36.8939440  62.6924003  78.4788189  35.7299627
  62.5777518  77.5773446  36.0306726  61.8368521  78.7251885  35.3784444
  71.4939828  69.3212924  31.7285679  71.1504097  70.2114566  31.6524790
  71.8618791  69.1314582  30.8655264  59.5625679  81.6446455  24.5474281
  60.4000901  82.0543463  24.3307989  59.7403946  80.7045897  24.5174475
  69.0437222  74.1571236  25.2943353  68.1878818  73.7678087  25.1148991
  69.4564173  74.2363197  24.4343138  70.5736368  71.6917579  29.6934912
  70.0701164  71.6547715  28.8802718  70.8666975  72.6010322  29.7531569
  66.8179254  71.7756309  28.7001094  67.6832251  71.5799118  28.3406984
  66.8856763  71.5466661  29.6270451  64.4241573  74.0058517  26.0717461
  64.9985325  73.7833699  25.3390654  65.0112556  74.0747212  26.8246062
  66.7264241  70.8799766  24.7992530  66.0728653  70.5648783  24.1749145
  66.6844715  70.2575506  25.5252353  69.9601981  77.3681699  29.1240178
  69.0424543  77.5896646  28.9661866  70.3762125  77.4428010  28.2651885
  73.1915866  75.8030231  26.2361647  72.4538623  75.2907618  26.5671890
  73.4442640  75.3630613  25.4244924  73.2927494  68.5806483  26.8303417
  73.5986370  67.7203847  26.5429332  74.0180098  69.1724104  26.6302411
  59.5851850  78.9837170  25.2185015  59.3876249  78.3906531  24.4936081
  59.0298514  78.6789380  25.9360953  67.5648573  78.8760276  27.3379608
  67.6197183  77.9234113  27.2622084  66.7539775  79.0319716  27.8220906
  65.5040933  77.4937336  25.0969987  64.6908799  77.7931507  25.5035179
  65.9999927  77.0993025  25.8144469  71.1015145  77.9579161  33.9284881
  71.4564533  78.1850634  34.7879346  71.7487276  78.2897537  33.3062136
  64.9955008  75.0655692  30.7131222  65.6354387  74.9244451  30.0154185
  64.1632539  74.7790205  30.3369824  62.0798075  78.5101204  22.9025967
  61.1495663  78.4485659  23.1195929  62.1755547  77.9877157  22.1062608
  61.9983624  75.0356017  25.4904208  62.2590442  75.9501350  25.3813369
  62.8200797  74.5680459  25.6400821  63.4708550  76.4493774  32.6603033
  64.1431603  76.2411136  32.0115682  62.6438336  76.2515860  32.2208265
  69.3734122  73.0755715  34.6768694  68.7262037  73.7745664  34.5833170
  70.1435137  73.5091859  35.0444942  63.8736047  79.7236377  33.4205470
  63.7355845  78.9916616  34.0217009  64.7840970  79.6345277  33.1389658
  66.5018348  79.4356336  32.9089150  67.2117966  78.7949528  32.8675768
  66.4587656  79.6869231  33.8315331  65.2147282  76.4221554  34.7284789
  64.6784639  75.9712293  35.3806386  64.6263990  76.5567463  33.9855254
  56.1451681  80.6687365  27.3852760  56.8322721  80.3549095  26.7973775
  55.9899809  81.5728730  27.1120011  60.9486403  75.5577562  31.8137784
  60.8644592  74.9503231  31.0788194  60.1269109  76.0486580  31.8147280
  71.1210117  74.0431125  27.1807979  71.6178816  73.2901088  26.8609049
  70.3497098  74.0795442  26.6151188  67.7045085  76.1848508  26.9079663
  67.3342873  75.6319549  27.5960569  68.2004178  75.5806642  26.3554663
  73.5629112  71.0100719  29.3287338  72.6492191  71.2404946  29.4969545
  73.9922213  71.0939163  30.1801370  69.3823143  79.9410422  38.3153269
  68.7063780  79.8404551  38.9855644  70.2050777  79.7849636  38.7789266
  61.1302002  86.1782358  30.9365784  61.7155439  85.4326046  31.0693688
  60.9326841  86.4886315  31.8202448  55.7219657  78.7487959  29.6570227
  55.7603756  78.2151549  30.4507345  55.2159950  78.2223164  29.0381204
  63.1010419  73.5952499  33.1532769  63.1651746  74.4567330  32.7410167
  63.0377539  72.9826501  32.4205128  62.5762692  75.6675632  36.8005804
  63.2034731  75.2852709  37.4143328  61.7190611  75.4489834  37.1661496
  59.3528234  77.4752061  22.7324159  59.6481676  76.5662739  22.6791212
  58.4516270  77.4539800  22.4105161  62.8822481  75.5508057  28.7151707
  62.1609067  76.1644025  28.5759180  63.6715737  76.0865822  28.6368353
  65.6848795  72.8862484  34.9892359  66.2083197  73.1324780  35.7518668
  65.4661128  73.7182519  34.5695496  61.0816076  75.1566158  22.8563484
  60.7528782  74.2763537  22.6738590  61.4355447  75.1013827  23.7439873
  64.1957899  75.4439128  23.2238961  64.5353972  75.9725049  22.5017570
  64.6430020  75.7819534  23.9997528  66.8901340  73.8276179  32.6742029
  66.5498160  73.0283992  33.0762709  66.1840346  74.1277890  32.1018863
  67.5417812  70.9125491  31.1269352  68.3643881  70.4385970  31.0048243
  67.7855875  71.6915975  31.6268039  66.1826046  73.9413750  21.4232254
  66.9034409  74.3195003  20.9195971  65.5591350  74.6602627  21.5267232
  70.3257169  74.6458899  22.3590586  70.5420784  75.5283537  22.0579415
  69.8451236  74.2545112  21.6296228  65.0656391  77.6044612  28.9361331
  64.9200971  77.9184915  29.8285613  64.5881594  78.2229512  28.3832230
  66.9252773  74.5947160  28.9842221  66.9114342  73.6988253  28.6474519
  67.6425202  74.6017824  29.6180507  68.7778904  75.0284500  31.0295348
  68.5196682  75.9501571  31.0279678  68.2463945  74.6314935  31.7195812
  59.5402053  80.1449956  31.8748992  58.9955521  80.9209764  32.0069267
  60.4181403  80.4920761  31.7168114  66.3289669  73.4761540  24.2529791
  66.4505581  72.5478186  24.4520678  66.0391712  73.4900226  23.3408106
  69.1980860  71.1616451  27.3896511  69.2202557  71.2255784  26.4348490
  69.6148919  70.3220959  27.5837017  60.3268075  79.2719853  34.7679149
  59.5849811  79.4202488  35.3543780  60.0060819  79.5328118  33.9045899
  58.9733293  85.0771608  27.7578477  58.1365202  84.6493782  27.5762479
  58.9456939  85.2704051  28.6949269  65.8130749  74.9893538  38.4619723
  65.8618904  75.8655660  38.0797493  66.3553263  74.4470931  37.8891367
  68.0430037  75.7424910  35.2166082  67.1733347  76.0358476  34.9448671
  68.2789518  76.3265355  35.9373346  63.0572361  81.0880851  23.3506747
  62.8118403  80.1843181  23.5486957  63.2268276  81.0898001  22.4086225
  70.7469071  71.9604527  32.7331502  71.2651015  72.6965554  32.4077991
  70.3924204  72.2668520  33.5678262  62.3268009  76.8209208  20.8492908
  61.6337254  76.8953563  20.1932944  62.0819761  76.0569552  21.3714425
  70.9981665  68.3804809  28.2532399  71.2783419  67.7127999  28.8792826
  71.7832272  68.5733905  27.7407063  72.8904903  73.8878027  32.1863375
  72.2954835  74.1683039  31.4909864  72.6054600  74.3771928  32.9580116
  75.1583817  70.5580622  27.1200370  74.9608638  70.2495710  28.0043702
  75.7683523  71.2842261  27.2498299  58.2882790  78.1380956  27.5427409
  57.9685574  77.2846264  27.2501783  57.7416218  78.3529534  28.2985377
  62.0662697  80.8543397  31.2596916  62.2848707  81.7860505  31.2784950
  62.4788471  80.4951371  32.0451720  68.9866915  71.3611482  23.2472604
  68.1767644  71.0158567  23.6227850  69.6751332  71.0519026  23.8360216
  70.9157464  70.4389529  24.8696901  71.4688502  70.8584982  25.5286924
  71.1527550  69.5125277  24.9119857  66.9390563  76.4276603  40.6499665
  66.8387290  77.3770960  40.5811756  66.7212105  76.0994842  39.7775735
  58.1571050  81.7583867  29.5120531  57.4634521  81.3437820  28.9990485
  58.9044041  81.8004404  28.9153950  74.2936271  72.5490054  24.3775565
  73.7134940  73.2074858  23.9953618  74.0272203  71.7267399  23.9662983
  72.7439837  71.9495112  26.5796886  73.2439615  72.0611646  25.7711204
  73.3875445  71.6456165  27.2197694  66.8021833  79.8573742  39.4664727
  66.3188915  80.6574102  39.6728616  66.8882772  79.8681686  38.5132171
  60.0707792  81.6902121  27.3886546  60.0478481  81.7889808  26.4368429
  60.3808429  82.5367272  27.7103712  62.7295170  83.7478276  31.5033160
  63.6838424  83.7162219  31.4363092  62.5307694  83.2868900  32.3183386
  63.3194552  82.3179392  34.0703958  64.1387441  82.8123471  34.0938795
  63.5931360  81.4011360  34.0421525  73.0761149  74.7090145  23.4331914
  72.1887004  74.9939795  23.2152108  73.4915138  74.5483908  22.5859190
  76.4275685  74.7336666  27.1486253  77.2036075  75.2233118  27.4210870
  75.7023819  75.1594720  27.6058122  58.5729467  76.6517526  34.7696155
  59.2188330  76.1416480  35.2583380  58.3646618  77.3886208  35.3439580
  67.0933077  70.9157571  20.5220051  67.0811747  71.8599411  20.6788322
  67.9856499  70.7327716  20.2279512  70.9085197  67.5100347  24.7765988
  70.1417592  66.9558834  24.9222670  71.3195902  67.5822216  25.6380140
  62.9126958  73.7985143  38.8671169  63.7758419  73.4421948  39.0774494
  62.3392368  73.4599038  39.5546574  26.4140824   2.1100381  24.0532434
  25.9704678   1.3236759  23.7353339  27.0758038   2.2979531  23.3876325
  28.5122062   2.3903181  22.0813836  28.4940537   3.2112062  21.5894105
  29.4341982   2.2657256  22.3063977  24.9695116  -0.0952690  22.9237344
  25.5023453  -0.8564402  22.6936652  24.4409197  -0.3879038  23.6661498
  34.3622794  -1.1207724  18.9023673  34.5558684  -0.2161913  19.1482948
  34.2623412  -1.5800305  19.7362258  29.4237903  -0.9700981  24.4764554
  29.2723409  -1.1990429  23.5594637  29.4142582  -0.0130380  24.4895899
  31.1330110   2.0618141  22.5541036  31.0742656   1.3777362  21.8871619
  31.5349628   2.8037131  22.1021662  31.1347517   0.0257725  20.7855015
  30.2474296  -0.3116353  20.9081414  31.7046068  -0.7059243  21.0223781
  27.1247354   4.5846012  19.9074417  27.8375326   5.2193477  19.8350319
  26.6337382   4.6809878  19.0914419  26.0248126  -4.3695126  25.0398575
  25.3488763  -4.4700997  25.7100951  26.8475760  -4.5255913  25.5034573
  24.7670909   6.9371801  19.2756191  25.3189217   7.1003423  20.0405277
  25.1077103   7.5276239  18.6036216  29.6181784   1.7633059  25.1304846
  30.1621688   2.3763017  24.6359801  29.0368628   2.3212637  25.6471859
  24.9136721   4.5030283  21.2904846  25.2223847   4.2579430  22.1627545
  25.7112203   4.7076921  20.8023716  32.9410578   1.2229113  24.4666167
  32.1506122   1.2053252  23.9270667  32.7043932   1.7617406  25.2215204
  33.0608453  -1.9278421  21.7798896  33.1106458  -2.0928413  22.7214418
  32.9522376  -2.7951162  21.3896776  34.5626650   0.4918521  22.0240917
  34.2711458   0.8548501  22.8604378  33.9498781  -0.2214471  21.8454249
  25.7125608  -1.3663186  25.3419441  26.6328618  -1.1884587  25.5359488
  25.6775191  -2.3107140  25.1899141  27.7407842  -0.5907174  26.9933602
  28.6099002  -0.4166522  26.6320237  27.2614594   0.2287242  26.8709332
  39.4000318  11.1181451  16.3978877  40.0378728  10.9988199  15.6942217
  39.2821161  12.0662295  16.4566829  36.2090024  11.0708880  16.3340402
  35.8708536  10.9549944  15.4460936  37.0779792  10.6700045  16.3141408
  36.6909807  12.2243731  22.2926607  36.6798448  11.8296530  21.4207111
  36.8530447  11.4909804  22.8860379  29.6141272  14.4195548  15.1621513
  30.4062564  14.0786372  14.7467812  29.8537922  14.5290523  16.0823666
  37.6476399  16.5915324   7.6351757  36.9964378  17.1769404   7.2485771
  38.4420761  17.1221519   7.6946795  33.4117068  15.0080843  21.2405791
  33.1206934  15.9126474  21.1252457  34.0474053  15.0497371  21.9549861
  34.3373275  12.3857692  17.8307151  34.9336847  12.1613714  17.1164114
  34.3948247  11.6442437  18.4332599  38.9541586   8.8432905  13.4732085
  39.7404676   8.4252328  13.1222502  39.2180291   9.7478997  13.6413733
  44.3550014   8.7808139  14.3765063  45.0875185   8.2107355  14.6102893
  43.5989369   8.3929739  14.8171569  35.9726133  11.2035380  11.5728406
  35.6084340  10.6766001  12.2841327  36.8293249  10.8133849  11.3994891
  41.8775434   2.4929713  18.8359672  41.5458759   3.3625124  18.6120887
  41.2821047   2.1765997  19.5153702  38.3706953  14.6942259  18.2355585
  38.0707677  15.5967297  18.1271392  38.0258013  14.4274442  19.0876738
  31.8219435  11.1456055  14.2692289  30.8969931  11.0132270  14.4769981
  32.0703848  11.9250275  14.7662232  41.7704097   7.2124799  15.9153022
  40.8620975   7.1440207  15.6211783  41.7191693   7.6896744  16.7434848
  29.1828246  10.7889329  15.1036078  29.3120627  11.0423808  16.0175490
  28.5025697  11.3817037  14.7840733  33.3527733  21.4586579  11.2026553
  33.2751763  22.4094404  11.2815033  32.7489377  21.1132451  11.8601479
  35.8444963   8.6314444  23.8587919  35.0678297   9.1908365  23.8490784
  36.4835526   9.1171227  24.3802790  43.6365744   5.4141237  17.6930896
  42.9940124   5.7073770  17.0470691  43.1320672   5.2994158  18.4984093
  34.0991335  11.4399898  23.4205886  34.8406020  11.9784942  23.1440710
  33.3928321  12.0666187  23.5777438  39.5746675  13.5829038  22.0178048
  39.9830031  13.1411449  21.2732680  38.8523936  13.0081666  22.2712241
  35.9277745   8.5201645  19.3911605  36.7738940   8.9441059  19.5346254
  35.8676383   7.8635269  20.0850168  39.8975490  14.1430229  15.7730337
  39.2684352  14.3075943  15.0706405  39.5101152  14.5571838  16.5441301
  43.7764721  15.0784667  13.1274701  43.0915760  15.4583568  12.5771734
  43.8608571  15.6879993  13.8606648  39.0777190   6.1806013  21.0492778
  38.8338122   6.9348074  20.5127054  39.3537121   6.5591361  21.8840026
  41.0315653  12.7244626  19.7270044  41.2432548  13.3676386  19.0504425
  40.9845401  11.8906942  19.2591974  38.6341882   5.3362446  16.6306616
  37.7726361   5.6343700  16.9223354  38.6604317   5.5532845  15.6987649
  35.4503451  13.8804637  13.0380422  35.9141797  14.1592340  12.2485044
  35.1860250  12.9788082  12.8553513  32.3427533  13.4276118  15.9760185
  32.9128890  13.8563387  15.3377670  32.9335644  13.1458703  16.6744371
  32.8352699   8.5939546  24.2221196  32.2051360   9.2755827  24.4556593
  32.7288787   8.4822628  23.2774335  42.1461481  15.6016581  17.8992401
  42.9678925  15.1996768  17.6175083  42.1423884  15.4984815  18.8508517
  35.9118084  15.1500624  20.0553112  35.9762517  15.6121032  20.8911284
  35.2029008  14.5197989  20.1835422  26.4135374   8.5141832  17.5802111
  26.6643413   9.3988842  17.8459687  26.9494923   8.3346434  16.8077203
  50.2367474  11.9455330  14.2477373  49.4831182  11.3762728  14.0921377
  50.3715015  11.9117994  15.1948008  35.6266102  16.8168732   9.9232092
  35.4911777  17.6620268  10.3516940  36.1675915  17.0188010   9.1598026
  32.1133442   2.8960312  26.5846447  31.7200387   2.3426510  27.2594092
  32.9299582   3.2070890  26.9752965  30.8890384  17.4509926  12.5782770
  31.0657013  18.3727891  12.3903754  31.6847218  17.1368345  13.0077150
  35.0301403   4.3118191  24.1766704  35.7711116   4.9125344  24.0971166
  35.2619326   3.5695829  23.6184747  30.1742741   9.4974558  22.4544934
  30.0596256   8.5959815  22.7552033  29.3187259   9.7438255  22.1029750
  37.2534579  17.4392298  24.0532434  36.8098433  16.6528677  23.7353339
  37.9151792  17.6271449  23.3876325  32.0121700  18.9688100  18.5793113
  32.5629125  18.8405163  17.8070107  31.1733176  19.2682989  18.2288006
  39.3515817  17.7195098  22.0813836  39.3334292  18.5403979  21.5894105
  40.2735737  17.5949174  22.3063977  35.8088871  15.2339228  22.9237344
  36.3417208  14.4727516  22.6936652  35.2802952  14.9412880  23.6661498
  38.9758566   0.3399294  18.4530986  38.6322835   1.2300935  18.3770096
  39.3437528   0.1500951  17.5900571  38.0555106   2.7103949  16.4180219
  37.5519902   2.6734084  15.6048024  38.3485713   3.6196692  16.4776876
  43.9143123  13.0840260   8.8956594  43.1372565  12.7451419   8.4511756
  44.5934604  13.0892883   8.2211559  37.1741583  14.3625220  10.4356156
  36.6462945  13.6277980  10.1229393  36.6729086  15.1399897  10.1896124
  42.1534429  12.5574241  15.5523202  41.4958104  13.2473502  15.6403331
  42.9574829  12.9470673  15.8957189  40.9639888  10.9118613  13.6027144
  41.4771770  11.5448605  14.1048854  41.6141112  10.3119809  13.2370504
  38.2262263  20.8902938   6.3587815  37.5523961  21.1934635   6.9672773
  38.6128084  21.6932018   6.0093272  37.4420719   8.3868069  15.8485485
  36.5243280   8.6083016  15.6907173  37.8580863   8.4614380  14.9897192
  38.2255767   9.7859485  10.9788165  38.9727586  10.2980882  10.6695287
  38.4947356   9.4643537  11.8392558  41.7301684  15.8924615  11.7306287
  41.2764012  15.0515525  11.7871477  41.0995651  16.5286013  12.0681067
  40.6734604   6.8216601  12.9606954  39.9357361   6.3093987  13.2917197
  40.9261378   6.3816983  12.1490231  40.1734624  17.7301112  12.6656105
  40.4657598  18.2906169  11.9468470  40.6833244  18.0229673  13.4209264
  35.0467311   9.8946646  14.0624914  35.1015921   8.9420482  13.9867391
  34.2358513  10.0506085  14.5466213  35.1368249  18.5081463  13.7549558
  35.0944428  18.7342309  12.8258090  36.0530948  18.2744837  13.9035359
  38.5833883   8.9765530  20.6530187  38.9383270   9.2037003  21.5124653
  39.2306014   9.3083907  20.0307443  44.3131620  12.0983966  11.3579516
  44.1749518  12.2885562  10.4300705  43.9567838  12.8603349  11.8147567
  32.4773746   6.0842061  17.4376528  33.1173125   5.9430820  16.7399492
  31.6451276   5.7976575  17.0615130  44.3400999  14.1660493  16.3690788
  44.7737506  14.0735782  17.2173842  45.0532580  14.1417994  15.7310804
  33.2534050  15.3844492  13.5511521  34.0474648  14.8894812  13.3494096
  32.5425742  14.8562355  13.1879226  38.0728894  17.7662587  17.9023888
  38.1265916  18.3353524  18.6701604  37.2043676  17.9364472  17.5377925
  30.9527288   7.4680143  19.3848340  31.6250341   7.2597506  18.7360989
  30.1257074   7.2702229  18.9453572  45.2016549  14.2084194  18.9023673
  45.3952439  15.1130004  19.1482948  45.1017167  13.7491613  19.7362258
  36.8552860   4.0942084  21.4014000  36.2080775   4.7932034  21.3078477
  37.6253875   4.5278228  21.7690249  40.2631657  14.3590937  24.4764554
  40.1117164  14.1301488  23.5594637  40.2536337  15.3161538  24.4895899
  37.0316994  11.9322849  19.4610820  37.9609054  12.0834009  19.2879788
  36.6108024  12.0206870  18.6059467  35.8305326  15.9573514  17.2309358
  35.6916411  15.5892298  18.1035296  35.0419922  16.4721153  17.0593316
  36.4253478  21.0582610   8.5734894  36.6005233  20.5870653   9.3880517
  35.7386266  21.6848376   8.8016155  37.3810541  15.3355116  14.6198196
  37.0460373  15.2955886  15.5155845  36.8814487  14.6699832  14.1468606
  31.3554785  10.7422746  20.1450777  31.2174583  10.0102985  20.7462316
  32.2659708  10.6531647  19.8634965  33.9837085  10.4542706  19.6334456
  34.6936704   9.8135898  19.5921075  33.9406394  10.7055601  20.5560637
  41.9723864  17.3910059  22.5541036  41.9136410  16.7069279  21.8871619
  42.3743383  18.1329049  22.1021662  32.6966019   7.4407924  21.4530096
  32.1603376   6.9898662  22.1051692  32.1082728   7.5753832  20.7100560
  30.9914563  24.2071973  15.3474755  31.2311161  24.8390497  16.0253773
  30.1483759  23.8560013  15.6340114  41.9741271  15.3549643  20.7855015
  41.0868050  15.0175565  20.9081414  42.5439822  14.6232674  21.0223781
  28.4305141   6.5763931  18.5383090  28.3463329   5.9689601  17.8033500
  27.6087847   7.0672950  18.5392587  35.5042425  20.0151095  17.7516259
  35.4312596  20.8206067  18.2635563  35.0619818  20.2143061  16.9264280
  35.2932204  19.2522865  11.2619080  34.5099726  19.7944546  11.3557305
  35.9924950  19.7696845  11.6613321  46.4558612  10.7657860  15.5471577
  46.4448488  11.6482576  15.1765510  45.5875991  10.4129411  15.3526114
  37.9641108  19.9137929  19.9074417  38.6769081  20.5485394  19.8350319
  37.4731137  20.0101795  19.0914419  39.6858635  13.8189182  11.4791709
  38.7514914  13.9390645  11.3096413  39.8635304  12.9161649  11.2151719
  43.0731187   9.6606501  12.0141743  43.5391639  10.4934493  11.9402046
  43.5238687   9.1951483  12.7187001  33.0153022  17.6632373  20.7279988
  33.7162481  18.2968856  20.8809382  32.5448137  18.0047104  19.9675627
  41.1407418  16.0050323   9.0127895  41.4167262  15.8906917   9.9221769
  40.2711916  15.6067808   8.9740068  41.0447849   2.0287088  16.0532644
  40.1310929   2.2591315  16.2214851  41.4740951   2.1125532  16.9046677
  40.8154308  10.2176980  18.5532538  40.1625758  10.4652888  17.8984991
  41.1934688   9.4041119  18.2195016  37.7761482  20.2536674  12.6560709
  37.9583876  19.4358329  13.1188461  38.5994468  20.4704366  12.2185599
  38.1103647  19.1804859   9.9175757  38.6391414  18.6697313   9.3045919
  38.3731867  18.8647389  10.7821290  36.8641881  10.9596791  25.0398575
  36.1882518  10.8590921  25.7100951  37.6869515  10.8036005  25.5034573
  28.6120740  17.1968728  17.6611091  29.1974177  16.4512416  17.7938995
  28.4145578  17.5072685  18.5447755  31.4659395  20.2319975  12.6773533
  30.7969770  20.7166103  12.1937573  31.3272265  20.4789196  13.5916912
  35.6064664  22.2663719  19.2756191  36.1582972  22.4295340  20.0405277
  35.9470857  22.8568157  18.6036216  30.5829157   4.6138869  19.8778076
  30.6470483   5.4753700  19.4655474  30.5196277   4.0012870  19.1450435
  30.0581429   6.6862001  23.5251110  30.6853468   6.3039079  24.1388635
  29.2009348   6.4676203  23.8906803  40.4575538  17.0924976  25.1304846
  41.0015442  17.7054935  24.6359801  39.8762383  17.6504555  25.6471859
  38.7433051  20.2145694  16.2619874  38.6184190  19.4135434  15.7530819
  39.4012142  20.7091888  15.7733844  40.8067959  18.0154714  17.8899424
  39.8598295  17.8960066  17.8177750  41.1550732  17.1277213  17.9725685
  33.1667533   3.9048853  21.7137666  33.6901935   4.1511150  22.4763975
  32.9479866   4.7368888  21.2940803  37.8114393  17.8107431  14.0903776
  37.6639355  16.8824138  14.2711346  38.6367886  17.8327521  13.6060851
  41.4148515  18.6335989  15.1768649  42.3395062  18.4278851  15.0393100
  41.2463818  18.3852391  16.0857990  34.3720078   4.8462548  19.3987336
  34.0316898   4.0470362  19.8008016  33.6659084   5.1464259  18.8264169
  35.0236550   1.9311861  17.8514659  35.8462619   1.4572339  17.7293549
  35.2674613   2.7102345  18.3513345  32.5475128   8.6230982  15.6606638
  32.4019709   8.9371285  16.5530919  32.0700332   9.2415882  15.1077536
  34.4071511   5.6133530  15.7087527  34.3933080   4.7174623  15.3719825
  35.1243939   5.6204193  16.3425813  36.2597642   6.0470870  17.7540655
  36.0015420   6.9687940  17.7524985  35.7282682   5.6501304  18.4441119
  41.2043831  19.1521657  10.5330740  41.3780708  18.5868079   9.7804593
  41.6972722  19.9522552  10.3510230  27.0220791  11.1636326  18.5994299
  26.4774259  11.9396134  18.7314573  27.9000140  11.5107130  18.4413420
  47.0583222  11.9158080  12.1521040  47.5014368  11.1665405  11.7540163
  46.1809732  11.9068216  11.7694772  42.1919003  18.4688421   7.6327638
  42.8869908  19.0895114   7.8514953  42.5342153  17.6183772   7.9080016
  27.8086812  10.2906222  21.4924456  27.0668548  10.4388858  22.0789086
  27.4879557  10.5514488  20.6291205  44.0910426  15.9188127   9.1614969
  44.6161750  16.2575400   8.4364289  44.0032779  14.9835142   8.9778104
  35.7530475  19.8322200  21.2904846  36.0617601  19.5871347  22.1627545
  36.5505957  20.0368839  20.8023716  35.7751087  21.9860110  13.5210222
  35.3356077  21.4936489  14.2143079  36.5259204  21.4433078  13.2802298
  28.2543426  18.1771651  13.5234850  29.0801446  17.8775423  13.1433494
  27.9037478  17.4079273  13.9724639  33.2224959  17.5298119  15.5932524
  32.6004969  16.8668824  15.2934752  33.8929826  17.5559251  14.9106172
  26.4552031  16.0957977  14.4823784  25.6183939  15.6680152  14.3007785
  26.4275677  16.2890421  15.4194575  33.2949487   6.0079907  25.1865030
  33.3437642   6.8842030  24.8042800  33.8372001   5.4657300  24.6136673
  43.7804332  16.5521030  24.4666167  42.9899876  16.5345169  23.9270667
  43.5437687  17.0909324  25.2215204  43.9002207  13.4013497  21.7798896
  43.9500212  13.2363504  22.7214418  43.7916131  12.5340756  21.3896776
  41.1905970   9.3844425  23.0958202  42.0915833   9.2450890  22.8042200
  41.2653944   9.5498880  24.0356380  35.5248775   6.7611280  21.9411389
  34.6552085   7.0544846  21.6693977  35.7608256   7.3451725  22.6618652
  45.4020404  15.8210438  22.0240917  45.1105213  16.1840419  22.8604378
  44.7892536  15.1077447  21.8454249  46.6016087  13.3863318  14.5443487
  47.4362978  13.8253122  14.7081048  46.7375215  12.9101971  13.7251733
  43.6507593  10.9443053  20.4920975  44.1261714  11.1370699  19.6839827
  42.7273158  11.0002239  20.2464359  38.2287809   2.9790897  19.4576809
  38.7469753   3.7151923  19.1323298  37.8742942   3.2854890  20.2923568
  42.3509262   7.8208813  18.7249281  43.3026684   7.9206911  18.7461505
  42.1812712   7.0287082  19.2347365  40.3723641   4.9064396  18.9108682
  39.7773573   5.1869409  18.2155170  40.0873338   5.3958297  19.6825423
  39.5031131  18.8587323   7.6711314  40.4361805  18.7932885   7.8744190
  39.4154344  19.6943590   7.2125847  42.1319148  18.1753193   4.6315262
  42.0532780  17.8413057   5.5251020  42.9528815  18.6674961   4.6306734
  44.8297339  11.0414933  17.8391580  44.7973659  10.1030933  18.0251264
  45.4397963  11.1198969  17.1057405  44.9791828   7.8325976  17.8849864
  44.4630876   7.0484433  17.6979792  45.8631776   7.5044693  18.0496383
  42.6402555   1.5766992  13.8445676  42.4427376   1.2682080  14.7289008
  43.2502260   2.3028631  13.9743606  50.6473889  12.1030940  16.9797617
  51.3777278  11.8416228  17.5405321  50.0380835  11.3659662  17.0199685
  48.7289186  10.2438802  17.5772068  48.0022350  10.1094767  16.9688560
  48.3136473  10.5515631  18.3828786  36.5519363  13.9628732  25.3419441
  37.4722372  14.1407331  25.5359488  36.5168946  13.0184777  25.1899141
  29.5481435  11.8729767  17.9842223  29.7667445  12.8046874  18.0030256
  29.9607209  11.5137741  18.7697026  34.4209301   7.4462972  27.3744972
  34.3206027   8.3957329  27.3057063  34.2030843   7.1181211  26.5021042
  25.6389788  12.7770237  16.2365838  24.9453259  12.3624190  15.7235792
  26.3862779  12.8190774  15.6399257  34.2840571  10.8760111  26.1910033
  33.8007652  11.6760471  26.3973922  34.3701510  10.8868056  25.2377477
  30.2113908  14.7664646  18.2278467  31.1657162  14.7348588  18.1608399
  30.0126432  14.3055270  19.0428693  30.8013290  13.3365762  20.7949265
  31.6206179  13.8309841  20.8184102  31.0750098  12.4197730  20.7666832
  43.9094423   5.7523035  13.8731559  44.6854813   6.2419488  14.1456176
  43.1842557   6.1781089  14.3303429  46.3466981   6.4650654  14.9305500
  46.9411472   6.2246390  14.2198808  46.4193565   5.7457785  15.5579036
  28.5664137  20.3084265  15.2448665  28.4318605  19.5484666  14.6786663
  28.1496199  21.0325165  14.7777454  40.5320910  11.2431050  10.3727510
  40.4756112  11.6999602   9.5335143  41.0849253  10.4821735  10.1950353
  44.3425716   7.0320782  11.1977630  44.0862650   6.6317418  12.0285837
  43.7178584   7.7464576  11.0727769  48.6538054   9.7716855  13.7048921
  48.0937612   9.8410045  14.4780483  48.0481557   9.5957840  12.9848417
  31.7233263  21.2053582  15.4567107  31.6065647  22.1499015  15.3545798
  30.9025709  20.9027144  15.8452907  41.6109797  15.9303718   6.3023700
  42.4455401  15.4984917   6.1201175  41.4494140  15.7585732   7.2300595
  26.0548204   7.6703896  21.4941462  26.7007068   7.1602850  21.9828687
  25.8465356   8.4072577  22.0684887  38.5801597  14.7384743  26.9933602
  39.4492756  14.9125395  26.6320237  38.1008348  15.5579160  26.8709332
  32.7487777  21.8581844  18.6723036  33.6515024  21.8905454  18.9889531
  32.5225147  20.9282295  18.6869372  34.5041379  20.6112831  15.3333115
  33.5537010  20.6114692  15.2197487  34.8073865  19.8645565  14.8169149
  30.3945695   4.8171513  25.5916476  31.2577157   4.4608318  25.8019801
  29.8211106   4.4785408  26.2791880  50.2394072  26.4473369  16.3978877
  50.8772482  26.3280117  15.6942217  50.1214915  27.3954213  16.4566829
  47.0483779  26.4000797  16.3340402  46.7102290  26.2841862  15.4460936
  47.9173547  25.9991962  16.3141408  42.9070594  28.2536274  12.3237293
  42.3435460  28.1626211  11.5553580  42.7922989  27.4336178  12.8039785
  47.5303562  27.5535649  22.2926607  47.5192202  27.1588447  21.4207111
  47.6924201  26.8201722  22.8860379  40.4535026  29.7487465  15.1621513
  41.2456318  29.4078290  14.7467812  40.6931676  29.8582440  16.0823666
  48.4870153  31.9207241   7.6351757  47.8358133  32.5061322   7.2485771
  49.2814516  32.4513436   7.6946795  42.4125780  29.0096379   8.0338892
  43.1856656  28.4625366   7.8951768  42.7651179  29.8740628   8.2453353
  44.2510823  30.3372761  21.2405791  43.9600689  31.2418392  21.1252457
  44.8867807  30.3789288  21.9549861  45.1767030  27.7149609  17.8307151
  45.7730602  27.4905632  17.1164114  45.2342001  26.9734355  18.4332599
  44.7492058  25.1689045   5.6657342  45.0017579  24.6470566   4.9040805
  43.8116617  25.0055190   5.7684025  49.7935341  24.1724823  13.4732085
  50.5798430  23.7544246  13.1222502  50.0574045  25.0770915  13.6413733
  49.9645418  29.6097673   8.1720742  49.3291251  29.6832300   8.8841646
  49.6342825  30.1991272   7.4939821  55.1943768  24.1100056  14.3765063
  55.9268940  23.5399273  14.6102893  54.4383124  23.7221657  14.8171569
  44.4688347  27.0717151   7.8681717  44.3524605  26.3962054   8.5362801
  44.5790607  26.5849525   7.0513870  46.8119888  26.5327298  11.5728406
  46.4478095  26.0057919  12.2841327  47.6687004  26.1425767  11.3994891
  52.7169188  17.8221630  18.8359672  52.3852513  18.6917041  18.6120887
  52.1214802  17.5057914  19.5153702  46.4525375  21.5617197   6.5689754
  46.6199777  22.4297434   6.9360225  46.2622544  21.7244479   5.6451044
  49.2100708  30.0234176  18.2355585  48.9101431  30.9259215  18.1271392
  48.8651767  29.7566360  19.0876738  42.6613189  26.4747973  14.2692289
  41.7363686  26.3424187  14.4769981  42.9097603  27.2542192  14.7662232
  52.6097852  22.5416716  15.9153022  51.7014729  22.4732125  15.6211783
  52.5585447  23.0188661  16.7434848  46.4314596  24.0174855   7.5536421
  46.3114221  24.4631906   8.3921902  45.7367184  24.3660173   6.9949959
  40.0222000  26.1181247  15.1036078  40.1514382  26.3715726  16.0175490
  39.3419452  26.7108955  14.7840733  44.1921488  36.7878497  11.2026553
  44.1145517  37.7386322  11.2815033  43.5883131  36.4424369  11.8601479
  46.6838717  23.9606362  23.8587919  45.9072052  24.5200282  23.8490784
  47.3229281  24.4463145  24.3802790  54.4759498  20.7433155  17.6930896
  53.8333878  21.0365688  17.0470691  53.9714427  20.6286075  18.4984093
  52.1299662  24.4896328   8.3816755  53.0417518  24.7223715   8.2064453
  51.6209309  25.0733372   7.8191834  44.9385090  26.7691815  23.4205886
  45.6799774  27.3076859  23.1440710  44.2322075  27.3958104  23.5777438
  50.4140429  28.9120956  22.0178048  50.8223785  28.4703366  21.2732680
  49.6917691  28.3373583  22.2712241  46.7671499  23.8493563  19.3911605
  47.6132695  24.2732976  19.5346254  46.7070137  23.1927187  20.0850168
  50.7369244  29.4722147  15.7730337  50.1078107  29.6367861  15.0706405
  50.3494906  29.8863756  16.5441301  54.6158476  30.4076584  13.1274701
  53.9309514  30.7875486  12.5771734  54.7002325  31.0171911  13.8606648
  49.9170945  21.5097931  21.0492778  49.6731877  22.2639992  20.5127054
  50.1930875  21.8883279  21.8840026  51.8709408  28.0536543  19.7270044
  52.0826303  28.6968303  19.0504425  51.8239156  27.2198860  19.2591974
  49.4735637  20.6654364  16.6306616  48.6120116  20.9635618  16.9223354
  49.4998071  20.8824763  15.6987649  46.2897206  29.2096555  13.0380422
  46.7535551  29.4884258  12.2485044  46.0254004  28.3079999  12.8553513
  43.1821287  28.7568036  15.9760185  43.7522644  29.1855305  15.3377670
  43.7729399  28.4750621  16.6744371  45.2266092  25.3319707   9.8469987
  45.9290135  25.7840751  10.3143913  44.8946720  24.6903526  10.4749880
  38.9691426  23.5903260  15.1487121  38.1790480  23.8460788  14.6727231
  39.4602673  24.4051597  15.2539161  52.9855236  30.9308499  17.8992401
  53.8072679  30.5288686  17.6175083  52.9817638  30.8276733  18.8508517
  40.9206171  23.9547839  12.1070597  40.1237335  24.0666533  12.6254093
  40.6931764  24.2934491  11.2411488  46.7511839  30.4792542  20.0553112
  46.8156271  30.9412949  20.8911284  46.0422763  29.8489907  20.1835422
  37.2529129  23.8433750  17.5802111  37.5037167  24.7280760  17.8459687
  37.7888677  23.6638352  16.8077203  61.0761229  27.2747247  14.2477373
  60.3224937  26.7054645  14.0921377  61.2108770  27.2409912  15.1948008
  46.4659857  32.1460650   9.9232092  46.3305531  32.9912185  10.3516940
  47.0069669  32.3479927   9.1598026  42.9527196  18.2252229  26.5846447
  42.5594142  17.6718428  27.2594092  43.7693337  18.5362808  26.9752965
  39.9189254  29.6636088  10.4960017  40.4313775  30.4579338  10.6465582
  40.5711967  28.9662378  10.4293619  41.7284139  32.7801844  12.5782770
  41.9050767  33.7019809  12.3903754  42.5240972  32.4660263  13.0077150
  45.8695157  19.6410109  24.1766704  46.6104871  20.2417262  24.0971166
  46.1013080  18.8987746  23.6184747  41.0136495  24.8266476  22.4544934
  40.8990010  23.9251733  22.7552033  40.1581013  25.0730173  22.1029750
  48.0928333  32.7684216  24.0532434  47.6492187  31.9820595  23.7353339
  48.7545547  32.9563367  23.3876325  42.8515454  34.2980018  18.5793113
  43.4022879  34.1697081  17.8070107  42.0126930  34.5974907  18.2288006
  50.1909571  33.0487016  22.0813836  50.1728046  33.8695897  21.5894105
  51.1129491  32.9241091  22.3063977  46.6482625  30.5631146  22.9237344
  47.1810962  29.8019434  22.6936652  46.1196706  30.2704797  23.6661498
  49.8152320  15.6691211  18.4530986  49.4716590  16.5592853  18.3770096
  50.1831283  15.4792869  17.5900571  37.8838171  27.9924742  11.2719588
  38.7213393  28.4021750  11.0553296  38.0616438  27.0524184  11.2419782
  49.7802603  25.6599823   6.9603421  49.2649226  26.4304427   7.1991808
  49.5079911  24.9864959   7.5836482  47.3649714  20.5049523  12.0188659
  46.5091310  20.1156374  11.8394298  47.7776666  20.5841484  11.1588445
  48.8948861  18.0395867  16.4180219  48.3913656  18.0026002  15.6048024
  49.1879467  18.9488609  16.4776876  45.1391746  18.1234596  15.4246401
  46.0044743  17.9277405  15.0652290  45.2069255  17.8944948  16.3515757
  54.7536877  28.4132177   8.8956594  53.9766320  28.0743337   8.4511756
  55.4328358  28.4184800   8.2211559  49.5688906  23.5326915   8.7863202
  49.2639042  23.8473064   9.6373345  50.5219348  23.6108335   8.8290535
  48.0135338  29.6917138  10.4356156  47.4856700  28.9569898  10.1229393
  47.5122841  30.4691814  10.1896124  52.9928184  27.8866158  15.5523202
  52.3351858  28.5765420  15.6403331  53.7968583  28.2762590  15.8957189
  42.7454066  20.3536804  12.7962767  43.3197817  20.1311986  12.0635960
  43.3325048  20.4225499  13.5491369  51.8033643  26.2410531  13.6027144
  52.3165524  26.8740523  14.1048854  52.4534867  25.6411727  13.2370504
  43.0723653  22.3841265   6.8158653  42.2360965  22.7215952   7.1367927
  42.9328422  22.2490245   5.8785790  45.0476733  17.2278053  11.5237837
  44.3941146  16.9127070  10.8994452  45.0057207  16.6053794  12.2497660
  46.1587938  27.5097348   3.4391129  45.2515000  27.2786602   3.6382278
  46.6558970  26.7134968   3.6265111  49.0656017  36.2194855   6.3587815
  48.3917716  36.5226552   6.9672773  49.4521839  37.0223936   6.0093272
  48.2814474  23.7159987  15.8485485  47.3637035  23.9374934  15.6907173
  48.6974617  23.7906297  14.9897192  49.0649521  25.1151402  10.9788165
  49.8121340  25.6272800  10.6695287  49.3341111  24.7935455  11.8392558
  47.3376172  27.6109943   7.9615119  46.4287391  27.3268976   8.0587589
  47.3671255  28.0309022   7.1018426  52.5695439  31.2216533  11.7306287
  52.1157766  30.3807443  11.7871477  51.9389406  31.8577931  12.0681067
  51.5128359  22.1508519  12.9606954  50.7751115  21.6385905  13.2917197
  51.7655132  21.7108900  12.1490231  51.0128378  33.0593029  12.6656105
  51.3051353  33.6198086  11.9468470  51.5226999  33.3521590  13.4209264
  51.6139986  14.9284771  13.5548723  51.9198863  14.0682134  13.2674638
  52.3392591  15.5202391  13.3547717  37.9064342  25.3315457  11.9430321
  37.7088742  24.7384818  11.2181388  37.3511006  25.0267667  12.6606260
  45.8861066  25.2238564  14.0624914  45.9409675  24.2712400  13.9867391
  45.0752268  25.3798003  14.5466213  47.0352259  29.1518687   5.3003198
  46.5971689  28.4354546   4.8408835  47.7762700  29.3794802   4.7388289
  43.8253426  23.8415623  11.8215293  43.0121291  24.1409794  12.2280485
  44.3212420  23.4471312  12.5389776  45.9762003  33.8373380  13.7549558
  45.9338182  34.0634227  12.8258090  46.8924702  33.6036755  13.9035359
  49.4227637  24.3057448  20.6530187  49.7777025  24.5328921  21.5124653
  50.0699768  24.6375825  20.0307443  55.1525374  27.4275884  11.3579516
  55.0143273  27.6177480  10.4300705  54.7961593  28.1895267  11.8147567
  43.3167500  21.4133979  17.4376528  43.9566880  21.2722738  16.7399492
  42.4845031  21.1268492  17.0615130  55.1794754  29.4952411  16.3690788
  55.6131260  29.4027700  17.2173842  55.8926334  29.4709911  15.7310804
  44.0927804  30.7136409  13.5511521  44.8868403  30.2186730  13.3494096
  43.3819497  30.1854273  13.1879226  48.9122649  33.0954505  17.9023888
  48.9659671  33.6645441  18.6701604  48.0437430  33.2656390  17.5377925
  40.4010568  24.8579491   9.6271273  39.4708156  24.7963947   9.8441236
  40.4968040  24.3355444   8.8307915  40.3196117  21.3834304  12.2149515
  40.5802934  22.2979637  12.1058676  41.1413289  20.9158747  12.3646128
  41.7921042  22.7972061  19.3848340  42.4644095  22.5889423  18.7360989
  40.9650829  22.5994147  18.9453572  56.0410303  29.5376111  18.9023673
  56.2346193  30.4421922  19.1482948  55.9410921  29.0783531  19.7362258
  47.6946614  19.4234002  21.4014000  47.0474529  20.1223952  21.3078477
  48.4647629  19.8570146  21.7690249  51.1025412  29.6882854  24.4764554
  50.9510918  29.4593406  23.5594637  51.0930091  30.6453456  24.4895899
  47.8710748  27.2614767  19.4610820  48.8002808  27.4125927  19.2879788
  47.4501778  27.3498788  18.6059467  46.6699080  31.2865431  17.2309358
  46.5310166  30.9184216  18.1035296  45.8813676  31.8013071  17.0593316
  47.2647232  36.3874528   8.5734894  47.4398988  35.9162571   9.3880517
  46.5780020  37.0140294   8.8016155  48.2204295  30.6647034  14.6198196
  47.8854128  30.6247804  15.5155845  47.7208241  29.9991750  14.1468606
  42.1948539  26.0714664  20.1450777  42.0568337  25.3394903  20.7462316
  43.1053463  25.9823564  19.8634965  51.1563487  28.0103068   4.8935255
  50.5392658  27.2849897   4.7968308  50.6879975  28.7712429   4.5502330
  44.8230840  25.7834623  19.6334456  45.5330458  25.1427816  19.5921075
  44.7800148  26.0347518  20.5560637  52.8117619  32.7201977  22.5541036
  52.7530165  32.0361197  21.8871619  53.2137137  33.4620967  22.1021662
  43.5359774  22.7699841  21.4530096  42.9997131  22.3190580  22.1051692
  42.9476482  22.9045750  20.7100560  41.8308317  39.5363891  15.3474755
  42.0704916  40.1682415  16.0253773  40.9877514  39.1851931  15.6340114
  42.9462033  22.2288493   4.0156560  42.0691499  22.1077294   3.6518806
  43.4219786  21.4374571   3.7635448  52.8135026  30.6841561  20.7855015
  51.9261805  30.3467483  20.9081414  53.3833577  29.9524592  21.0223781
  34.4664173  27.0165652  14.1098067  35.1535213  26.7027383  13.5219082
  34.3112302  27.9207017  13.8365318  39.2698895  21.9055849  18.5383090
  39.1857084  21.2981519  17.8033500  38.4481602  22.3964867  18.5392587
  46.3436179  35.3443013  17.7516259  46.2706351  36.1497985  18.2635563
  45.9013572  35.5434979  16.9264280  46.1325959  34.5814783  11.2619080
  45.3493481  35.1236463  11.3557305  46.8318704  35.0988763  11.6613321
  49.4422609  20.3909413  13.9053285  49.9391309  19.6379375  13.5854356
  48.6709591  20.4273729  13.3396495  57.2952366  26.0949778  15.5471577
  57.2842243  26.9774494  15.1765510  56.4269746  25.7421329  15.3526114
  48.8034863  35.2429847  19.9074417  49.5162835  35.8777312  19.8350319
  48.3124891  35.3393713  19.0914419  50.5252390  29.1481100  11.4791709
  49.5908668  29.2682562  11.3096413  50.7029058  28.2453567  11.2151719
  46.0257578  22.5326796  13.6324970  45.6555365  21.9797836  14.3205876
  46.5216670  21.9284929  13.0799970  53.9124941  24.9898419  12.0141743
  54.3785393  25.8226411  11.9402046  54.3632442  24.5243401  12.7187001
  43.8546776  32.9924291  20.7279988  44.5556236  33.6260774  20.8809382
  43.3841891  33.3339022  19.9675627  51.9801172  31.3342240   9.0127895
  52.2561016  31.2198835   9.9221769  51.1105671  30.9359725   8.9740068
  51.8841604  17.3579006  16.0532644  50.9704684  17.5883233  16.2214851
  52.3134705  17.4417450  16.9046677  51.6548062  25.5468898  18.5532538
  51.0019513  25.7944805  17.8984991  52.0328442  24.7333036  18.2195016
  48.6155236  35.5828591  12.6560709  48.7977631  34.7650247  13.1188461
  49.4388222  35.7996283  12.2185599  48.9497402  34.5096776   9.9175757
  49.4785168  33.9989231   9.3045919  49.2125621  34.1939307  10.7821290
  47.7035635  26.2888709  25.0398575  47.0276272  26.1882838  25.7100951
  48.5263269  26.1327923  25.5034573  39.4514494  32.5260646  17.6611091
  40.0367931  31.7804334  17.7938995  39.2539333  32.8364602  18.5447755
  42.3053150  35.5611893  12.6773533  41.6363525  36.0458021  12.1937573
  42.1666019  35.8081113  13.5916912  34.0432149  25.0966246  16.3815534
  34.0816249  24.5629837  17.1752652  33.5372442  24.5701451  15.7626511
  46.4458418  37.5955637  19.2756191  46.9976726  37.7587258  20.0405277
  46.7864612  38.1860074  18.6036216  41.4222911  19.9430786  19.8778076
  41.4864238  20.8045617  19.4655474  41.3590032  19.3304788  19.1450435
  51.2969293  32.4216894  25.1304846  51.8409197  33.0346852  24.6359801
  50.7156137  32.9796472  25.6471859  37.6740727  23.8230348   9.4569465
  37.9694168  22.9141026   9.4036519  36.7728762  23.8018087   9.1350468
  49.5826805  35.5437612  16.2619874  49.4577945  34.7427352  15.7530819
  50.2405897  36.0383805  15.7733844  41.2034974  21.8986345  15.4397014
  40.4821559  22.5122312  15.3004487  41.9928229  22.4344109  15.3613660
  51.6461714  33.3446632  17.8899424  50.6992049  33.2251983  17.8177750
  51.9944487  32.4569130  17.9725685  44.0061287  19.2340771  21.7137666
  44.5295689  19.4803068  22.4763975  43.7873621  20.0660806  21.2940803
  39.4028568  21.5044446   9.5808790  39.0741274  20.6241825   9.3983896
  39.7567939  21.4492114  10.4685180  48.6508147  33.1399348  14.0903776
  48.5033110  32.2116056  14.2711346  49.4761641  33.1619439  13.6060851
  42.5170391  21.7917415   9.9484268  42.8566464  22.3203337   9.2262876
  42.9642512  22.1297822  10.7242835  52.2542269  33.9627907  15.1768649
  53.1788816  33.7570768  15.0393100  52.0857572  33.7144308  16.0857990
  45.2113832  20.1754466  19.3987336  44.8710653  19.3762279  19.8008016
  44.5052839  20.4756177  18.8264169  45.8630304  17.2603779  17.8514659
  46.6856373  16.7864257  17.7293549  46.1068368  18.0394262  18.3513345
  44.5038539  20.2892037   8.1477561  45.2246901  20.6673290   7.6441278
  43.8803843  21.0080914   8.2512539  48.6469661  20.9937186   9.0835893
  48.8633276  21.8761824   8.7824721  48.1663729  20.6023399   8.3541535
  43.3868883  23.9522899  15.6606638  43.2413464  24.2663202  16.5530919
  42.9094086  24.5707800  15.1077536  45.2465266  20.9425447  15.7087527
  45.2326835  20.0466541  15.3719825  45.9637694  20.9496111  16.3425813
  47.0991396  21.3762787  17.7540655  46.8409174  22.2979858  17.7524985
  46.5676437  20.9793222  18.4441119  52.0437585  34.4813575  10.5330740
  52.2174463  33.9159997   9.7804593  52.5366476  35.2814469  10.3510230
  37.8614545  26.4928244  18.5994299  37.3168013  27.2688052  18.7314573
  38.7393895  26.8399048  18.4413420  44.6502162  19.8239828  10.9775097
  44.7718073  18.8956474  11.1765985  44.3604204  19.8378513  10.0653413
  47.5193352  17.5094738  14.1141817  47.5415049  17.5734071  13.1593797
  47.9361411  16.6699247  14.3082323  57.8976976  27.2449997  12.1521040
  58.3408122  26.4957323  11.7540163  57.0203487  27.2360134  11.7694772
  53.0312758  33.7980339   7.6327638  53.7263662  34.4187032   7.8514953
  53.3735908  32.9475690   7.9080016  38.6480567  25.6198140  21.4924456
  37.9062303  25.7680775  22.0789086  38.3273311  25.8806406  20.6291205
  54.9304181  31.2480044   9.1614969  55.4555505  31.5867317   8.4364289
  54.8426533  30.3127060   8.9778104  46.5924230  35.1614118  21.2904846
  46.9011356  34.9163265  22.1627545  47.3899712  35.3660757  20.8023716
  46.6144842  37.3152028  13.5210222  46.1749832  36.8228406  14.2143079
  47.3652959  36.7724995  13.2802298  39.0937181  33.5063569  13.5234850
  39.9195200  33.2067340  13.1433494  38.7431233  32.7371191  13.9724639
  44.0618714  32.8590037  15.5932524  43.4398723  32.1960742  15.2934752
  44.7323581  32.8851169  14.9106172  37.2945786  31.4249895  14.4823784
  36.4577694  30.9972069  14.3007785  37.2669431  31.6182338  15.4194575
  54.6198087  31.8812948  24.4666167  53.8293631  31.8637087  23.9270667
  54.3831441  32.4201242  25.2215204  54.7395962  28.7305414  21.7798896
  54.7893967  28.5655422  22.7214418  54.6309885  27.8632674  21.3896776
  43.6232221  31.4093960   9.0690985  43.7720341  32.0929425   8.4157657
  44.4298664  31.3899050   9.5840440  52.0299724  24.7136343  23.0958202
  52.9309587  24.5742807  22.8042200  52.1047699  24.8790797  24.0356380
  46.3642530  22.0903197  21.9411389  45.4945839  22.3836763  21.6693977
  46.6002010  22.6743642  22.6618652  56.2414159  31.1502356  22.0240917
  55.9498967  31.5132337  22.8604378  55.6286290  30.4369364  21.8454249
  57.4409841  28.7155236  14.5443487  58.2756732  29.1545040  14.7081048
  57.5768970  28.2393889  13.7251733  54.4901347  26.2734971  20.4920975
  54.9655469  26.4662617  19.6839827  53.5666912  26.3294156  20.2464359
  41.3784854  27.4359138  10.0752053  41.1330896  26.5321468  10.2732264
  41.5480768  27.4376288   9.1331531  49.0681564  18.3082814  19.4576809
  49.5863507  19.0443841  19.1323298  48.7136696  18.6146807  20.2923568
  40.6480501  23.1687495   7.5738215  39.9549746  23.2431850   6.9178251
  40.4032253  22.4047839   8.0959732  49.3194158  14.7283097  14.9777706
  49.5995911  14.0606286  15.6038132  50.1044765  14.9212192  14.4652369
  47.1227626  33.9042091   6.5402732  46.5501593  34.5232278   6.0873204
  47.6960420  34.4541452   7.0742654  53.1903016  23.1500731  18.7249281
  54.1420439  23.2498828  18.7461505  53.0206466  22.3578999  19.2347365
  51.2117395  20.2356314  18.9108682  50.6167328  20.5161327  18.2155170
  50.9267092  20.7250215  19.6825423  50.3424886  34.1879241   7.6711314
  51.2755559  34.1224802   7.8744190  50.2548099  35.0235508   7.2125847
  52.9712903  33.5045111   4.6315262  52.8926534  33.1704975   5.5251020
  53.7922569  33.9966879   4.6306734  55.6691094  26.3706850  17.8391580
  55.6367414  25.4322851  18.0251264  56.2791717  26.4490887  17.1057405
  47.5074425  25.2402903   3.8818784  48.4533529  25.1109111   3.9507202
  47.1288670  24.5017565   4.3588213  55.8185582  23.1617894  17.8849864
  55.3024631  22.3776350  17.6979792  56.7025531  22.8336610  18.0496383
  53.4796309  16.9058909  13.8445676  53.2821130  16.5973998  14.7289008
  54.0896015  17.6320548  13.9743606  61.4867644  27.4322857  16.9797617
  62.2171032  27.1708145  17.5405321  60.8774589  26.6951579  17.0199685
  59.5682941  25.5730720  17.5772068  58.8416104  25.4386685  16.9688560
  59.1530228  25.8807548  18.3828786  47.3913117  29.2920650  25.3419441
  48.3116127  29.4699249  25.5359488  47.3562700  28.3476695  25.1899141
  45.6917342  23.1652880   3.8173670  44.7848797  22.8685992   3.8936383
  45.9693323  22.8682698   2.9507956  36.6095282  24.4859243  14.2672716
  36.2898067  23.6324551  13.9747090  36.0628710  24.7007821  15.0230683
  40.3875190  27.2021684  17.9842223  40.6061200  28.1338792  18.0030256
  40.8000964  26.8429659  18.7697026  47.3079408  17.7089769   9.9717911
  46.4980136  17.3636854  10.3473157  47.9963824  17.3997313  10.5605523
  49.2369956  16.7867816  11.5942208  49.7900994  17.2063270  12.2532231
  49.4740042  15.8603564  11.6365164  44.4616126  20.0239815   3.9585649
  45.3235290  20.3494713   4.2181466  44.6466471  19.2371311   3.4458715
  36.4783542  28.1062155  16.2365838  35.7847014  27.6916107  15.7235792
  37.2256533  28.1482691  15.6399257  52.6148763  18.8968341  11.1020872
  52.0347432  19.5553145  10.7198924  52.3484696  18.0745686  10.6908289
  51.0652329  18.2973399  13.3042192  51.5652108  18.4089934  12.4956511
  51.7087937  17.9934452  13.9443001  45.1234325  26.2052029  26.1910033
  44.6401407  27.0052389  26.3973922  45.2095264  26.2159974  25.2377477
  38.3920285  28.0380408  14.1131853  38.3690973  28.1368096  13.1613736
  38.7020921  28.8845559  14.4349019  41.0507663  30.0956563  18.2278467
  42.0050916  30.0640506  18.1608399  40.8520186  29.6347187  19.0428693
  41.6407045  28.6657680  20.7949265  42.4599934  29.1601758  20.8184102
  41.9143852  27.7489648  20.7666832  51.3973641  21.0568432  10.1577220
  50.5099496  21.3418082   9.9397415  51.8127630  20.8962195   9.3104497
  54.7488177  21.0814953  13.8731559  55.5248567  21.5711405  14.1456176
  54.0236311  21.5073007  14.3303429  57.1860736  21.7942572  14.9305500
  57.7805227  21.5538308  14.2198808  57.2587319  21.0749703  15.5579036
  39.4057891  35.6376183  15.2448665  39.2712359  34.8776584  14.6786663
  38.9889954  36.3617083  14.7777454  50.5416854  30.8213107   4.2525240
  51.2452705  31.0263109   4.8682896  49.8179503  31.3889868   4.5174324
  51.3714665  26.5722968  10.3727510  51.3149866  27.0291519   9.5335143
  51.9243007  25.8113652  10.1950353  55.1819471  22.3612700  11.1977630
  54.9256405  21.9609335  12.0285837  54.5572339  23.0756494  11.0727769
  59.4931808  25.1008773  13.7048921  58.9331366  25.1701962  14.4780483
  58.8875312  24.9249758  12.9848417  42.5627017  36.5345500  15.4567107
  42.4459401  37.4790932  15.3545798  41.7419464  36.2319062  15.8452907
  52.4503552  31.2595636   6.3023700  53.2849156  30.8276834   6.1201175
  52.2887895  31.0877649   7.2300595  52.1049444  27.7627749   7.6680039
  52.0498248  27.5972020   6.7268484  51.4795499  28.4703782   7.8242229
  36.8941959  22.9995813  21.4941462  37.5400823  22.4894767  21.9828687
  36.6859110  23.7364495  22.0684887  49.4195351  30.0676661  26.9933602
  50.2886511  30.2417313  26.6320237  48.9402103  30.8871078  26.8709332
  45.4145569  17.2635858   7.2465358  45.4024239  18.2077698   7.4033629
  46.3068991  17.0806003   6.9524819  43.5881531  37.1873762  18.6723036
  44.4908778  37.2197372  18.9889531  43.3618901  36.2574213  18.6869372
  45.3435133  35.9404748  15.3333115  44.3930764  35.9406610  15.2197487
  45.6467620  35.1937483  14.8169149  49.2297689  13.8578635  11.5011295
  48.4630085  13.3037121  11.6467977  49.6408394  13.9300503  12.3625446
  61.0787827  41.7765287  16.3978877  61.7166237  41.6572034  15.6942217
  60.9608670  42.7246131  16.4566829  57.8877533  41.7292715  16.3340402
  57.5496045  41.6133780  15.4460936  58.7567301  41.3283880  16.3141408
  53.7464349  43.5828191  12.3237293  53.1829214  43.4918128  11.5553580
  53.6316744  42.7628096  12.8039785  58.3697316  42.8827567  22.2926607
  58.3585957  42.4880365  21.4207111  58.5317956  42.1493639  22.8860379
  51.2928781  45.0779383  15.1621513  52.0850073  44.7370208  14.7467812
  51.5325431  45.1874358  16.0823666  59.3263908  47.2499159   7.6351757
  58.6751887  47.8353239   7.2485771  60.1208270  47.7805354   7.6946795
  53.2519535  44.3388296   8.0338892  54.0250411  43.7917283   7.8951768
  53.6044934  45.2032546   8.2453353  55.0904577  45.6664678  21.2405791
  54.7994443  46.5710309  21.1252457  55.7261562  45.7081206  21.9549861
  56.0160784  43.0441527  17.8307151  56.6124356  42.8197549  17.1164114
  56.0735756  42.3026272  18.4332599  55.5885813  40.4980962   5.6657342
  55.8411333  39.9762484   4.9040805  54.6510372  40.3347108   5.7684025
  60.6329095  39.5016741  13.4732085  61.4192185  39.0836164  13.1222502
  60.8967800  40.4062833  13.6413733  60.8039173  44.9389591   8.1720742
  60.1685006  45.0124217   8.8841646  60.4736579  45.5283190   7.4939821
  66.0337523  39.4391974  14.3765063  66.7662694  38.8691191  14.6102893
  65.2776878  39.0513574  14.8171569  55.3082101  42.4009068   7.8681717
  55.1918359  41.7253972   8.5362801  55.4184361  41.9141442   7.0513870
  57.6513642  41.8619215  11.5728406  57.2871849  41.3349836  12.2841327
  58.5080758  41.4717684  11.3994891  63.5562943  33.1513548  18.8359672
  63.2246268  34.0208959  18.6120887  62.9608556  32.8349832  19.5153702
  57.2919129  36.8909115   6.5689754  57.4593532  37.7589351   6.9360225
  57.1016298  37.0536397   5.6451044  60.0494462  45.3526094  18.2355585
  59.7495185  46.2551133  18.1271392  59.7045522  45.0858277  19.0876738
  53.5006944  41.8039891  14.2692289  52.5757440  41.6716105  14.4769981
  53.7491357  42.5834110  14.7662232  63.4491606  37.8708634  15.9153022
  62.5408484  37.8024043  15.6211783  63.3979202  38.3480579  16.7434848
  57.2708350  39.3466773   7.5536421  57.1507975  39.7923823   8.3921902
  56.5760938  39.6952090   6.9949959  50.8615755  41.4473164  15.1036078
  50.9908136  41.7007643  16.0175490  50.1813206  42.0400872  14.7840733
  55.0315242  52.1170414  11.2026553  54.9539272  53.0678239  11.2815033
  54.4276886  51.7716287  11.8601479  57.5232472  39.2898280  23.8587919
  56.7465806  39.8492200  23.8490784  58.1623035  39.7755063  24.3802790
  65.3153253  36.0725073  17.6930896  64.6727633  36.3657606  17.0470691
  64.8108181  35.9577993  18.4984093  62.9693416  39.8188246   8.3816755
  63.8811272  40.0515632   8.2064453  62.4603063  40.4025290   7.8191834
  55.7778844  42.0983733  23.4205886  56.5193529  42.6368777  23.1440710
  55.0715830  42.7250022  23.5777438  61.2534184  44.2412874  22.0178048
  61.6617540  43.7995284  21.2732680  60.5311445  43.6665501  22.2712241
  57.6065254  39.1785480  19.3911605  58.4526449  39.6024894  19.5346254
  57.5463892  38.5219105  20.0850168  61.5762999  44.8014064  15.7730337
  60.9471861  44.9659778  15.0706405  61.1888661  45.2155674  16.5441301
  65.4552230  45.7368502  13.1274701  64.7703269  46.1167403  12.5771734
  65.5396080  46.3463829  13.8606648  60.7564699  36.8389849  21.0492778
  60.5125631  37.5931909  20.5127054  61.0324630  37.2175196  21.8840026
  62.7103162  43.3828461  19.7270044  62.9220057  44.0260221  19.0504425
  62.6632910  42.5490778  19.2591974  60.3129391  35.9946282  16.6306616
  59.4513870  36.2927535  16.9223354  60.3391826  36.2116681  15.6987649
  57.1290960  44.5388472  13.0380422  57.5929306  44.8176175  12.2485044
  56.8647759  43.6371917  12.8553513  54.0215042  44.0859954  15.9760185
  54.5916399  44.5147222  15.3377670  54.6123153  43.8042539  16.6744371
  56.0659846  40.6611625   9.8469987  56.7683890  41.1132668  10.3143913
  55.7340475  40.0195444  10.4749880  54.5140208  39.2523381  24.2221196
  53.8838869  39.9339662  24.4556593  54.4076296  39.1406463  23.2774335
  49.8085180  38.9195177  15.1487121  49.0184234  39.1752706  14.6727231
  50.2996428  39.7343515  15.2539161  63.8248990  46.2600416  17.8992401
  64.6466434  45.8580604  17.6175083  63.8211393  46.1568651  18.8508517
  51.7599926  39.2839757  12.1070597  50.9631089  39.3958451  12.6254093
  51.5325518  39.6226409  11.2411488  57.5905593  45.8084460  20.0553112
  57.6550026  46.2704867  20.8911284  56.8816517  45.1781825  20.1835422
  48.0922883  39.1725668  17.5802111  48.3430922  40.0572678  17.8459687
  48.6282432  38.9930269  16.8077203  71.9154983  42.6039165  14.2477373
  71.1618691  42.0346563  14.0921377  72.0502524  42.5701829  15.1948008
  57.3053611  47.4752567   9.9232092  57.1699286  48.3204103  10.3516940
  57.8463424  47.6771845   9.1598026  53.7920951  33.5544147  26.5846447
  53.3987896  33.0010346  27.2594092  54.6087091  33.8654726  26.9752965
  50.7583009  44.9928005  10.4960017  51.2707529  45.7871256  10.6465582
  51.4105721  44.2954296  10.4293619  52.5677893  48.1093762  12.5782770
  52.7444522  49.0311726  12.3903754  53.3634727  47.7952181  13.0077150
  56.7088912  34.9702026  24.1766704  57.4498625  35.5709179  24.0971166
  56.9406835  34.2279664  23.6184747  51.8530250  40.1558393  22.4544934
  51.7383765  39.2543651  22.7552033  50.9974767  40.4022090  22.1029750
  58.9322087  48.0976134  24.0532434  58.4885942  47.3112512  23.7353339
  59.5939301  48.2855284  23.3876325  53.6909209  49.6271935  18.5793113
  54.2416634  49.4988999  17.8070107  52.8520685  49.9266824  18.2288006
  61.0303326  48.3778934  22.0813836  61.0121801  49.1987815  21.5894105
  61.9523246  48.2533009  22.3063977  57.4876380  45.8923063  22.9237344
  58.0204717  45.1311351  22.6936652  56.9590461  45.5996715  23.6661498
  60.6546075  30.9983129  18.4530986  60.3110344  31.8884771  18.3770096
  61.0225037  30.8084787  17.5900571  48.7231925  43.3216660  11.2719588
  49.5607147  43.7313668  11.0553296  48.9010193  42.3816102  11.2419782
  60.6196357  40.9891740   6.9603421  60.1042981  41.7596345   7.1991808
  60.3473666  40.3156876   7.5836482  58.2043468  35.8341441  12.0188659
  57.3485065  35.4448291  11.8394298  58.6170420  35.9133402  11.1588445
  59.7342615  33.3687784  16.4180219  59.2307411  33.3317919  15.6048024
  60.0273222  34.2780527  16.4776876  55.9785501  33.4526514  15.4246401
  56.8438498  33.2569323  15.0652290  56.0463010  33.2236866  16.3515757
  65.5930632  43.7424095   8.8956594  64.8160074  43.4035254   8.4511756
  66.2722113  43.7476718   8.2211559  60.4082661  38.8618832   8.7863202
  60.1032796  39.1764982   9.6373345  61.3613103  38.9400252   8.8290535
  58.8529092  45.0209056  10.4356156  58.3250454  44.2861815  10.1229393
  58.3516595  45.7983732  10.1896124  63.8321938  43.2158076  15.5523202
  63.1745613  43.9057338  15.6403331  64.6362338  43.6054508  15.8957189
  53.5847820  35.6828722  12.7962767  54.1591572  35.4603903  12.0635960
  54.1718802  35.7517416  13.5491369  62.6427397  41.5702449  13.6027144
  63.1559279  42.2032441  14.1048854  63.2928621  40.9703644  13.2370504
  53.9117407  37.7133183   6.8158653  53.0754719  38.0507870   7.1367927
  53.7722177  37.5782163   5.8785790  55.8870488  32.5569971  11.5237837
  55.2334900  32.2418988  10.8994452  55.8450962  31.9345711  12.2497660
  56.9981693  42.8389266   3.4391129  56.0908754  42.6078519   3.6382278
  57.4952725  42.0426885   3.6265111  59.9049771  51.5486773   6.3587815
  59.2311470  51.8518470   6.9672773  60.2915593  52.3515853   6.0093272
  59.1208228  39.0451904  15.8485485  58.2030789  39.2666851  15.6907173
  59.5368372  39.1198215  14.9897192  59.9043276  40.4443320  10.9788165
  60.6515095  40.9564717  10.6695287  60.1734865  40.1227373  11.8392558
  58.1769926  42.9401861   7.9615119  57.2681145  42.6560894   8.0587589
  58.2065010  43.3600939   7.1018426  63.4089193  46.5508450  11.7306287
  62.9551521  45.7099360  11.7871477  62.7783160  47.1869849  12.0681067
  62.3522113  37.4800436  12.9606954  61.6144870  36.9677823  13.2917197
  62.6048887  37.0400818  12.1490231  61.8522133  48.3884947  12.6656105
  62.1445107  48.9490004  11.9468470  62.3620753  48.6813508  13.4209264
  62.4533740  30.2576688  13.5548723  62.7592617  29.3974052  13.2674638
  63.1786345  30.8494309  13.3547717  48.7458096  40.6607375  11.9430321
  48.5482496  40.0676736  11.2181388  48.1904760  40.3559585  12.6606260
  56.7254820  40.5530481  14.0624914  56.7803430  39.6004318  13.9867391
  55.9146022  40.7089921  14.5466213  57.8746014  44.4810604   5.3003198
  57.4365444  43.7646463   4.8408835  58.6156455  44.7086719   4.7388289
  54.6647180  39.1707541  11.8215293  53.8515046  39.4701712  12.2280485
  55.1606174  38.7763230  12.5389776  56.8155758  49.1665298  13.7549558
  56.7731937  49.3926144  12.8258090  57.7318457  48.9328673  13.9035359
  60.2621392  39.6349366  20.6530187  60.6170779  39.8620839  21.5124653
  60.9093523  39.9667742  20.0307443  65.9919129  42.7567802  11.3579516
  65.8537027  42.9469397  10.4300705  65.6355347  43.5187184  11.8147567
  54.1561255  36.7425897  17.4376528  54.7960634  36.6014656  16.7399492
  53.3238785  36.4560410  17.0615130  66.0188508  44.8244329  16.3690788
  66.4525015  44.7319618  17.2173842  66.7320089  44.8001829  15.7310804
  54.9321559  46.0428327  13.5511521  55.7262157  45.5478647  13.3494096
  54.2213251  45.5146190  13.1879226  59.7516403  48.4246423  17.9023888
  59.8053425  48.9937359  18.6701604  58.8831185  48.5948308  17.5377925
  51.2404322  40.1871409   9.6271273  50.3101910  40.1255864   9.8441236
  51.3361794  39.6647362   8.8307915  51.1589871  36.7126222  12.2149515
  51.4196688  37.6271555  12.1058676  51.9807044  36.2450664  12.3646128
  52.6314797  38.1263979  19.3848340  53.3037850  37.9181341  18.7360989
  51.8044583  37.9286065  18.9453572  66.8804058  44.8668029  18.9023673
  67.0739948  45.7713840  19.1482948  66.7804676  44.4075448  19.7362258
  58.5340369  34.7525920  21.4014000  57.8868284  35.4515869  21.3078477
  59.3041384  35.1862064  21.7690249  61.9419166  45.0174772  24.4764554
  61.7904673  44.7885324  23.5594637  61.9323846  45.9745373  24.4895899
  58.7104503  42.5906685  19.4610820  59.6396563  42.7417844  19.2879788
  58.2895533  42.6790705  18.6059467  57.5092835  46.6157349  17.2309358
  57.3703920  46.2476133  18.1035296  56.7207431  47.1304989  17.0593316
  58.1040987  51.7166446   8.5734894  58.2792742  51.2454489   9.3880517
  57.4173775  52.3432212   8.8016155  59.0598050  45.9938952  14.6198196
  58.7247882  45.9539722  15.5155845  58.5601995  45.3283668  14.1468606
  53.0342294  41.4006582  20.1450777  52.8962092  40.6686821  20.7462316
  53.9447217  41.3115482  19.8634965  61.9957241  43.3394986   4.8935255
  61.3786412  42.6141814   4.7968308  61.5273730  44.1004346   4.5502330
  55.6624594  41.1126541  19.6334456  56.3724213  40.4719733  19.5921075
  55.6193903  41.3639436  20.5560637  63.6511373  48.0493894  22.5541036
  63.5923919  47.3653115  21.8871619  64.0530891  48.7912884  22.1021662
  54.3753528  38.0991759  21.4530096  53.8390885  37.6482497  22.1051692
  53.7870237  38.2337668  20.7100560  52.6702072  54.8655808  15.3474755
  52.9098670  55.4974332  16.0253773  51.8271268  54.5143848  15.6340114
  53.7855787  37.5580410   4.0156560  52.9085254  37.4369211   3.6518806
  54.2613540  36.7666489   3.7635448  63.6528780  46.0133478  20.7855015
  62.7655559  45.6759400  20.9081414  64.2227331  45.2816510  21.0223781
  45.3057927  42.3457570  14.1098067  45.9928967  42.0319300  13.5219082
  45.1506056  43.2498935  13.8365318  50.1092650  37.2347767  18.5383090
  50.0250838  36.6273436  17.8033500  49.2875356  37.7256785  18.5392587
  57.1829934  50.6734931  17.7516259  57.1100105  51.4789902  18.2635563
  56.7407327  50.8726897  16.9264280  56.9719713  49.9106701  11.2619080
  56.1887235  50.4528381  11.3557305  57.6712459  50.4280680  11.6613321
  60.2816364  35.7201330  13.9053285  60.7785063  34.9671293  13.5854356
  59.5103345  35.7565647  13.3396495  68.1346121  41.4241696  15.5471577
  68.1235997  42.3066411  15.1765510  67.2663500  41.0713247  15.3526114
  59.6428617  50.5721765  19.9074417  60.3556590  51.2069230  19.8350319
  59.1518646  50.6685631  19.0914419  61.3646144  44.4773017  11.4791709
  60.4302423  44.5974480  11.3096413  61.5422813  43.5745484  11.2151719
  56.8651332  37.8618713  13.6324970  56.4949120  37.3089754  14.3205876
  57.3610425  37.2576847  13.0799970  64.7518696  40.3190337  12.0141743
  65.2179148  41.1518328  11.9402046  65.2026196  39.8535318  12.7187001
  54.6940531  48.3216208  20.7279988  55.3949990  48.9552691  20.8809382
  54.2235646  48.6630940  19.9675627  62.8194927  46.6634158   9.0127895
  63.0954771  46.5490753   9.9221769  61.9499425  46.2651643   8.9740068
  62.7235358  32.6870924  16.0532644  61.8098438  32.9175151  16.2214851
  63.1528460  32.7709368  16.9046677  62.4941817  40.8760816  18.5532538
  61.8413267  41.1236723  17.8984991  62.8722197  40.0624954  18.2195016
  59.4548991  50.9120509  12.6560709  59.6371385  50.0942165  13.1188461
  60.2781977  51.1288201  12.2185599  59.7891156  49.8388694   9.9175757
  60.3178923  49.3281149   9.3045919  60.0519376  49.5231224  10.7821290
  58.5429390  41.6180627  25.0398575  57.8670027  41.5174756  25.7100951
  59.3657024  41.4619840  25.5034573  50.2908249  47.8552563  17.6611091
  50.8761686  47.1096251  17.7938995  50.0933087  48.1656520  18.5447755
  53.1446904  50.8903811  12.6773533  52.4757279  51.3749938  12.1937573
  53.0059774  51.1373031  13.5916912  44.8825904  40.4258164  16.3815534
  44.9210003  39.8921754  17.1752652  44.3766196  39.8993369  15.7626511
  57.2852173  52.9247554  19.2756191  57.8370481  53.0879176  20.0405277
  57.6258366  53.5151992  18.6036216  52.2616666  35.2722704  19.8778076
  52.3257992  36.1337535  19.4655474  52.1983786  34.6596706  19.1450435
  51.7368938  37.3445837  23.5251110  52.3640977  36.9622914  24.1388635
  50.8796857  37.1260038  23.8906803  62.1363047  47.7508812  25.1304846
  62.6802951  48.3638770  24.6359801  61.5549892  48.3088390  25.6471859
  48.5134481  39.1522266   9.4569465  48.8087922  38.2432944   9.4036519
  47.6122517  39.1310005   9.1350468  60.4220560  50.8729530  16.2619874
  60.2971699  50.0719270  15.7530819  61.0799651  51.3675723  15.7733844
  52.0428728  37.2278262  15.4397014  51.3215314  37.8414230  15.3004487
  52.8321984  37.7636027  15.3613660  62.4855468  48.6738550  17.8899424
  61.5385804  48.5543901  17.8177750  62.8338241  47.7861048  17.9725685
  54.8455042  34.5632689  21.7137666  55.3689444  34.8094985  22.4763975
  54.6267375  35.3952724  21.2940803  50.2422323  36.8336363   9.5808790
  49.9135029  35.9533742   9.3983896  50.5961693  36.7784032  10.4685180
  59.4901902  48.4691266  14.0903776  59.3426864  47.5407973  14.2711346
  60.3155395  48.4911357  13.6060851  53.3564146  37.1209333   9.9484268
  53.6960218  37.6495254   9.2262876  53.8036266  37.4589739  10.7242835
  63.0936023  49.2919825  15.1768649  64.0182571  49.0862686  15.0393100
  62.9251327  49.0436226  16.0857990  56.0507587  35.5046384  19.3987336
  55.7104407  34.7054197  19.8008016  55.3446593  35.8048095  18.8264169
  56.7024059  32.5895696  17.8514659  57.5250128  32.1156174  17.7293549
  56.9462122  33.3686180  18.3513345  55.3432293  35.6183955   8.1477561
  56.0640656  35.9965207   7.6441278  54.7197597  36.3372832   8.2512539
  59.4863416  36.3229104   9.0835893  59.7027030  37.2053742   8.7824721
  59.0057483  35.9315317   8.3541535  54.2262637  39.2814817  15.6606638
  54.0807218  39.5955120  16.5530919  53.7487841  39.8999717  15.1077536
  56.0859020  36.2717365  15.7087527  56.0720589  35.3758458  15.3719825
  56.8031448  36.2788029  16.3425813  57.9385151  36.7054705  17.7540655
  57.6802929  37.6271776  17.7524985  57.4070191  36.3085140  18.4441119
  62.8831340  49.8105492  10.5330740  63.0568217  49.2451915   9.7804593
  63.3760231  50.6106387  10.3510230  48.7008300  41.8220161  18.5994299
  48.1561768  42.5979969  18.7314573  49.5787649  42.1690966  18.4413420
  55.4895916  35.1531745  10.9775097  55.6111827  34.2248391  11.1765985
  55.1997959  35.1670431  10.0653413  58.3587107  32.8386656  14.1141817
  58.3808803  32.9025989  13.1593797  58.7755166  31.9991164  14.3082323
  68.7370731  42.5741915  12.1521040  69.1801877  41.8249240  11.7540163
  67.8597241  42.5652052  11.7694772  63.8706512  49.1272257   7.6327638
  64.5657417  49.7478949   7.8514953  64.2129662  48.2767608   7.9080016
  49.4874321  40.9490058  21.4924456  48.7456057  41.0972693  22.0789086
  49.1667066  41.2098323  20.6291205  65.7697935  46.5771962   9.1614969
  66.2949259  46.9159235   8.4364289  65.6820288  45.6418977   8.9778104
  57.4317984  50.4906036  21.2904846  57.7405110  50.2455183  22.1627545
  58.2293466  50.6952674  20.8023716  57.4538596  52.6443945  13.5210222
  57.0143586  52.1520324  14.2143079  58.2046713  52.1016913  13.2802298
  49.9330935  48.8355486  13.5234850  50.7588955  48.5359258  13.1433494
  49.5824987  48.0663109  13.9724639  54.9012468  48.1881955  15.5932524
  54.2792478  47.5252660  15.2934752  55.5717335  48.2143086  14.9106172
  48.1339540  46.7541813  14.4823784  47.2971448  46.3263987  14.3007785
  48.1063186  46.9474256  15.4194575  54.9736996  36.6663743  25.1865030
  55.0225151  37.5425865  24.8042800  55.5159510  36.1241136  24.6136673
  65.4591841  47.2104866  24.4666167  64.6687385  47.1929005  23.9270667
  65.2225196  47.7493159  25.2215204  65.5789716  44.0597332  21.7798896
  65.6287721  43.8947340  22.7214418  65.4703640  43.1924591  21.3896776
  54.4625975  46.7385878   9.0690985  54.6114095  47.4221342   8.4157657
  55.2692419  46.7190968   9.5840440  62.8693479  40.0428260  23.0958202
  63.7703342  39.9034725  22.8042200  62.9441453  40.2082715  24.0356380
  57.2036284  37.4195115  21.9411389  56.3339594  37.7128681  21.6693977
  57.4395765  38.0035560  22.6618652  67.0807913  46.4794274  22.0240917
  66.7892722  46.8424254  22.8604378  66.4680045  45.7661282  21.8454249
  68.2803596  44.0447153  14.5443487  69.1150487  44.4836958  14.7081048
  68.4162724  43.5685807  13.7251733  65.3295102  41.6026888  20.4920975
  65.8049223  41.7954535  19.6839827  64.4060667  41.6586074  20.2464359
  52.2178608  42.7651055  10.0752053  51.9724650  41.8613385  10.2732264
  52.3874523  42.7668206   9.1331531  59.9075318  33.6374732  19.4576809
  60.4257262  34.3735759  19.1323298  59.5530451  33.9438725  20.2923568
  51.4874256  38.4979413   7.5738215  50.7943501  38.5723768   6.9178251
  51.2426008  37.7339757   8.0959732  60.1587912  30.0575014  14.9777706
  60.4389666  29.3898203  15.6038132  60.9438519  30.2504110  14.4652369
  57.9621381  49.2334008   6.5402732  57.3895348  49.8524195   6.0873204
  58.5354174  49.7833370   7.0742654  64.0296771  38.4792648  18.7249281
  64.9814193  38.5790746  18.7461505  63.8600221  37.6870917  19.2347365
  62.0511150  35.5648232  18.9108682  61.4561082  35.8453244  18.2155170
  61.7660847  36.0542133  19.6825423  61.1818640  49.5171158   7.6711314
  62.1149314  49.4516720   7.8744190  61.0941853  50.3527425   7.2125847
  63.8106657  48.8337029   4.6315262  63.7320289  48.4996892   5.5251020
  64.6316324  49.3258797   4.6306734  66.5084848  41.6998768  17.8391580
  66.4761168  40.7614769  18.0251264  67.1185472  41.7782805  17.1057405
  58.3468179  40.5694821   3.8818784  59.2927284  40.4401029   3.9507202
  57.9682424  39.8309483   4.3588213  66.6579337  38.4909812  17.8849864
  66.1418385  37.7068268  17.6979792  67.5419285  38.1628528  18.0496383
  64.3190064  32.2350827  13.8445676  64.1214885  31.9265915  14.7289008
  64.9289769  32.9612466  13.9743606  72.3261398  42.7614775  16.9797617
  73.0564787  42.5000063  17.5405321  71.7168344  42.0243497  17.0199685
  70.4076695  40.9022638  17.5772068  69.6809859  40.7678602  16.9688560
  69.9923982  41.2099466  18.3828786  58.2306872  44.6212567  25.3419441
  59.1509881  44.7991166  25.5359488  58.1956455  43.6768613  25.1899141
  56.5311096  38.4944797   3.8173670  55.6242552  38.1977910   3.8936383
  56.8087077  38.1974616   2.9507956  47.4489037  39.8151161  14.2672716
  47.1291821  38.9616469  13.9747090  46.9022465  40.0299739  15.0230683
  51.2268944  42.5313602  17.9842223  51.4454954  43.4630710  18.0030256
  51.6394718  42.1721576  18.7697026  58.1473162  33.0381687   9.9717911
  57.3373890  32.6928772  10.3473157  58.8357579  32.7289231  10.5605523
  60.0763710  32.1159734  11.5942208  60.6294749  32.5355187  12.2532231
  60.3133797  31.1895482  11.6365164  56.0996810  38.1046808  27.3744972
  55.9993536  39.0541165  27.3057063  55.8818352  37.7765047  26.5021042
  55.3009881  35.3531733   3.9585649  56.1629045  35.6786631   4.2181466
  55.4860225  34.5663229   3.4458715  47.3177297  43.4354072  16.2365838
  46.6240768  43.0208025  15.7235792  48.0650288  43.4774609  15.6399257
  63.4542517  34.2260259  11.1020872  62.8741186  34.8845063  10.7198924
  63.1878450  33.4037604  10.6908289  61.9046084  33.6265317  13.3042192
  62.4045862  33.7381851  12.4956511  62.5481692  33.3226370  13.9443001
  55.9628080  41.5343946  26.1910033  55.4795161  42.3344307  26.3973922
  56.0489019  41.5451891  25.2377477  49.2314039  43.3672326  14.1131853
  49.2084727  43.4660013  13.1613736  49.5414676  44.2137477  14.4349019
  51.8901417  45.4248481  18.2278467  52.8444671  45.3932423  18.1608399
  51.6913941  44.9639105  19.0428693  52.4800799  43.9949597  20.7949265
  53.2993688  44.4893676  20.8184102  52.7537607  43.0781565  20.7666832
  62.2367395  36.3860350  10.1577220  61.3493250  36.6710000   9.9397415
  62.6521385  36.2254113   9.3104497  65.5881932  36.4106870  13.8731559
  66.3642322  36.9003323  14.1456176  64.8630066  36.8364925  14.3303429
  68.0254490  37.1234490  14.9305500  68.6198981  36.8830226  14.2198808
  68.0981074  36.4041620  15.5579036  50.2451646  50.9668101  15.2448665
  50.1106114  50.2068502  14.6786663  49.8283708  51.6909001  14.7777454
  61.3810609  46.1505024   4.2525240  62.0846459  46.3555027   4.8682896
  60.6573258  46.7181786   4.5174324  62.2108419  41.9014885  10.3727510
  62.1543621  42.3583437   9.5335143  62.7636762  41.1405570  10.1950353
  66.0213225  37.6904617  11.1977630  65.7650159  37.2901253  12.0285837
  65.3966093  38.4048411  11.0727769  70.3325563  40.4300691  13.7048921
  69.7725121  40.4993880  14.4780483  69.7269066  40.2541675  12.9848417
  53.4020772  51.8637418  15.4567107  53.2853156  52.8082850  15.3545798
  52.5813218  51.5610979  15.8452907  63.2897306  46.5887553   6.3023700
  64.1242910  46.1568752   6.1201175  63.1281649  46.4169567   7.2300595
  62.9443198  43.0919667   7.6680039  62.8892002  42.9263938   6.7268484
  62.3189254  43.7995700   7.8242229  47.7335713  38.3287731  21.4941462
  48.3794577  37.8186685  21.9828687  47.5252865  39.0656413  22.0684887
  60.2589106  45.3968579  26.9933602  61.1280265  45.5709231  26.6320237
  59.7795857  46.2162995  26.8709332  56.2539324  32.5927776   7.2465358
  56.2417994  33.5369616   7.4033629  57.1462746  32.4097921   6.9524819
  54.4275286  52.5165680  18.6723036  55.3302533  52.5489290  18.9889531
  54.2012656  51.5866131  18.6869372  56.1828888  51.2696666  15.3333115
  55.2324519  51.2698528  15.2197487  56.4861374  50.5229401  14.8169149
  60.0691443  29.1870552  11.5011295  59.3023839  28.6329039  11.6467977
  60.4802148  29.2592421  12.3625446  52.0733204  35.4755348  25.5916476
  52.9364666  35.1192153  25.8019801  51.4998615  35.1369243  26.2791880
  71.9181581  57.1057204  16.3978877  72.5559991  56.9863952  15.6942217
  71.8002424  58.0538048  16.4566829  68.7271288  57.0584633  16.3340402
  68.3889799  56.9425697  15.4460936  69.5961056  56.6575798  16.3141408
  64.5858103  58.9120109  12.3237293  64.0222969  58.8210046  11.5553580
  64.4710498  58.0920013  12.8039785  69.2091071  58.2119484  22.2926607
  69.1979711  57.8172283  21.4207111  69.3711710  57.4785557  22.8860379
  62.1322535  60.4071301  15.1621513  62.9243827  60.0662125  14.7467812
  62.3719185  60.5166276  16.0823666  65.9298332  60.9956596  21.2405791
  65.6388198  61.9002227  21.1252457  66.5655316  61.0373124  21.9549861
  66.8554539  58.3733445  17.8307151  67.4518111  58.1489467  17.1164114
  66.9129510  57.6318190  18.4332599  71.4722850  54.8308658  13.4732085
  72.2585939  54.4128082  13.1222502  71.7361554  55.7354751  13.6413733
  76.8731277  54.7683892  14.3765063  77.6056449  54.1983108  14.6102893
  76.1170633  54.3805492  14.8171569  68.4907397  57.1911133  11.5728406
  68.1265604  56.6641754  12.2841327  69.3474513  56.8009602  11.3994891
  74.3956697  48.4805466  18.8359672  74.0640022  49.3500877  18.6120887
  73.8002311  48.1641750  19.5153702  70.8888217  60.6818012  18.2355585
  70.5888940  61.5843050  18.1271392  70.5439276  60.4150195  19.0876738
  64.3400698  57.1331808  14.2692289  63.4151195  57.0008023  14.4769981
  64.5885112  57.9126028  14.7662232  74.2885361  53.2000552  15.9153022
  73.3802238  53.1315960  15.6211783  74.2372956  53.6772497  16.7434848
  61.7009509  56.7765082  15.1036078  61.8301891  57.0299561  16.0175490
  61.0206961  57.3692790  14.7840733  68.3626226  54.6190197  23.8587919
  67.5859561  55.1784118  23.8490784  69.0016790  55.1046980  24.3802790
  76.1547007  51.4016990  17.6930896  75.5121387  51.6949523  17.0470691
  75.6501936  51.2869911  18.4984093  66.6172599  57.4275651  23.4205886
  67.3587283  57.9660695  23.1440710  65.9109584  58.0541940  23.5777438
  72.0927938  59.5704791  22.0178048  72.5011294  59.1287202  21.2732680
  71.3705200  58.9957419  22.2712241  68.4459008  54.5077398  19.3911605
  69.2920204  54.9316812  19.5346254  68.3857646  53.8511022  20.0850168
  72.4156753  60.1305982  15.7730337  71.7865615  60.2951696  15.0706405
  72.0282415  60.5447591  16.5441301  71.5958454  52.1681766  21.0492778
  71.3519386  52.9223827  20.5127054  71.8718384  52.5467114  21.8840026
  73.5496917  58.7120379  19.7270044  73.7613812  59.3552139  19.0504425
  73.5026665  57.8782695  19.2591974  71.1523146  51.3238199  16.6306616
  70.2907625  51.6219453  16.9223354  71.1785580  51.5408598  15.6987649
  67.9684715  59.8680390  13.0380422  68.4323060  60.1468093  12.2485044
  67.7041513  58.9663835  12.8553513  64.8608796  59.4151871  15.9760185
  65.4310153  59.8439140  15.3377670  65.4516908  59.1334456  16.6744371
  66.9053601  55.9903542   9.8469987  67.6077644  56.4424586  10.3143913
  66.5734229  55.3487361  10.4749880  65.3533963  54.5815299  24.2221196
  64.7232623  55.2631580  24.4556593  65.2470050  54.4698381  23.2774335
  60.6478935  54.2487095  15.1487121  59.8577989  54.5044624  14.6727231
  61.1390182  55.0635433  15.2539161  74.6642745  61.5892334  17.8992401
  75.4860188  61.1872521  17.6175083  74.6605147  61.4860568  18.8508517
  62.5993680  54.6131674  12.1070597  61.8024844  54.7250368  12.6254093
  62.3719273  54.9518326  11.2411488  68.4299348  61.1376377  20.0553112
  68.4943780  61.5996785  20.8911284  67.7210272  60.5073742  20.1835422
  58.9316638  54.5017585  17.5802111  59.1824676  55.3864595  17.8459687
  59.4676186  54.3222187  16.8077203  64.6314705  48.8836065  26.5846447
  64.2381651  48.3302263  27.2594092  65.4480846  49.1946643  26.9752965
  61.5976763  60.3219923  10.4960017  62.1101284  61.1163173  10.6465582
  62.2499476  59.6246213  10.4293619  67.5482666  50.2993944  24.1766704
  68.2892380  50.9001097  24.0971166  67.7800589  49.5571582  23.6184747
  62.6924004  55.4850311  22.4544934  62.5777519  54.5835568  22.7552033
  61.8368522  55.7314008  22.1029750  69.7715842  63.4268051  24.0532434
  69.3279696  62.6404430  23.7353339  70.4333056  63.6147202  23.3876325
  64.5302963  64.9563853  18.5793113  65.0810388  64.8280916  17.8070107
  63.6914439  65.2558742  18.2288006  71.8697080  63.7070851  22.0813836
  71.8515555  64.5279732  21.5894105  72.7917000  63.5824927  22.3063977
  68.3270134  61.2214981  22.9237344  68.8598471  60.4603269  22.6936652
  67.7984215  60.9288633  23.6661498  71.4939829  46.3275047  18.4530986
  71.1504099  47.2176689  18.3770096  71.8618792  46.1376704  17.5900571
  59.5625680  58.6508577  11.2719588  60.4000902  59.0605586  11.0553296
  59.7403947  57.7108019  11.2419782  69.0437223  51.1633359  12.0188659
  68.1878819  50.7740209  11.8394298  69.4564175  51.2425320  11.1588445
  70.5736370  48.6979702  16.4180219  70.0701165  48.6609837  15.6048024
  70.8666976  49.6072445  16.4776876  66.8179255  48.7818432  15.4246401
  67.6832252  48.5861240  15.0652290  66.8856764  48.5528783  16.3515757
  74.6715693  58.5449994  15.5523202  74.0139367  59.2349255  15.6403331
  75.4756092  58.9346426  15.8957189  64.4241575  51.0120640  12.7962767
  64.9985326  50.7895821  12.0635960  65.0112557  51.0809334  13.5491369
  73.4821152  56.8994367  13.6027144  73.9953033  57.5324358  14.1048854
  74.1322376  56.2995562  13.2370504  66.7264242  47.8861889  11.5237837
  66.0728655  47.5710906  10.8994452  66.6844716  47.2637629  12.2497660
  69.9601983  54.3743822  15.8485485  69.0424544  54.5958769  15.6907173
  70.3762126  54.4490133  14.9897192  73.1915868  52.8092354  12.9606954
  72.4538624  52.2969740  13.2917197  73.4442641  52.3692736  12.1490231
  73.2927495  45.5868606  13.5548723  73.5986372  44.7265969  13.2674638
  74.0180100  46.1786226  13.3547717  59.5851851  55.9899293  11.9430321
  59.3876251  55.3968653  11.2181388  59.0298515  55.6851503  12.6606260
  67.5648575  55.8822399  14.0624914  67.6197184  54.9296235  13.9867391
  66.7539777  56.0381838  14.5466213  65.5040934  54.4999459  11.8215293
  64.6908800  54.7993629  12.2280485  65.9999929  54.1055148  12.5389776
  71.1015146  54.9641283  20.6530187  71.4564534  55.1912756  21.5124653
  71.7487277  55.2959660  20.0307443  64.9955009  52.0717814  17.4376528
  65.6354389  51.9306573  16.7399492  64.1632540  51.7852328  17.0615130
  65.7715313  61.3720245  13.5511521  66.5655912  60.8770565  13.3494096
  65.0607006  60.8438108  13.1879226  70.5910158  63.7538340  17.9023888
  70.6447180  64.3229277  18.6701604  69.7224939  63.9240225  17.5377925
  62.0798077  55.5163327   9.6271273  61.1495665  55.4547782   9.8441236
  62.1755549  54.9939279   8.8307915  61.9983626  52.0418139  12.2149515
  62.2590443  52.9563473  12.1058676  62.8200798  51.5742582  12.3646128
  63.4708551  53.4555897  19.3848340  64.1431604  53.2473259  18.7360989
  62.6438338  53.2577983  18.9453572  77.7197812  60.1959947  18.9023673
  77.9133702  61.1005757  19.1482948  77.6198430  59.7367366  19.7362258
  69.3734123  50.0817837  21.4014000  68.7262038  50.7807787  21.3078477
  70.1435138  50.5153981  21.7690249  72.7812921  60.3466690  24.4764554
  72.6298427  60.1177241  23.5594637  72.7717600  61.3037291  24.4895899
  69.5498257  57.9198602  19.4610820  70.4790317  58.0709762  19.2879788
  69.1289287  58.0082623  18.6059467  68.3486589  61.9449267  17.2309358
  68.2097675  61.5768051  18.1035296  67.5601185  62.4596906  17.0593316
  69.8991804  61.3230869  14.6198196  69.5641637  61.2831639  15.5155845
  69.3995750  60.6575585  14.1468606  63.8736048  56.7298499  20.1450777
  63.7355846  55.9978738  20.7462316  64.7840972  56.6407400  19.8634965
  66.5018349  56.4418459  19.6334456  67.2117967  55.8011651  19.5921075
  66.4587657  56.6931354  20.5560637  74.4905128  63.3785812  22.5541036
  74.4317674  62.6945032  21.8871619  74.8924646  64.1204802  22.1021662
  65.2147283  53.4283677  21.4530096  64.6784640  52.9774415  22.1051692
  64.6263991  53.5629586  20.7100560  74.4922535  61.3425396  20.7855015
  73.6049314  61.0051318  20.9081414  75.0621086  60.6108427  21.0223781
  56.1451682  57.6749488  14.1098067  56.8322722  57.3611218  13.5219082
  55.9899811  58.5790852  13.8365318  60.9486404  52.5639684  18.5383090
  60.8644593  51.9565354  17.8033500  60.1269111  53.0548703  18.5392587
  68.0223688  66.0026848  17.7516259  67.9493860  66.8081820  18.2635563
  67.5801081  66.2018814  16.9264280  71.1210118  51.0493248  13.9053285
  71.6178818  50.2963210  13.5854356  70.3497100  51.0857565  13.3396495
  78.9739875  56.7533613  15.5471577  78.9629752  57.6358329  15.1765510
  78.1057255  56.4005164  15.3526114  70.4822372  65.9013682  19.9074417
  71.1950344  66.5361147  19.8350319  69.9912400  65.9977548  19.0914419
  67.7045087  53.1910631  13.6324970  67.3342874  52.6381671  14.3205876
  68.2004179  52.5868764  13.0799970  65.5334285  63.6508126  20.7279988
  66.2343745  64.2844609  20.8809382  65.0629400  63.9922857  19.9675627
  73.5629113  48.0162841  16.0532644  72.6492193  48.2467068  16.2214851
  73.9922214  48.1001285  16.9046677  73.3335571  56.2052733  18.5532538
  72.6807022  56.4528641  17.8984991  73.7115951  55.3916872  18.2195016
  69.3823144  56.9472544  25.0398575  68.7063781  56.8466674  25.7100951
  70.2050778  56.7911758  25.5034573  61.1302003  63.1844481  17.6611091
  61.7155440  62.4388169  17.7938995  60.9326842  63.4948438  18.5447755
  55.7219658  55.7550081  16.3815534  55.7603758  55.2213672  17.1752652
  55.2159951  55.2285287  15.7626511  68.1245927  68.2539472  19.2756191
  68.6764235  68.4171093  20.0405277  68.4652121  68.8443910  18.6036216
  63.1010420  50.6014622  19.8778076  63.1651747  51.4629453  19.4655474
  63.0377541  49.9888623  19.1450435  62.5762693  52.6737754  23.5251110
  63.2034732  52.2914832  24.1388635  61.7190612  52.4551956  23.8906803
  72.9756802  63.0800729  25.1304846  73.5196705  63.6930688  24.6359801
  72.3943646  63.6380308  25.6471859  59.3528236  54.4814183   9.4569465
  59.6481677  53.5724862   9.4036519  58.4516271  54.4601923   9.1350468
  62.8822483  52.5570180  15.4397014  62.1609068  53.1706148  15.3004487
  63.6715738  53.0927945  15.3613660  73.3249223  64.0030467  17.8899424
  72.3779558  63.8835819  17.8177750  73.6731996  63.1152966  17.9725685
  65.6848796  49.8924606  21.7137666  66.2083198  50.1386903  22.4763975
  65.4661129  50.7244641  21.2940803  61.0816077  52.1628281   9.5808790
  60.7528783  51.2825660   9.3983896  61.4355448  52.1075950  10.4685180
  64.1957900  52.4501251   9.9484268  64.5353973  52.9787172   9.2262876
  64.6430021  52.7881657  10.7242835  66.8901341  50.8338302  19.3987336
  66.5498162  50.0346115  19.8008016  66.1840348  51.1340012  18.8264169
  67.5417813  47.9187614  17.8514659  68.3643882  47.4448092  17.7293549
  67.7855877  48.6978098  18.3513345  66.1826048  50.9475872   8.1477561
  66.9034410  51.3257125   7.6441278  65.5591352  51.6664749   8.2512539
  70.3257170  51.6521021   9.0835893  70.5420785  52.5345659   8.7824721
  69.8451238  51.2607235   8.3541535  65.0656392  54.6106735  15.6606638
  64.9200973  54.9247038  16.5530919  64.5881595  55.2291635  15.1077536
  66.9252775  51.6009283  15.7087527  66.9114343  50.7050376  15.3719825
  67.6425203  51.6079946  16.3425813  68.7778905  52.0346623  17.7540655
  68.5196683  52.9563693  17.7524985  68.2463946  51.6377057  18.4441119
  59.5402054  57.1512079  18.5994299  58.9955522  57.9271887  18.7314573
  60.4181404  57.4982883  18.4413420  66.3289671  50.4823663  10.9775097
  66.4505582  49.5540309  11.1765985  66.0391713  50.4962349  10.0653413
  69.1980861  48.1678573  14.1141817  69.2202558  48.2317906  13.1593797
  69.6148920  47.3283082  14.3082323  60.3268076  56.2781975  21.4924456
  59.5849812  56.4264611  22.0789086  60.0060820  56.5390241  20.6291205
  68.2711739  65.8197953  21.2904846  68.5798865  65.5747100  22.1627545
  69.0687221  66.0244592  20.8023716  60.7724690  64.1647404  13.5234850
  61.5982709  63.8651176  13.1433494  60.4218742  63.3955026  13.9724639
  65.7406223  63.5173872  15.5932524  65.1186232  62.8544577  15.2934752
  66.4111090  63.5435004  14.9106172  58.9733295  62.0833730  14.4823784
  58.1365203  61.6555905  14.3007785  58.9456940  62.2766174  15.4194575
  65.8130750  51.9955660  25.1865030  65.8618906  52.8717783  24.8042800
  66.3553264  51.4533053  24.6136673  76.2985596  62.5396783  24.4666167
  75.5081140  62.5220922  23.9270667  76.0618950  63.0785077  25.2215204
  76.4183471  59.3889250  21.7798896  76.4681476  59.2239257  22.7214418
  76.3097394  58.5216509  21.3896776  73.7087233  55.3720178  23.0958202
  74.6097096  55.2326643  22.8042200  73.7835208  55.5374633  24.0356380
  68.0430039  52.7487033  21.9411389  67.1733348  53.0420599  21.6693977
  68.2789519  53.3327478  22.6618652  77.9201668  61.8086191  22.0240917
  77.6286476  62.1716172  22.8604378  77.3073799  61.0953200  21.8454249
  76.1688856  56.9318806  20.4920975  76.6442978  57.1246452  19.6839827
  75.2454421  56.9877992  20.2464359  63.0572363  58.0942973  10.0752053
  62.8118405  57.1905303  10.2732264  63.2268277  58.0960124   9.1331531
  70.7469072  48.9666650  19.4576809  71.2651016  49.7027676  19.1323298
  70.3924205  49.2730643  20.2923568  62.3268010  53.8271331   7.5738215
  61.6337255  53.9015686   6.9178251  62.0819762  53.0631674   8.0959732
  70.9981667  45.3866932  14.9777706  71.2783420  44.7190121  15.6038132
  71.7832274  45.5796028  14.4652369  74.8690525  53.8084566  18.7249281
  75.8207948  53.9082664  18.7461505  74.6993975  53.0162835  19.2347365
  72.8904904  50.8940149  18.9108682  72.2954837  51.1745162  18.2155170
  72.6054601  51.3834050  19.6825423  77.3478603  57.0290686  17.8391580
  77.3154923  56.0906686  18.0251264  77.9579226  57.1074722  17.1057405
  77.4973091  53.8201729  17.8849864  76.9812140  53.0360186  17.6979792
  78.3813040  53.4920446  18.0496383  75.1583818  47.5642745  13.8445676
  74.9608639  47.2557833  14.7289008  75.7683524  48.2904384  13.9743606
  81.2470450  56.2314555  17.5772068  80.5203613  56.0970520  16.9688560
  80.8317737  56.5391384  18.3828786  69.0700626  59.9504485  25.3419441
  69.9903636  60.1283084  25.5359488  69.0350209  59.0060530  25.1899141
  58.2882791  55.1443079  14.2672716  57.9685576  54.2908387  13.9747090
  57.7416219  55.3591657  15.0230683  62.0662699  57.8605520  17.9842223
  62.2848709  58.7922627  18.0030256  62.4788473  57.5013494  18.7697026
  68.9866917  48.3673605   9.9717911  68.1767645  48.0220690  10.3473157
  69.6751333  48.0581149  10.5605523  70.9157465  47.4451652  11.5942208
  71.4688503  47.8647105  12.2532231  71.1527551  46.5187400  11.6365164
  66.9390564  53.4338725  27.3744972  66.8387291  54.3833082  27.3057063
  66.7212106  53.1056964  26.5021042  58.1571051  58.7645990  16.2365838
  57.4634523  58.3499943  15.7235792  58.9044042  58.8066527  15.6399257
  74.2936272  49.5552177  11.1020872  73.7134941  50.2136981  10.7198924
  74.0272205  48.7329521  10.6908289  72.7439838  48.9557235  13.3042192
  73.2439617  49.0673769  12.4956511  73.3875446  48.6518287  13.9443001
  66.8021834  56.8635864  26.1910033  66.3188916  57.6636224  26.3973922
  66.8882773  56.8743809  25.2377477  60.0707794  58.6964244  14.1131853
  60.0478482  58.7951931  13.1613736  60.3808430  59.5429395  14.4349019
  62.7295172  60.7540399  18.2278467  63.6838425  60.7224341  18.1608399
  62.5307695  60.2931023  19.0428693  63.3194554  59.3241515  20.7949265
  64.1387443  59.8185594  20.8184102  63.5931361  58.4073483  20.7666832
  73.0761150  51.7152267  10.1577220  72.1887005  52.0001918   9.9397415
  73.4915139  51.5546031   9.3104497  76.4275686  51.7398788  13.8731559
  77.2036076  52.2295241  14.1456176  75.7023820  52.1656842  14.3303429
  78.8648245  52.4526407  14.9305500  79.4592735  52.2122143  14.2198808
  78.9374828  51.7333538  15.5579036  61.0845400  66.2960018  15.2448665
  60.9499868  65.5360419  14.6786663  60.6677463  67.0200918  14.7777454
  64.2414526  67.1929335  15.4567107  64.1246910  68.1374768  15.3545798
  63.4206973  66.8902897  15.8452907  58.5729468  53.6579649  21.4941462
  59.2188332  53.1478603  21.9828687  58.3646619  54.3948330  22.0684887
  71.0982860  60.7260496  26.9933602  71.9674020  60.9001149  26.6320237
  70.6189612  61.5454913  26.8709332  67.0933078  47.9219693   7.2465358
  67.0811748  48.8661533   7.4033629  67.9856500  47.7389839   6.9524819
  65.2669040  67.8457597  18.6723036  66.1696287  67.8781208  18.9889531
  65.0406410  66.9158048  18.6869372  70.9085198  44.5162470  11.5011295
  70.1417594  43.9620957  11.6467977  71.3195903  44.5884339  12.3625446
  62.9126959  50.8047266  25.5916476  63.7758421  50.4484071  25.8019801
  62.3392370  50.4661161  26.2791880  79.2019981  69.9482115  23.8587919
  78.4253315  70.5076035  23.8490784  79.8410544  70.4338898  24.3802790
  76.1927717  69.9107217  24.2221196  75.5626378  70.5923497  24.4556593
  76.0863805  69.7990298  23.2774335  75.4708460  64.2127982  26.5846447
  75.0775405  63.6594181  27.2594092  76.2874600  64.5238561  26.9752965
  78.3876421  65.6285862  24.1766704  79.1286134  66.2293015  24.0971166
  78.6194344  64.8863499  23.6184747  73.5317759  70.8142229  22.4544934
  73.4171274  69.9127486  22.7552033  72.6762276  71.0605926  22.1029750
  80.2127878  65.4109755  21.4014000  79.5655793  66.1099705  21.3078477
  80.9828893  65.8445899  21.7690249  76.0541037  68.7575594  21.4530096
  75.5178394  68.3066333  22.1051692  75.4657746  68.8921503  20.7100560
  71.7880159  67.8931602  18.5383090  71.7038347  67.2857272  17.8033500
  70.9662865  68.3840620  18.5392587  80.2216899  72.2764462  25.0398575
  79.5457536  72.1758591  25.7100951  81.0444533  72.1203676  25.5034573
  73.9404175  65.9306539  19.8778076  74.0045501  66.7921370  19.4655474
  73.8771295  65.3180541  19.1450435  73.4156447  68.0029672  23.5251110
  74.0428486  67.6206749  24.1388635  72.5584366  67.7843874  23.8906803
  76.5242551  65.2216524  21.7137666  77.0476953  65.4678821  22.4763975
  76.3054884  66.0536559  21.2940803  71.1661830  71.6073893  21.4924456
  70.4243566  71.7556528  22.0789086  70.8454575  71.8682159  20.6291205
  76.6524505  67.3247578  25.1865030  76.7012660  68.2009701  24.8042800
  77.1947019  66.7824971  24.6136673  78.8823793  68.0778950  21.9411389
  78.0127103  68.3712516  21.6693977  79.1183273  68.6619395  22.6618652
  77.7784319  68.7630643  27.3744972  77.6781045  69.7125000  27.3057063
  77.5605861  68.4348882  26.5021042  77.6415589  72.1927782  26.1910033
  77.1582670  72.9928142  26.3973922  77.7276528  72.2035727  25.2377477
  69.4123222  68.9871566  21.4941462  70.0582086  68.4770520  21.9828687
  69.2040374  69.7240248  22.0684887  73.7520713  66.1339183  25.5916476
  74.6152175  65.7775988  25.8019801  73.1786124  65.7953078  26.2791880
  48.0928334   9.7746339  10.7777741  47.6492188   8.9882717  10.4598645
  48.7545548   9.9625489  10.1121632  50.1909572  10.0549139   8.8059142
  50.1728048  10.8758020   8.3139411  51.1129492   9.9303214   9.0309283
  46.6482626   7.5693268   9.6482651  47.1810963   6.8081556   9.4181959
  46.1196708   7.2766920  10.3906805  51.1025413   6.6944977  11.2009860
  50.9510920   6.4655529  10.2839944  51.0930093   7.6515578  11.2141205
  52.8117620   9.7264099   9.2786342  52.7530166   9.0423320   8.6116925
  53.2137138  10.4683089   8.8266968  52.8135027   7.6903683   7.5100322
  51.9261806   7.3529605   7.6326721  53.3833578   6.9586715   7.7469087
  48.8034864  12.2491970   6.6319724  49.5162836  12.8839435   6.5595625
  48.3124893  12.3455836   5.8159726  47.7035637   3.2950832  11.7643882
  47.0276274   3.1944961  12.4346257  48.5263270   3.1390045  12.2279879
  46.4458419  14.6017759   6.0001498  46.9976727  14.7649381   6.7650583
  46.7864613  15.1922197   5.3281523  51.2969294   9.4279017  11.8550152
  51.8409198  10.0408975  11.3605107  50.7156139   9.9858595  12.3717165
  46.5924231  12.1676241   8.0150152  46.9011357  11.9225387   8.8872852
  47.3899713  12.3722879   7.5269023  54.6198088   8.8875071  11.1911474
  53.8293632   8.8699210  10.6515973  54.3831443   9.4263364  11.9460510
  54.7395963   5.7367537   8.5044202  54.7893968   5.5717545   9.4459725
  54.6309887   4.8694796   8.1142083  56.2414160   8.1564479   8.7486224
  55.9498968   8.5194459   9.5849685  55.6286291   7.4431487   8.5699556
  47.3913118   6.2982772  12.0664748  48.3116128   6.4761371  12.2604795
  47.3562701   5.3538817  11.9144447  45.1234326   3.2114151  12.9155340
  44.6401408   4.0114511  13.1219229  45.2095265   3.2222096  11.9622784
  49.4195352   7.0738783  13.7178909  50.2886512   7.2479436  13.3565544
  48.9402104   7.8933200  13.5954638  57.8877534  18.7354838   3.0585708
  57.5496046  18.6195902   2.1706243  58.7567303  18.3346003   3.0386714
  58.3697317  19.8889689   9.0171914  58.3585958  19.4942488   8.1452417
  58.5317957  19.1555762   9.6105685  51.2928782  22.0841506   1.8866820
  52.0850074  21.7432330   1.4713119  51.5325432  22.1936481   2.8068973
  55.0904579  22.6726801   7.9651098  54.7994445  23.5772432   7.8497764
  55.7261563  22.7143329   8.6795167  56.0160785  20.0503650   4.5552457
  56.6124358  19.8259672   3.8409420  56.0735757  19.3088395   5.1577905
  60.0494464  22.3588217   4.9600891  59.7495187  23.2613255   4.8516699
  59.7045523  22.0920400   5.8122044  53.5006945  18.8102013   0.9937596
  52.5757442  18.6778228   1.2015288  53.7491358  19.5896233   1.4907538
  50.8615756  18.4535287   1.8281385  50.9908137  18.7069766   2.7420797
  50.1813207  19.0462995   1.5086040  55.0315243  29.1232537  -2.0728141
  54.9539273  30.0740362  -1.9939660  54.4276887  28.7778409  -1.4153215
  57.5232473  16.2960402  10.5833226  56.7465807  16.8554322  10.5736091
  58.1623036  16.7817185  11.1048096  55.7778846  19.1045856  10.1451193
  56.5193530  19.6430900   9.8686017  55.0715831  19.7312144  10.3022745
  61.2534185  21.2474996   8.7423355  61.6617541  20.8057407   7.9977987
  60.5311447  20.6727624   8.9957547  57.6065255  16.1847603   6.1156911
  58.4526450  16.6087016   6.2591560  57.5463893  15.5281227   6.8095475
  61.5763000  21.8076187   2.4975643  60.9471862  21.9721901   1.7951711
  61.1888662  22.2217796   3.2686607  60.7564701  13.8451971   7.7738085
  60.5125632  14.5994032   7.2372361  61.0324631  14.2237319   8.6085332
  62.7103163  20.3890584   6.4515351  62.9220059  21.0322344   5.7749732
  62.6632912  19.5552900   5.9837281  57.1290962  21.5450595  -0.2374271
  57.5929307  21.8238298  -1.0269649  56.8647760  20.6434039  -0.4201181
  54.0215043  21.0922076   2.7005492  54.5916400  21.5209345   2.0622976
  54.6123155  20.8104661   3.3989677  54.5140209  16.2585504  10.9466503
  53.8838870  16.9401785  11.1801900  54.4076297  16.1468585  10.0019641
  63.8248991  23.2662539   4.6237708  64.6466435  22.8642726   4.3420390
  63.8211394  23.1630773   5.5753824  57.5905595  22.8146582   6.7798419
  57.6550027  23.2766990   7.6156590  56.8816519  22.1843947   6.9080728
  48.0922885  16.1787790   4.3047418  48.3430923  17.0634800   4.5704994
  48.6282433  15.9992392   3.5322510  53.7920952  10.5606270  13.3091754
  53.3987898  10.0072468  13.9839398  54.6087092  10.8716848  13.6998272
  52.5677894  25.1155884  -0.6971923  52.7444523  26.0373849  -0.8850939
  53.3634728  24.8014303  -0.2677543  56.7088913  11.9764149  10.9012011
  57.4498626  12.5771302  10.8216473  56.9406836  11.2341787  10.3430053
  51.8530251  17.1620516   9.1790240  51.7383766  16.2605773   9.4797339
  50.9974769  17.4084213   8.8275057  58.9322089  25.1038256  10.7777741
  58.4885943  24.3174635  10.4598645  59.5939302  25.2917407  10.1121632
  53.6909210  26.6334058   5.3038419  54.2416635  26.5051121   4.5315413
  52.8520686  26.9328947   4.9533312  61.0303327  25.3841056   8.8059142
  61.0121802  26.2049937   8.3139411  61.9523247  25.2595132   9.0309283
  57.4876381  22.8985186   9.6482651  58.0204718  22.1373474   9.4181959
  56.9590462  22.6058838  10.3906805  56.7254821  17.5592604   0.7870221
  56.7803431  16.6066440   0.7112698  55.9146023  17.7152043   1.2711520
  56.8155759  26.1727421   0.4794865  56.7731938  26.3988267  -0.4496603
  57.7318458  25.9390795   0.6280666  60.2621393  16.6411488   7.3775494
  60.6170781  16.8682961   8.2369960  60.9093524  16.9729865   6.7552749
  54.1561256  13.7488019   4.1621835  54.7960635  13.6076778   3.4644798
  53.3238787  13.4622533   3.7860437  54.9321560  23.0490450   0.2756827
  55.7262158  22.5540770   0.0739402  54.2213252  22.5208313  -0.0875467
  59.7516404  25.4308545   4.6269195  59.8053427  25.9999482   5.3946911
  58.8831186  25.6010430   4.2623232  52.6314798  15.1326101   6.1093646
  53.3037851  14.9243464   5.4606295  51.8044584  14.9348187   5.6698879
  58.5340370  11.7588042   8.1259307  57.8868285  12.4577992   8.0323784
  59.3041385  12.1924186   8.4935555  61.9419168  22.0236895  11.2009860
  61.7904674  21.7947446  10.2839944  61.9323847  22.9807496  11.2141205
  58.7104504  19.5968807   6.1856127  59.6396564  19.7479967   6.0125094
  58.2895534  19.6852828   5.3304773  57.5092836  23.6219472   3.9554664
  57.3703922  23.2538256   4.8280603  56.7207432  24.1367111   3.7838622
  58.1040988  28.7228568  -4.7019799  58.2792744  28.2516611  -3.8874176
  57.4173776  29.3494334  -4.4738538  59.0598051  23.0001074   1.3443502
  58.7247884  22.9601844   2.2401152  58.5601997  22.3345790   0.8713912
  53.0342295  18.4068704   6.8696083  52.8962093  17.6748943   7.4707622
  53.9447218  18.3177605   6.5880271  55.6624596  18.1188664   6.3579763
  56.3724214  17.4781856   6.3166381  55.6193904  18.3701559   7.2805944
  63.6511374  25.0556017   9.2786342  63.5923921  24.3715237   8.6116925
  64.0530893  25.7975007   8.8266968  54.3753530  15.1053882   8.1775403
  53.8390887  14.6544620   8.8296999  53.7870238  15.2399790   7.4345867
  52.6702073  31.8717931   2.0720061  52.9098671  32.5036455   2.7499080
  51.8271270  31.5205971   2.3585420  63.6528782  23.0195601   7.5100322
  62.7655560  22.6821523   7.6326721  64.2227333  22.2878632   7.7469087
  50.1092651  14.2409889   5.2628397  50.0250840  13.6335559   4.5278807
  49.2875357  14.7318908   5.2637893  57.1829935  27.6797053   4.4761565
  57.1100107  28.4852025   4.9880870  56.7407328  27.8789019   3.6509587
  56.9719715  26.9168823  -2.0135613  56.1887237  27.4590504  -1.9197389
  57.6712460  27.4342803  -1.6141372  59.6428619  27.5783887   6.6319724
  60.3556591  28.2131352   6.5595625  59.1518647  27.6747753   5.8159726
  54.6940532  25.3278331   7.4525295  55.3949992  25.9614814   7.6054689
  54.2235647  25.6693062   6.6920934  59.4548992  27.9182631  -0.6193985
  59.6371386  27.1004287  -0.1566232  60.2781978  28.1350324  -1.0569095
  58.5429391  18.6242749  11.7643882  57.8670028  18.5236879  12.4346257
  59.3657025  18.4681963  12.2279879  50.2908250  24.8614686   4.3856397
  50.8761687  24.1158374   4.5184302  50.0933089  25.1718643   5.2693061
  53.1446905  27.8965933  -0.5981160  52.4757281  28.3812061  -1.0817120
  53.0059775  28.1435154   0.3162218  57.2852174  29.9309677   6.0001498
  57.8370482  30.0941298   6.7650583  57.6258367  30.5214115   5.3281523
  52.2616667  12.2784827   6.6023383  52.3257994  13.1399658   6.1900780
  52.1983787  11.6658828   5.8695741  51.7368940  14.3507959  10.2496417
  52.3640979  13.9685036  10.8633941  50.8796859  14.1322161  10.6152110
  62.1363048  24.7570934  11.8550152  62.6802952  25.3700893  11.3605107
  61.5549893  25.3150513  12.3717165  60.4220561  27.8791652   2.9865180
  60.2971701  27.0781392   2.4776126  61.0799652  28.3737846   2.4979150
  62.4855470  25.6800672   4.6144730  61.5385805  25.5606024   4.5423057
  62.8338243  24.7923170   4.6970992  54.8455043  11.5694811   8.4382972
  55.3689445  11.8157108   9.2009282  54.6267376  12.4014846   8.0186110
  59.4901903  25.4753389   0.8149083  59.3426865  24.5470096   0.9956653
  60.3155396  25.4973479   0.3306158  63.0936025  26.2981947   1.9013955
  64.0182572  26.0924809   1.7638406  62.9251328  26.0498349   2.8103297
  56.0507588  12.5108506   6.1232643  55.7104408  11.7116320   6.5253323
  55.3446594  12.8110217   5.5509476  54.2262639  16.2876940   2.3851944
  54.0807219  16.6017243   3.2776226  53.7487842  16.9061840   1.8322843
  57.9385152  13.7116828   4.4785961  57.6802930  14.6333898   4.4770292
  57.4070193  13.3147262   5.1686425  48.7008301  18.8282284   5.3239606
  48.1561769  19.6042092   5.4559880  49.5787651  19.1753088   5.1658727
  49.4874323  17.9552180   8.2169762  48.7456059  18.1034816   8.8034393
  49.1667067  18.2160446   7.3536512  57.4317985  27.4968158   8.0150152
  57.7405112  27.2517305   8.8872852  58.2293467  27.7014797   7.5269023
  57.4538597  29.6506068   0.2455529  57.0143588  29.1582447   0.9388386
  58.2046714  29.1079036   0.0047604  49.9330936  25.8417609   0.2480157
  50.7588956  25.5421381  -0.1321199  49.5824988  25.0725231   0.6969946
  54.9012469  25.1944077   2.3177831  54.2792479  24.5314782   2.0180058
  55.5717336  25.2205209   1.6351478  48.1339541  23.7603935   1.2069091
  47.2971450  23.3326110   1.0253092  48.1063187  23.9536379   2.1439882
  54.9736997  13.6725865  11.9110337  55.0225152  14.5487988  11.5288106
  55.5159511  13.1303258  11.3381980  65.4591843  24.2166988  11.1911474
  64.6687386  24.1991127  10.6515973  65.2225197  24.7555282  11.9460510
  65.5789718  21.0659455   8.5044202  65.6287723  20.9009462   9.4459725
  65.4703641  20.1986714   8.1142083  62.8693480  17.0490383   9.8203509
  63.7703343  16.9096848   9.5287507  62.9441455  17.2144838  10.7601686
  57.2036285  14.4257238   8.6656695  56.3339595  14.7190804   8.3939284
  57.4395766  15.0097683   9.3863959  67.0807915  23.4856396   8.7486224
  66.7892723  23.8486377   9.5849685  66.4680046  22.7723405   8.5699556
  58.2306873  21.6274690  12.0664748  59.1509882  21.8053289  12.2604795
  58.1956456  20.6830735  11.9144447  51.2268945  19.5375724   4.7087529
  51.4454955  20.4692832   4.7275563  51.6394719  19.1783699   5.4942333
  56.0996811  15.1108930  14.0990278  55.9993538  16.0603287  14.0302369
  55.8818353  14.7827169  13.2266348  47.3177298  20.4416195   2.9611144
  46.6240769  20.0270148   2.4481099  48.0650289  20.4836731   2.3644563
  55.9628081  18.5406069  12.9155340  55.4795163  19.3406429  13.1219229
  56.0489020  18.5514014  11.9622784  51.8901418  22.4310604   4.9523774
  52.8444672  22.3994546   4.8853705  51.6913942  21.9701227   5.7674000
  52.4800800  21.0011720   7.5194571  53.2993689  21.4955798   7.5429409
  52.7537608  20.0843688   7.4912139  50.2451647  27.9730223   1.9693971
  50.1106115  27.2130624   1.4031970  49.8283709  28.6971123   1.5022760
  53.4020773  28.8699540   2.1812414  53.2853157  29.8144973   2.0791104
  52.5813219  28.5673102   2.5698213  47.7335715  15.3349854   8.2186768
  48.3794578  14.8248808   8.7073994  47.5252866  16.0718535   8.7930194
  60.2589107  22.4030701  13.7178909  61.1280267  22.5771353  13.3565544
  59.7795858  23.2225118  13.5954638  54.4275287  29.5227802   5.3968343
  55.3302534  29.5551412   5.7134838  54.2012657  28.5928253   5.4114678
  56.1828889  28.2758789   2.0578421  55.2324520  28.2760650   1.9442793
  56.4861375  27.5291523   1.5414456  52.0733206  12.4817471  12.3161783
  52.9364667  12.1254276  12.5265107  51.4998616  12.1431366  13.0037187
  68.7271289  34.0646755   3.0585708  68.3889800  33.9487820   2.1706243
  69.5961057  33.6637920   3.0386714  64.5858105  35.9182232  -0.9517401
  64.0222970  35.8272169  -1.7201113  64.4710500  35.0982136  -0.4714908
  69.2091072  35.2181607   9.0171914  69.1979713  34.8234405   8.1452417
  69.3711711  34.4847680   9.6105685  62.1322537  37.4133423   1.8866820
  62.9243828  37.0724248   1.4713119  62.3719187  37.5228398   2.8068973
  65.9298333  38.0018719   7.9651098  65.6388199  38.9064350   7.8497764
  66.5655317  38.0435246   8.6795167  66.8554540  35.3795567   4.5552457
  67.4518112  35.1551590   3.8409420  66.9129511  34.6380313   5.1577905
  70.8888218  37.6880134   4.9600891  70.5888941  38.5905173   4.8516699
  70.5439278  37.4212317   5.8122044  64.3400700  34.1393931   0.9937596
  63.4151196  34.0070145   1.2015288  64.5885113  34.9188150   1.4907538
  61.7009511  33.7827205   1.8281385  61.8301892  34.0361684   2.7420797
  61.0206962  34.3754913   1.5086040  68.3626228  31.6252320  10.5833226
  67.5859562  32.1846240  10.5736091  69.0016791  32.1109103  11.1048096
  66.6172600  34.4337773  10.1451193  67.3587284  34.9722817   9.8686017
  65.9109585  35.0604062  10.3022745  72.0927940  36.5766914   8.7423355
  72.5011296  36.1349324   7.9977987  71.3705201  36.0019541   8.9957547
  68.4459010  31.5139521   6.1156911  69.2920205  31.9378934   6.2591560
  68.3857647  30.8573145   6.8095475  72.4156754  37.1368104   2.4975643
  71.7865617  37.3013819   1.7951711  72.0282416  37.5509714   3.2686607
  71.5958455  29.1743889   7.7738085  71.3519387  29.9285950   7.2372361
  71.8718386  29.5529237   8.6085332  73.5496918  35.7182501   6.4515351
  73.7613813  36.3614261   5.7749732  73.5026666  34.8844818   5.9837281
  67.9684716  36.8742513  -0.2374271  68.4323062  37.1530216  -1.0269649
  67.7041514  35.9725957  -0.4201181  64.8608797  36.4213994   2.7005492
  65.4310154  36.8501262   2.0622976  65.4516909  36.1396579   3.3989677
  65.3533964  31.5877422  10.9466503  64.7232624  32.2693702  11.1801900
  65.2470052  31.4760503  10.0019641  60.6478936  31.2549218   1.8732427
  59.8577990  31.5106746   1.3972538  61.1390184  32.0697555   1.9784468
  74.6642746  38.5954457   4.6237708  75.4860189  38.1934644   4.3420390
  74.6605149  38.4922691   5.5753824  62.5993682  31.6193797  -1.1684096
  61.8024845  31.7312491  -0.6500600  62.3719274  31.9580449  -2.0343206
  68.4299349  38.1438500   6.7798419  68.4943782  38.6058907   7.6156590
  67.7210273  37.5135865   6.9080728  58.9316639  31.5079708   4.3047418
  59.1824678  32.3926718   4.5704994  59.4676188  31.3284310   3.5322510
  64.6314706  25.8898187  13.3091754  64.2381652  25.3364386  13.9839398
  65.4480847  26.2008766  13.6998272  61.5976764  37.3282046  -2.7794676
  62.1101285  38.1225296  -2.6289111  62.2499477  36.6308336  -2.8461075
  67.5482667  27.3056066  10.9012011  68.2892381  27.9063220  10.8216473
  67.7800590  26.5633704  10.3430053  62.6924005  32.4912434   9.1790240
  62.5777521  31.5897691   9.4797339  61.8368523  32.7376131   8.8275057
  69.7715843  40.4330174  10.7777741  69.3279697  39.6466553  10.4598645
  70.4333057  40.6209325  10.1121632  64.5302964  41.9625976   5.3038419
  65.0810390  41.8343039   4.5315413  63.6914440  42.2620865   4.9533312
  71.8697081  40.7132974   8.8059142  71.8515557  41.5341855   8.3139411
  72.7917001  40.5887049   9.0309283  68.3270135  38.2277103   9.6482651
  68.8598472  37.4665392   9.4181959  67.7984217  37.9350755  10.3906805
  59.5625681  35.6570700  -2.0035106  60.4000903  36.0667708  -2.2201398
  59.7403949  34.7170142  -2.0334912  59.5851852  32.9961415  -1.3324372
  59.3876252  32.4030776  -2.0573305  59.0298516  32.6913625  -0.6148433
  67.5648576  32.8884522   0.7870221  67.6197186  31.9358358   0.7112698
  66.7539778  33.0443961   1.2711520  71.1015147  31.9703406   7.3775494
  71.4564535  32.1974879   8.2369960  71.7487279  32.3021783   6.7552749
  64.9955011  29.0779937   4.1621835  65.6354390  28.9368696   3.4644798
  64.1632541  28.7914450   3.7860437  65.7715314  38.3782367   0.2756827
  66.5655913  37.8832688   0.0739402  65.0607007  37.8500231  -0.0875467
  70.5910159  40.7600463   4.6269195  70.6447181  41.3291399   5.3946911
  69.7224940  40.9302348   4.2623232  61.9983627  29.0480262  -1.0605178
  62.2590444  29.9625595  -1.1696018  62.8200799  28.5804705  -0.9108565
  63.4708552  30.4618019   6.1093646  64.1431606  30.2535381   5.4606295
  62.6438339  30.2640105   5.6698879  69.3734124  27.0879960   8.1259307
  68.7262039  27.7869910   8.0323784  70.1435140  27.5216104   8.4935555
  72.7812922  37.3528812  11.2009860  72.6298429  37.1239364  10.2839944
  72.7717602  38.3099414  11.2141205  69.5498259  34.9260725   6.1856127
  70.4790319  35.0771885   6.0125094  69.1289289  35.0144746   5.3304773
  68.3486590  38.9511389   3.9554664  68.2097676  38.5830174   4.8280603
  67.5601187  39.4659029   3.7838622  69.8991806  38.3292992   1.3443502
  69.5641638  38.2893762   2.2401152  69.3995751  37.6637708   0.8713912
  63.8736050  33.7360622   6.8696083  63.7355847  33.0040861   7.4707622
  64.7840973  33.6469522   6.5880271  66.5018350  33.4480581   6.3579763
  67.2117969  32.8073774   6.3166381  66.4587658  33.6993476   7.2805944
  74.4905129  40.3847935   9.2786342  74.4317675  39.7007155   8.6116925
  74.8924647  41.1266925   8.8266968  65.2147284  30.4345799   8.1775403
  64.6784641  29.9836538   8.8296999  64.6263993  30.5691708   7.4345867
  74.4922536  38.3487519   7.5100322  73.6049315  38.0113440   7.6326721
  75.0621087  37.6170550   7.7469087  56.1451683  34.6811610   0.8343373
  56.8322723  34.3673340   0.2464389  55.9899812  35.5852975   0.5610625
  60.9486405  29.5701807   5.2628397  60.8644594  28.9627477   4.5278807
  60.1269112  30.0610825   5.2637893  68.0223690  43.0088971   4.4761565
  67.9493861  43.8143943   4.9880870  67.5801083  43.2080937   3.6509587
  70.4822373  42.9075805   6.6319724  71.1950345  43.5423270   6.5595625
  69.9912402  43.0039671   5.8159726  65.5334287  40.6570249   7.4525295
  66.2343746  41.2906731   7.6054689  65.0629402  40.9984980   6.6920934
  69.3823146  33.9534667  11.7643882  68.7063783  33.8528796  12.4346257
  70.2050779  33.7973881  12.2279879  61.1302005  40.1906604   4.3856397
  61.7155441  39.4450291   4.5184302  60.9326843  40.5010560   5.2693061
  55.7219659  32.7612204   3.1060840  55.7603759  32.2275794   3.8997959
  55.2159952  32.2347409   2.4871818  68.1245928  45.2601594   6.0001498
  68.6764236  45.4233216   6.7650583  68.4652122  45.8506032   5.3281523
  63.1010422  27.6076744   6.6023383  63.1651748  28.4691575   6.1900780
  63.0377542  26.9950746   5.8695741  62.5762694  29.6799877  10.2496417
  63.2034733  29.2976954  10.8633941  61.7190613  29.4614079  10.6152110
  72.9756803  40.0862852  11.8550152  73.5196707  40.6992810  11.3605107
  72.3943648  40.6442430  12.3717165  59.3528237  31.4876306  -3.8185228
  59.6481678  30.5786984  -3.8718174  58.4516273  31.4664045  -4.1404226
  62.8822484  29.5632303   2.1642320  62.1609070  30.1768270   2.0249794
  63.6715740  30.0990067   2.0858966  73.3249224  41.0092590   4.6144730
  72.3779560  40.8897941   4.5423057  73.6731997  40.1215088   4.6970992
  65.6848797  26.8986729   8.4382972  66.2083199  27.1449026   9.2009282
  65.4661131  27.7306764   8.0186110  66.8901343  27.8400424   6.1232643
  66.5498163  27.0408237   6.5253323  66.1840349  28.1402135   5.5509476
  65.0656393  31.6168857   2.3851944  64.9200974  31.9309160   3.2776226
  64.5881597  32.2353758   1.8322843  68.7778907  29.0408745   4.4785961
  68.5196685  29.9625816   4.4770292  68.2463947  28.6439180   5.1686425
  59.5402055  34.1574202   5.3239606  58.9955523  34.9334010   5.4559880
  60.4181405  34.5045006   5.1658727  60.3268077  33.2844098   8.2169762
  59.5849813  33.4326733   8.8034393  60.0060821  33.5452363   7.3536512
  68.2711740  42.8260076   8.0150152  68.5798866  42.5809223   8.8872852
  69.0687222  43.0306715   7.5269023  60.7724691  41.1709527   0.2480157
  61.5982711  40.8713298  -0.1321199  60.4218743  40.4017149   0.6969946
  65.7406224  40.5235995   2.3177831  65.1186233  39.8606700   2.0180058
  66.4111091  40.5497127   1.6351478  58.9733296  39.0895853   1.2069091
  58.1365204  38.6618027   1.0253092  58.9456941  39.2828296   2.1439882
  65.8130751  29.0017783  11.9110337  65.8618907  29.8779906  11.5288106
  66.3553266  28.4595176  11.3381980  76.2985597  39.5458906  11.1911474
  75.5081141  39.5283045  10.6515973  76.0618952  40.0847200  11.9460510
  76.4183472  36.3951372   8.5044202  76.4681477  36.2301380   9.4459725
  76.3097396  35.5278631   8.1142083  73.7087235  32.3782300   9.8203509
  74.6097097  32.2388765   9.5287507  73.7835209  32.5436755  10.7601686
  68.0430040  29.7549155   8.6656695  67.1733349  30.0482721   8.3939284
  68.2789520  30.3389600   9.3863959  77.9201669  38.8148314   8.7486224
  77.6286477  39.1778295   9.5849685  77.3073800  38.1015322   8.5699556
  63.0572364  35.1005096  -3.2002640  62.8118406  34.1967426  -3.0022430
  63.2268278  35.1022246  -4.1423162  69.0700627  36.9566607  12.0664748
  69.9903637  37.1345206  12.2604795  69.0350210  36.0122653  11.9144447
  58.2882792  32.1505201   0.9918023  57.9685577  31.2970509   0.6992397
  57.7416221  32.3653779   1.7475990  62.0662700  34.8667642   4.7087529
  62.2848710  35.7984750   4.7275563  62.4788474  34.5075617   5.4942333
  66.9390565  30.4400848  14.0990278  66.8387292  31.3895205  14.0302369
  66.7212107  30.1119087  13.2266348  58.1571052  35.7708113   2.9611144
  57.4634524  35.3562065   2.4481099  58.9044043  35.8128649   2.3644563
  66.8021835  33.8697987  12.9155340  66.3188917  34.6698347  13.1219229
  66.8882774  33.8805932  11.9622784  60.0707795  35.7026366   0.8377159
  60.0478483  35.8014054  -0.1140958  60.3808431  36.5491517   1.1594325
  62.7295173  37.7602521   4.9523774  63.6838426  37.7286464   4.8853705
  62.5307696  37.2993145   5.7674000  63.3194555  36.3303637   7.5194571
  64.1387444  36.8247716   7.5429409  63.5931363  35.4135606   7.4912139
  61.0845402  43.3022141   1.9693971  60.9499870  42.5422542   1.4031970
  60.6677464  44.0263041   1.5022760  64.2414528  44.1991458   2.1812414
  64.1246912  45.1436890   2.0791104  63.4206974  43.8965019   2.5698213
  58.5729469  30.6641771   8.2186768  59.2188333  30.1540725   8.7073994
  58.3646620  31.4010453   8.7930194  71.0982861  37.7322619  13.7178909
  71.9674021  37.9063271  13.3565544  70.6189613  38.5517036  13.5954638
  65.2669042  44.8519720   5.3968343  66.1696288  44.8843330   5.7134838
  65.0406412  43.9220171   5.4114678  62.9126960  27.8109388  12.3161783
  63.7758422  27.4546193  12.5265107  62.3392371  27.4723283  13.0037187
  79.2019982  46.9544238  10.5833226  78.4253316  47.5138158  10.5736091
  79.8410545  47.4401021  11.1048096  76.1927718  46.9169339  10.9466503
  75.5626379  47.5985620  11.1801900  76.0863806  46.8052421  10.0019641
  75.4708461  41.2190105  13.3091754  75.0775407  40.6656304  13.9839398
  76.2874601  41.5300684  13.6998272  78.3876422  42.6347984  10.9012011
  79.1286135  43.2355137  10.8216473  78.6194345  41.8925622  10.3430053
  73.5317760  47.8204351   9.1790240  73.4171275  46.9189609   9.4797339
  72.6762278  48.0668048   8.8275057  80.2127879  42.4171878   8.1259307
  79.5655794  43.1161827   8.0323784  80.9828894  42.8508022   8.4935555
  76.0541039  45.7637717   8.1775403  75.5178396  45.3128455   8.8296999
  75.4657747  45.8983626   7.4345867  71.7880160  44.8993725   5.2628397
  71.7038349  44.2919394   4.5278807  70.9662866  45.3902743   5.2637893
  80.2216900  49.2826585  11.7643882  79.5457537  49.1820714  12.4346257
  81.0444534  49.1265798  12.2279879  73.9404176  42.9368662   6.6023383
  74.0045503  43.7983493   6.1900780  73.8771296  42.3242664   5.8695741
  73.4156449  45.0091795  10.2496417  74.0428488  44.6268872  10.8633941
  72.5584368  44.7905996  10.6152110  76.5242552  42.2278647   8.4382972
  77.0476954  42.4740943   9.2009282  76.3054885  43.0598681   8.0186110
  71.1661832  48.6136016   8.2169762  70.4243568  48.7618651   8.8034393
  70.8454576  48.8744281   7.3536512  76.6524506  44.3309700  11.9110337
  76.7012661  45.2071823  11.5288106  77.1947020  43.7887094  11.3381980
  78.8823794  45.0841073   8.6656695  78.0127104  45.3774639   8.3939284
  79.1183275  45.6681518   9.3863959  77.7784320  45.7692766  14.0990278
  77.6781047  46.7187123  14.0302369  77.5605862  45.4411004  13.2266348
  77.6415590  49.1989904  12.9155340  77.1582672  49.9990265  13.1219229
  77.7276529  49.2097849  11.9622784  69.4123224  45.9933689   8.2186768
  70.0582087  45.4832643   8.7073994  69.2040375  46.7302371   8.7930194
  73.7520715  43.1401306  12.3161783  74.6152176  42.7838111  12.5265107
  73.1786125  42.8015201  13.0037187   6.8792452  65.5977044  54.0741450
   6.1256161  65.0284442  53.9185454   7.0139994  65.5639709  55.0212085
   0.9556598  65.7505681  51.1843593   0.8174497  65.9407277  50.2564782
   0.5992817  66.5125064  51.6411644   0.9825978  67.8182208  56.1954865
   1.4162484  67.7257497  57.0437919   1.6957558  67.7939708  55.5574881
   1.8441527  67.8605908  58.7287750   2.0377417  68.7651719  58.9747025
   1.7442145  67.4013327  59.5626335   3.0983590  64.4179575  55.3735654
   3.0873466  65.3004290  55.0029587   2.2300970  64.0651126  55.1790191
   3.7008200  65.5679794  51.9785117   4.1439346  64.8187120  51.5804240
   2.8234710  65.5589931  51.5958849   0.7335405  69.5709841  48.9879046
   1.2586729  69.9097114  48.2628366   0.6457757  68.6356857  48.8042181
   3.2441065  67.0385033  54.3707564   4.0787956  67.4774837  54.5345125
   3.3800194  66.5623686  53.5515810   1.4722318  64.6936647  57.6655657
   1.4398638  63.7552648  57.8515341   2.0822941  64.7720684  56.9321482
   1.6216806  61.4847691  57.7113941   1.1055855  60.7006147  57.5243869
   2.5056755  61.1566407  57.8760460   7.2898867  65.7552654  56.8061694
   8.0202256  65.4937942  57.3669398   6.6805813  65.0181376  56.8463762
   5.3714165  63.8960517  57.4036145   4.6447328  63.7616482  56.7952637
   4.9561451  64.2037345  58.2092863   2.9891959  60.1172369  54.7569577
   3.5836450  59.8768105  54.0462885   3.0618543  59.3979499  55.3843113
   0.9850694  60.6842496  51.0241707   0.7287629  60.2839132  51.8549914
   0.3603562  61.3986290  50.8991846   5.2963032  63.4238570  53.5312998
   4.7362590  63.4931759  54.3044560   4.6906536  63.2479554  52.8112494
   9.3594167  71.4743345  58.6623749   9.0277491  72.3438756  58.4384964
   8.7639780  71.1579629  59.3417779  11.1184476  74.3954869  57.5194973
  10.4758857  74.6887403  56.8734768  10.6139405  74.2807790  58.3248170
   6.4577298  69.3212926  58.2795063   6.1141568  70.2114568  58.2034173
   6.8256261  69.1314584  57.4164648   5.5373839  71.6917581  56.2444296
   5.0338634  71.6547716  55.4312101   5.8304446  72.6010324  56.3040953
   1.6901712  70.8799768  51.3501914   1.0366124  70.5648785  50.7258529
   1.6482186  70.2575508  52.0761737   8.2564964  68.5806485  53.3812800
   8.5623841  67.7203849  53.0938715   8.9817569  69.1724105  53.1811794
   8.5266582  71.0100721  55.8796721   7.6129662  71.2404947  56.0478928
   8.9559684  71.0939165  56.7310754   2.5055282  70.9125493  57.6778736
   3.3281352  70.4385971  57.5557626   2.7493346  71.6915977  58.1777422
   4.1618330  71.1616452  53.9405894   4.1840027  71.2255786  52.9857874
   4.5786389  70.3220961  54.1346400   5.7106542  71.9604529  59.2840886
   6.2288486  72.6965556  58.9587375   5.3561675  72.2668522  60.1187645
   5.9619136  68.3804811  54.8041783   6.2420890  67.7128000  55.4302209
   6.7469743  68.5733907  54.2916446  10.1221287  70.5580624  53.6709753
   9.9246109  70.2495712  54.5553085  10.7320993  71.2842263  53.8007683
   3.9504386  71.3611484  49.7981988   3.1405114  71.0158569  50.1737234
   4.6388803  71.0519028  50.3869600   5.8794934  70.4389531  51.4206285
   6.4325973  70.8584984  52.0796308   6.1165020  69.5125279  51.4629241
   9.2573741  72.5490056  50.9284949   8.6772410  73.2074860  50.5463001
   8.9909674  71.7267401  50.5172366   7.7077308  71.9495114  53.1306269
   8.2077086  72.0611648  52.3220588   8.3512915  71.6456167  53.7707078
  13.8285714  75.4464287  54.7569577  14.4230205  75.2060023  54.0462885
  13.9012298  74.7271417  55.3843113   5.8722667  67.5100349  51.3275372
   5.1055063  66.9558836  51.4732054   6.2833372  67.5822218  52.1889523
   6.8792454  42.6039167  40.7986757   6.1256162  42.0346565  40.6430761
   7.0139995  42.5701831  41.7457391   0.9556599  42.7567803  37.9088900
   0.8174498  42.9469399  36.9810089   0.5992818  43.5187186  38.3656951
   0.9825979  44.8244330  42.9200171   1.4162485  44.7319619  43.7683225
   1.6957559  44.8001831  42.2820187   1.8441528  44.8668031  45.4533057
   2.0377418  45.7713841  45.6992332   1.7442146  44.4075450  46.2871642
   3.0983591  41.4241698  42.0980961   3.0873468  42.3066413  41.7274894
   2.2300971  41.0713248  41.9035498   3.7008201  42.5741917  38.7030423
   4.1439347  41.8249242  38.3049547   2.8234712  42.5652053  38.3204155
   0.7335406  46.5771964  35.7124353   1.2586730  46.9159237  34.9873673
   0.6457758  45.6418979  35.5287487   0.5427187  44.0597334  48.3308279
   0.5925192  43.8947341  49.2723802   0.4341110  43.1924593  47.9406160
   2.0445384  46.4794275  48.5750301   1.7530192  46.8424256  49.4113762
   1.4317515  45.7661284  48.3963633   3.2441066  44.0447155  41.0952871
   4.0787958  44.4836959  41.2590431   3.3800195  43.5685808  40.2761117
   1.4722319  41.6998770  44.3900964   1.4398639  40.7614771  44.5760648
   2.0822942  41.7782807  43.6566789   1.6216807  38.4909813  44.4359247
   1.1055856  37.7068270  44.2489176   2.5056756  38.1628530  44.6005767
   7.2898869  42.7614777  43.5307001   8.0202257  42.5000065  44.0914704
   6.6805814  42.0243499  43.5709069   5.3714166  40.9022639  44.1281452
   4.6447329  40.7678604  43.5197944   4.9561453  41.2099468  44.9338170
   2.9891961  37.1234491  41.4814884   3.5836452  36.8830227  40.7708192
   3.0618544  36.4041622  42.1088420   0.9850696  37.6904619  37.7487013
   0.7287630  37.2901255  38.5795221   0.3603564  38.4048413  37.6237153
   5.2963033  40.4300692  40.2558305   4.7362591  40.4993882  41.0289867
   4.6906537  40.2541677  39.5357801   6.8819052  57.1057206  42.9488261
   7.5197462  56.9863954  42.2451601   6.7639895  58.0538050  43.0076213
   3.6908758  57.0584634  42.8849785   3.3527270  56.9425699  41.9970320
   4.5598526  56.6575799  42.8650791   4.1728541  58.2119486  48.8435991
   4.1617182  57.8172284  47.9716494   4.3349181  57.4785559  49.4369762
   5.1295133  62.5791078  34.1861141   4.4783112  63.1645159  33.7995155
   5.9239495  63.1097273  34.2456179   0.8935802  60.9956598  47.7915175
   0.6025668  61.9002229  47.6761841   1.5292787  61.0373126  48.5059244
   1.8192009  58.3733446  44.3816534   2.4155581  58.1489469  43.6673497
   1.8766981  57.6318192  44.9841982   1.3917038  55.8272882  32.2166725
   1.6442558  55.3054403  31.4550188   0.4541597  55.6639027  32.3193409
   6.4360320  54.8308660  40.0241469   7.2223410  54.4128083  39.6731886
   6.6999025  55.7354752  40.1923117   6.6070398  60.2681510  34.7230125
   5.9716231  60.3416137  35.4351030   6.2767804  60.8575109  34.0449205
  11.8368748  54.7683893  40.9274447  12.5693919  54.1983110  41.1612277
  11.0808103  54.3805494  41.3680953   1.1113326  57.7300988  34.4191100
   0.9949584  57.0545891  35.0872185   1.2215586  57.2433362  33.6023253
   3.4544867  57.1911135  38.1237790   3.0903074  56.6641756  38.8350711
   4.3111983  56.8009604  37.9504275   9.3594168  48.4805467  45.3869056
   9.0277493  49.3500878  45.1630271   8.7639781  48.1641751  46.0663086
   3.0950354  52.2201035  33.1199138   3.2624757  53.0881271  33.4869609
   2.9047523  52.3828316  32.1960427   5.8525687  60.6818013  44.7864968
   5.5526411  61.5843052  44.6780776   5.5076747  60.4150197  45.6386121
   9.2522831  53.2000554  42.4662406   8.3439709  53.1315962  42.1721167
   9.2010427  53.6772499  43.2944231   3.0739575  54.6758692  34.1045805
   2.9539200  55.1215743  34.9431285   2.3792164  55.0244010  33.5459343
   3.3263697  54.6190199  50.4097303   2.5497031  55.1784119  50.4000168
   3.9654260  55.1046982  50.9312173  11.1184478  51.4016992  44.2440280
  10.4758858  51.6949525  43.5980074  10.6139406  51.2869912  45.0493476
   8.7724641  55.1480165  34.9326139   9.6842497  55.3807552  34.7573837
   8.2634288  55.7317209  34.3701218   1.5810069  57.4275653  49.9715270
   2.3224754  57.9660697  49.6950094   0.8747055  58.0541941  50.1286822
   7.0565409  59.5704793  48.5687432   7.4648765  59.1287204  47.8242064
   6.3342670  58.9957421  48.8221624   3.4096479  54.5077400  45.9420988
   4.2557674  54.9316813  46.0855637   3.3495117  53.8511024  46.6359552
   7.3794224  60.1305984  42.3239720   6.7503086  60.2951698  41.6215788
   6.9919886  60.5447593  43.0950684  11.2583455  61.0660421  39.6784084
  10.5734494  61.4459323  39.1281117  11.3427305  61.6755748  40.4116032
   6.5595924  52.1681768  47.6002162   6.3156856  52.9223829  47.0636438
   6.8355855  52.5467116  48.4349409   8.5134387  58.7120381  46.2779428
   8.7251282  59.3552140  45.6013809   8.4664135  57.8782697  45.8101358
   6.1160616  51.3238201  43.1816000   5.2545095  51.6219455  43.4732737
   6.1423051  51.5408600  42.2497032   2.9322185  59.8680392  39.5889806
   3.3960531  60.1468095  38.7994428   2.6678984  58.9663836  39.4062896
   1.8691072  55.9903544  36.3979371   2.5715115  56.4424588  36.8653297
   1.5371700  55.3487363  37.0259264   9.6280215  61.5892336  44.4501785
  10.4497659  61.1872523  44.1684467   9.6242618  61.4860570  45.4017901
   3.3936818  61.1376379  46.6062496   3.4581251  61.5996786  47.4420667
   2.6847742  60.5073744  46.7344805  17.7186208  57.9331084  40.7986757
  16.9649916  57.3638482  40.6430761  17.8533749  57.8993749  41.7457391
   3.1084836  62.8044487  36.4741476   2.9730511  63.6496022  36.9026324
   3.6494649  63.0063764  35.7107410   2.5120137  50.2993946  50.7276088
   3.2529850  50.9001099  50.6480550   2.7438060  49.5571583  50.1694130
   4.7353313  63.4268053  50.6041818   4.2917167  62.6404432  50.2862722
   5.3970526  63.6147204  49.9385709   6.8334551  63.7070853  48.6323219
   6.8153026  64.5279734  48.1403488   7.7554471  63.5824928  48.8573360
   3.2907605  61.2214983  49.4746728   3.8235942  60.4603271  49.2446036
   2.7621686  60.9288634  50.2170882   6.4577300  46.3275049  45.0040369
   6.1141569  47.2176690  44.9279480   6.8256262  46.1376706  44.1409954
   6.4227582  56.3183660  33.5112804   5.9074206  57.0888264  33.7501192
   6.1504891  55.6448796  34.1345866   4.0074693  51.1633360  38.5698043
   3.1516290  50.7740211  38.3903682   4.4201645  51.2425321  37.7097828
   5.5373840  48.6979704  42.9689603   5.0338636  48.6609839  42.1557408
   5.8304447  49.6072446  43.0286259   1.7816726  48.7818433  41.9755784
   2.6469723  48.5861242  41.6161674   1.8494235  48.5528785  42.9025141
  11.3961857  59.0716014  35.4465978  10.6191299  58.7327174  35.0021140
  12.0753338  59.0768638  34.7720943   6.2113886  54.1910752  35.3372586
   5.9064021  54.5056901  36.1882729   7.1644328  54.2692172  35.3799919
   4.6560317  60.3500975  36.9865540   4.1281679  59.6153735  36.6738777
   4.1547820  61.1275651  36.7405508   9.6353163  58.5449996  42.1032586
   8.9776838  59.2349257  42.1912715  10.4393563  58.9346428  42.4466572
   8.4458622  56.8994368  40.1536528   8.9590504  57.5324360  40.6558237
   9.0959846  56.2995564  39.7879888   1.6901713  47.8861890  38.0747221
   1.0366125  47.5710907  37.4503835   1.6482187  47.2637631  38.8007043
   2.8012918  58.1681185  29.9900513   1.8939979  57.9370439  30.1891662
   3.2983950  57.3718805  30.1774494   5.7080997  66.8778693  32.9097199
   5.0342695  67.1810389  33.5182157   6.0946818  67.6807773  32.5602656
   4.9239453  54.3743824  42.3994868   4.0062015  54.5958771  42.2416556
   5.3399597  54.4490134  41.5406576   5.7074501  55.7735240  37.5297548
   6.4546320  56.2856637  37.2204670   5.9766090  55.4519292  38.3901942
   3.9801151  58.2693780  34.5124503   3.0712370  57.9852813  34.6096972
   4.0096235  58.6892859  33.6527810   9.2120418  61.8800370  38.2815670
   8.7582746  61.0391280  38.3380861   8.5814385  62.5161768  38.6190450
   8.1553338  52.8092356  39.5116338   7.4176095  52.2969742  39.8426580
   8.4080112  52.3692737  38.6999615   7.6553358  63.7176866  39.2165488
   7.9476332  64.2781924  38.4977854   8.1651978  64.0105427  39.9718648
   8.2564965  45.5868608  40.1058107   8.5623842  44.7265971  39.8184022
   8.9817570  46.1786228  39.9057101   2.5286045  55.8822401  40.6134298
   2.5834655  54.9296237  40.5376775   1.7177247  56.0381840  41.0975597
   3.6777239  59.8102524  31.8512581   3.2396669  59.0938383  31.3918219
   4.4187680  60.0378639  31.2897673   2.6186983  64.4957218  40.3058942
   2.5763162  64.7218064  39.3767474   3.5349682  64.2620592  40.4544743
   6.0652617  54.9641285  47.2039571   6.4202004  55.1912758  48.0634037
   6.7124748  55.2959662  46.5816826  11.7950354  58.0859721  37.9088900
  11.6568252  58.2761317  36.9810089  11.4386572  58.8479104  38.3656951
  11.8219733  60.1536248  42.9200171  12.2556240  60.0611537  43.7683225
  12.5351314  60.1293748  42.2820187   5.5547628  63.7538342  44.4533272
   5.6084650  64.3229278  45.2210988   4.6862410  63.9240227  44.0887309
  12.6835283  60.1959949  45.4533057  12.8771173  61.1005759  45.6992332
  12.5835901  59.7367368  46.2871642   4.3371594  50.0817839  47.9523384
   3.6899509  50.7807789  47.8587861   5.1072609  50.5153983  48.3199632
   7.7450391  60.3466691  51.0273937   7.5935898  60.1177243  50.1104021
   7.7355071  61.3037293  51.0405282   4.5135728  57.9198604  46.0120204
   5.4427788  58.0709764  45.8389171   4.0926758  58.0082625  45.1568850
   3.3124060  61.9449269  43.7818741   3.1735145  61.5768053  44.6544680
   2.5238656  62.4596908  43.6102699   3.9072212  67.0458365  35.1244278
   4.0823967  66.5746408  35.9389901   3.2205000  67.6724131  35.3525539
   4.8629275  61.3230871  41.1707579   4.5279107  61.2831641  42.0665229
   4.3633221  60.6575587  40.6977989   7.7988466  58.6686906  31.4444639
   7.1817637  57.9433734  31.3477692   7.3304955  59.4296266  31.1011713
   1.4655819  56.4418461  46.1843840   2.1755438  55.8011653  46.1430458
   1.4225128  56.6931355  47.1070021   9.4542598  63.3785814  49.1050419
   9.3955144  62.6945034  48.4381002   9.8562117  64.1204804  48.6531045
   9.4560005  61.3425398  47.3364399   8.5686784  61.0051320  47.4590798
  10.0258556  60.6108429  47.5733164   2.9861159  66.0026850  44.3025642
   2.9131330  66.8081822  44.8144947   2.5438552  66.2018816  43.4773664
   2.7750938  65.2398620  37.8128464   1.9918460  65.7820300  37.9066688
   3.4743684  65.7572600  38.2122705   6.0847589  51.0493250  40.4562669
   6.5816288  50.2963212  40.1363739   5.3134570  51.0857566  39.8905878
  13.9377346  56.7533615  42.0980961  13.9267222  57.6358331  41.7274894
  13.0694725  56.4005166  41.9035498   5.4459842  65.9013684  46.4583801
   6.1587815  66.5361149  46.3859702   4.9549871  65.9977550  45.6423803
   7.1677369  59.8064937  38.0301092   6.2333648  59.9266399  37.8605797
   7.3454038  58.9037404  37.7661102   2.6682557  53.1910633  40.1834354
   2.2980345  52.6381673  40.8715259   3.1641650  52.5868766  39.6309354
  10.5549921  55.6482256  38.5651127  11.0210373  56.4810248  38.4911429
  11.0057421  55.1827238  39.2696385   8.6226152  61.9926077  35.5637279
   8.8985996  61.8782672  36.4731153   7.7530650  61.5943562  35.5249452
   8.5266583  48.0162843  42.6042028   7.6129663  48.2467070  42.7724235
   8.9559685  48.1001287  43.4556060   8.2973042  56.2052735  45.1041922
   7.6444492  56.4528643  44.4494375   8.6753422  55.3916873  44.7704399
   5.2580216  66.2412428  39.2070092   5.4402610  65.4234084  39.6697845
   6.0813202  66.4580121  38.7694982   5.5922381  65.1680613  36.4685141
   6.1210148  64.6573068  35.8555303   5.8550601  64.8523144  37.3330674
   4.3460615  56.9472546  51.5907959   3.6701252  56.8466676  52.2610334
   5.1688249  56.7911760  52.0543956   3.0883398  68.2539474  45.8265575
   3.6401706  68.4171095  46.5914660   3.4289591  68.8443911  45.1545600
   7.9394272  63.0800731  51.6814229   8.4834176  63.6930689  51.1869184
   7.3581117  63.6380310  52.1981242   6.2251785  66.2021449  42.8129257
   6.1002924  65.4011189  42.3040203   6.8830876  66.6967643  42.3243227
   8.2886693  64.0030469  44.4408807   7.3417029  63.8835820  44.3687134
   8.6369467  63.1152967  44.5235069   0.6486267  49.8924608  48.2647049
   1.1720669  50.1386905  49.0273359   0.4298600  50.7244643  47.8450187
   5.2933127  63.7983185  40.6413160   5.1458089  62.8699893  40.8220730
   6.1186620  63.8203276  40.1570235   8.8967249  64.6211744  41.7278032
   9.8213796  64.4154606  41.5902483   8.7282552  64.3728145  42.6367374
   1.8538812  50.8338303  45.9496720   1.5135632  50.0346116  46.3517400
   1.1477818  51.1340014  45.3773553   2.5055284  47.9187616  44.4024043
   3.3281353  47.4448094  44.2802933   2.7493347  48.6978099  44.9022729
   1.1463518  50.9475874  34.6986944   1.8671881  51.3257127  34.1950661
   0.5228822  51.6664751  34.8021922   5.2894641  51.6521023  35.6345277
   5.5058255  52.5345661  35.3334105   4.8088708  51.2607237  34.9050919
   1.8890245  51.6009284  42.2596911   1.8751814  50.7050378  41.9229209
   2.6062673  51.6079948  42.8935197   3.7416376  52.0346625  44.3050038
   3.4834154  52.9563695  44.3034369   3.2101416  51.6377059  44.9950502
   8.6862565  65.1397412  37.0840124   8.8599442  64.5743834  36.3313976
   9.1791456  65.9398307  36.9019614   1.2927141  50.4823665  37.5284481
   1.4143052  49.5540311  37.7275369   1.0029184  50.4962351  36.6162796
   4.1618332  48.1678575  40.6651201   4.1840028  48.2317908  39.7103180
   4.5786391  47.3283084  40.8591707  14.5401956  57.9033835  38.7030423
  14.9833102  57.1541160  38.3049547  13.6628466  57.8943971  38.3204155
   9.6737737  64.4564176  34.1837022  10.3688642  65.0770869  34.4024337
  10.0160887  63.6059527  34.4589400  11.5729160  61.9063882  35.7124353
  12.0980484  62.2451154  34.9873673  11.4851513  60.9710897  35.5287487
   3.2349209  65.8197955  47.8414229   3.5436336  65.5747102  48.7136929
   4.0324691  66.0244594  47.3533100   3.2569821  67.9735865  40.0719606
   2.8174811  67.4812244  40.7652463   4.0077938  67.4308833  39.8311681
   0.7768221  51.9955662  51.7374414   0.8256376  52.8717785  51.3552183
   1.3190735  51.4533055  51.1646057  11.2623066  62.5396785  51.0175551
  10.4718610  62.5220924  50.4780050  11.0256421  63.0785079  51.7724587
  11.3820941  59.3889252  48.3308279  11.4318946  59.2239259  49.2723802
  11.2734865  58.5216511  47.9406160   8.6724704  55.3720180  49.6467586
   9.5734567  55.2326645  49.3551584   8.7472678  55.5374634  50.5865763
   3.0067509  52.7487034  48.4920772   2.1370819  53.0420600  48.2203361
   3.2426990  53.3327479  49.2128036  12.8839138  61.8086193  48.5750301
  12.5923947  62.1716174  49.4113762  12.2711270  61.0953201  48.3963633
  14.0834821  59.3739073  41.0952871  14.9181712  59.8128877  41.2590431
  14.2193949  58.8977726  40.2761117  11.1326327  56.9318808  47.0430359
  11.6080448  57.1246454  46.2349210  10.2091892  56.9877994  46.7973742
   5.7106543  48.9666651  46.0086193   6.2288487  49.7027678  45.6832681
   5.3561676  49.2730645  46.8432952   5.9619137  45.3866934  41.5287089
   6.2420891  44.7190123  42.1547516   6.7469744  45.5796029  41.0161753
   3.7652606  64.5625928  33.0912116   3.1926573  65.1816115  32.6382587
   4.3385399  65.1125289  33.6252038   9.8327996  53.8084568  45.2758664
  10.7845418  53.9082666  45.2970888   9.6631446  53.0162836  45.7856749
   7.8542375  50.8940151  45.4618065   7.2592307  51.1745164  44.7664554
   7.5692072  51.3834052  46.2334806   6.9849865  64.8463078  34.2220698
   7.9180539  64.7808640  34.4253573   6.8973078  65.6819345  33.7635231
   9.6137882  64.1628948  31.1824645   9.5351514  63.8288812  32.0760403
  10.4347549  64.6550716  31.1816118  12.3116073  57.0290688  44.3900964
  12.2792393  56.0906688  44.5760648  12.9216697  57.1074724  43.6566789
   4.1499404  55.8986741  30.4328168   5.0958509  55.7692949  30.5016586
   3.7713649  55.1601402  30.9097596  12.4610562  53.8201731  44.4359247
  11.9449610  53.0360188  44.2489176  13.3450510  53.4920448  44.6005767
  10.1221289  47.5642747  40.3955060   9.9246110  47.2557835  41.2798392
  10.7320994  48.2904385  40.5252990  18.1292623  58.0906694  43.5307001
  18.8596012  57.8291983  44.0914704  17.5199569  57.3535416  43.5709069
  16.2107920  56.2314557  44.1281452  15.4841084  56.0970522  43.5197944
  15.7955207  56.5391386  44.9338170   4.0338097  59.9504487  51.8928825
   4.9541106  60.1283086  52.0868872   3.9987680  59.0060532  51.7408524
   2.3342321  53.8236717  30.3683053   1.4273777  53.5269830  30.4445767
   2.6118302  53.5266535  29.5017340   3.9504387  48.3673607  36.5227295
   3.1405115  48.0220692  36.8982541   4.6388804  48.0581150  37.1114906
   5.8794935  47.4451653  38.1451591   6.4325974  47.8647107  38.8041614
   6.1165022  46.5187402  38.1874547   1.9028035  53.4338727  53.9254355
   1.8024761  54.3833084  53.8566446   1.6849577  53.1056966  53.0530425
   1.1041106  50.6823652  30.5095033   1.9660270  51.0078550  30.7690850
   1.2891450  49.8955148  29.9968098   9.2573742  49.5552179  37.6530256
   8.6772411  50.2136983  37.2708308   8.9909675  48.7329523  37.2417673
   7.7077309  48.9557236  39.8551576   8.2077087  49.0673771  39.0465895
   8.3512917  48.6518289  40.4952384   1.7659305  56.8635866  52.7419417
   1.2826386  57.6636226  52.9483306   1.8520244  56.8743811  51.7886861
   8.0398620  51.7152269  36.7086604   7.1524475  52.0001920  36.4906799
   8.4552610  51.5546032  35.8613881  11.3913157  51.7398790  40.4240943
  12.1673547  52.2295242  40.6965560  10.6661291  52.1656844  40.8812813
  13.8285715  52.4526409  41.4814884  14.4230206  52.2122145  40.7708192
  13.9012299  51.7333540  42.1088420   7.1841834  61.4796944  30.8034624
   7.8877684  61.6846946  31.4192279   6.4604483  62.0473706  31.0683707
   8.0139644  57.2306805  36.9236894   7.9574846  57.6875356  36.0844526
   8.5667987  56.4697489  36.7459737  11.8244450  53.0196537  37.7487013
  11.5681384  52.6193172  38.5795221  11.1997318  53.7340331  37.6237153
  16.1356788  55.7592610  40.2558305  15.5756346  55.8285799  41.0289867
  15.5300291  55.5833595  39.5357801   9.0928531  61.9179473  32.8533084
   9.9274135  61.4860671  32.6710559   8.9312874  61.7461487  33.7809978
   8.7474424  58.4211586  34.2189423   8.6923227  58.2555858  33.2777867
   8.1220479  59.1287619  34.3751613   6.0620331  60.7260498  53.5442986
   6.9311490  60.9001150  53.1829621   5.5827082  61.5454915  53.4218715
   2.0570549  47.9219695  33.7974742   2.0449219  48.8661535  33.9543012
   2.9493971  47.7389841  33.5034203   1.9860113  66.5988586  41.8842498
   1.0355744  66.5990447  41.7706870   2.2892599  65.8521320  41.3678533
   5.8722668  44.5162472  38.0520678   5.1055064  43.9620958  38.1977361
   6.2833373  44.5884341  38.9134830  17.7212806  72.4349124  42.9488261
  18.3591216  72.3155871  42.2451601  17.6033649  73.3829968  43.0076213
  14.5302513  72.3876552  42.8849785  14.1921024  72.2717617  41.9970320
  15.3992281  71.9867717  42.8650791  10.3889328  74.2412028  38.8746676
   9.8254194  74.1501965  38.1062964  10.2741723  73.4211933  39.3549169
  15.0122296  73.5411404  48.8435991  15.0010936  73.1464202  47.9716494
  15.1742935  72.8077476  49.4369762  12.6585764  73.7025364  44.3816534
  13.2549336  73.4781387  43.6673497  12.7160735  72.9610110  44.9841982
  12.2310792  71.1564799  32.2166725  12.4836313  70.6346321  31.4550188
  11.2935351  70.9930945  32.3193409  17.2754075  70.1600578  40.0241469
  18.0617164  69.7420001  39.6731886  17.5392779  71.0646670  40.1923117
  17.4464152  75.5973428  34.7230125  16.8109985  75.6708055  35.4351030
  17.1161559  76.1867027  34.0449205  22.6762502  70.0975811  40.9274447
  23.4087674  69.5275028  41.1612277  21.9201858  69.7097411  41.3680953
  11.9507081  73.0592905  34.4191100  11.8343339  72.3837809  35.0872185
  12.0609341  72.5725279  33.6023253  14.2938622  72.5203052  38.1237790
  13.9296829  71.9933673  38.8350711  15.1505738  72.1301522  37.9504275
  20.1987922  63.8097385  45.3869056  19.8671247  64.6792796  45.1630271
  19.6033536  63.4933669  46.0663086  13.9344109  67.5492952  33.1199138
  14.1018511  68.4173189  33.4869609  13.7441278  67.7120234  32.1960427
  16.6919442  76.0109931  44.7864968  16.3920165  76.9134970  44.6780776
  16.3470501  75.7442114  45.6386121  10.1431923  72.4623728  40.8201673
   9.2182420  72.3299942  41.0279365  10.3916337  73.2417947  41.3171615
  20.0916586  68.5292471  42.4662406  19.1833463  68.4607880  42.1721167
  20.0404182  69.0064416  43.2944231  13.9133330  70.0050610  34.1045805
  13.7932955  70.4507660  34.9431285  13.2185918  70.3535927  33.5459343
   7.5040734  72.1057001  41.6545462   7.6333116  72.3591480  42.5684874
   6.8238186  72.6984709  41.3350117  14.1657451  69.9482117  50.4097303
  13.3890786  70.5076037  50.4000168  14.8048015  70.4338900  50.9312173
  21.9578232  66.7308910  44.2440280  21.3152612  67.0241443  43.5980074
  21.4533161  66.6161830  45.0493476  19.6118396  70.4772083  34.9326139
  20.5236252  70.7099470  34.7573837  19.1028043  71.0609127  34.3701218
  12.4203824  72.7567570  49.9715270  13.1618508  73.2952614  49.6950094
  11.7140809  73.3833859  50.1286822  17.8959163  74.8996711  48.5687432
  18.3042519  74.4579121  47.8242064  17.1736425  74.3249338  48.8221624
  14.2490233  69.8369317  45.9420988  15.0951429  70.2608731  46.0855637
  14.1888871  69.1802942  46.6359552  18.2187978  75.4597901  42.3239720
  17.5896841  75.6243615  41.6215788  17.8313640  75.8739511  43.0950684
  22.0977210  76.3952339  39.6784084  21.4128248  76.7751241  39.1281117
  22.1821059  77.0047666  40.4116032  17.3989679  67.4973686  47.6002162
  17.1550611  68.2515746  47.0636438  17.6749609  67.8759033  48.4349409
  19.3528142  74.0412298  46.2779428  19.5645037  74.6844058  45.6013809
  19.3057890  73.2074615  45.8101358  16.9554371  66.6530119  43.1816000
  16.0938850  66.9511372  43.4732737  16.9816805  66.8700518  42.2497032
  13.7715940  75.1972309  39.5889806  14.2354285  75.4760012  38.7994428
  13.5072738  74.2955754  39.4062896  12.7084826  71.3195462  36.3979371
  13.4108869  71.7716505  36.8653297  12.3765455  70.6779281  37.0259264
  11.1565188  69.9107218  50.7730580  10.5263848  70.5923499  51.0065977
  11.0501275  69.7990300  49.8283718   6.4510160  69.5779014  41.6996504
   5.6609214  69.8336543  41.2236615   6.9421407  70.3927352  41.8048545
  20.4673970  76.9184254  44.4501785  21.2891413  76.5164441  44.1684467
  20.4636372  76.8152488  45.4017901   8.4024905  69.9423594  38.6579981
   7.6056069  70.0542288  39.1763477   8.1750498  70.2810246  37.7920871
   4.7347863  69.8309505  44.1311495   4.9855901  70.7156515  44.3969071
   5.2707411  69.6514106  43.3586587  28.5579963  73.2623002  40.7986757
  27.8043671  72.6930400  40.6430761  28.6927504  73.2285667  41.7457391
  10.4345930  64.2127984  53.1355831  10.0412876  63.6594183  53.8103475
  11.2512071  64.5238563  53.5262349  13.3513891  65.6285863  50.7276088
  14.0923605  66.2293016  50.6480550  13.5831814  64.8863501  50.1694130
   8.4955229  70.8142231  49.0054317   8.3808744  69.9127488  49.3061416
   7.6399747  71.0605927  48.6539134  17.2971054  61.6566966  45.0040369
  16.9535324  62.5468608  44.9279480  17.6650017  61.4668624  44.1409954
  17.2621337  71.6475577  33.5112804  16.7467960  72.4180182  33.7501192
  16.9898645  70.9740714  34.1345866  14.8468448  66.4925278  38.5698043
  13.9910044  66.1032129  38.3903682  15.2595400  66.5717239  37.7097828
  16.3767595  64.0271621  42.9689603  15.8732390  63.9901757  42.1557408
  16.6698201  64.9364364  43.0286259  12.6210480  64.1110351  41.9755784
  13.4863477  63.9153160  41.6161674  12.6887989  63.8820703  42.9025141
  22.2355611  74.4007932  35.4465978  21.4585054  74.0619092  35.0021140
  22.9147092  74.4060555  34.7720943  17.0507640  69.5202669  35.3372586
  16.7457776  69.8348819  36.1882729  18.0038082  69.5984089  35.3799919
  20.4746918  73.8741913  42.1032586  19.8170592  74.5641175  42.1912715
  21.2787317  74.2638345  42.4466572  10.2272800  66.3412559  39.3472151
  10.8016551  66.1187741  38.6145344  10.8143782  66.4101254  40.1000752
  19.2852377  72.2286286  40.1536528  19.7984259  72.8616278  40.6558237
  19.9353601  71.6287481  39.7879888  10.5542387  68.3717020  33.3668036
   9.7179699  68.7091707  33.6877311  10.4147156  68.2366000  32.4295173
  12.5295467  63.2153808  38.0747221  11.8759880  62.9002825  37.4503835
  12.4875941  62.5929548  38.8007043  13.6406672  73.4973103  29.9900513
  12.7333734  73.2662357  30.1891662  14.1377704  72.7010722  30.1774494
  15.7633208  69.7035742  42.3994868  14.8455769  69.9250689  42.2416556
  16.1793351  69.7782052  41.5406576  16.5468255  71.1027157  37.5297548
  17.2940074  71.6148554  37.2204670  16.8159845  70.7811210  38.3901942
  14.8194906  73.5985698  34.5124503  13.9106125  73.3144731  34.6096972
  14.8489989  74.0184776  33.6527810  20.0514173  77.2092287  38.2815670
  19.5976500  76.3683197  38.3380861  19.4208140  77.8453686  38.6190450
  18.9947093  68.1384273  39.5116338  18.2569849  67.6261660  39.8426580
  19.2473866  67.6984655  38.6999615  19.0958720  60.9160525  40.1058107
  19.4017597  60.0557889  39.8184022  19.8211325  61.5078146  39.9057101
   5.3883076  71.3191212  38.4939705   5.1907476  70.7260573  37.7690772
   4.8329740  71.0143422  39.2115644  13.3679800  71.2114319  40.6134298
  13.4228409  70.2588155  40.5376775  12.5571002  71.3673758  41.0975597
  14.5170993  75.1394442  31.8512581  14.0790423  74.4230301  31.3918219
  15.2581434  75.3670556  31.2897673  11.3072160  69.8291378  38.3724677
  10.4940025  70.1285549  38.7789869  11.8031154  69.4347067  39.0899159
  16.9046371  70.2933203  47.2039571  17.2595759  70.5204676  48.0634037
  17.5518502  70.6251580  46.5816826  22.6344108  73.4151639  37.9088900
  22.4962007  73.6053235  36.9810089  22.2780327  74.1771021  38.3656951
  10.7986234  67.4009734  43.9885912  11.4385614  67.2598493  43.2908875
   9.9663765  67.1144247  43.6124514  22.6613488  75.4828166  42.9200171
  23.0949994  75.3903455  43.7683225  23.3745068  75.4585666  42.2820187
   7.8829302  70.8455246  36.1780657   6.9526890  70.7839701  36.3950619
   7.9786774  70.3231199  35.3817298   7.8014851  67.3710059  38.7658899
   8.0621668  68.2855392  38.6568059   8.6232023  66.9034501  38.9155512
   9.2739776  68.7847816  45.9357723   9.9462829  68.5765178  45.2870372
   8.4469563  68.5869902  45.4962956  23.5229037  75.5251866  45.4533057
  23.7164927  76.4297677  45.6992332  23.4229655  75.0659285  46.2871642
  15.1765348  65.4109757  47.9523384  14.5293263  66.1099707  47.8587861
  15.9466363  65.8445901  48.3199632  18.5844146  75.6758609  51.0273937
  18.4329652  75.4469161  50.1104021  18.5748825  76.6329210  51.0405282
  15.3529482  73.2490522  46.0120204  16.2821542  73.4001681  45.8389171
  14.9320512  73.3374543  45.1568850   9.6767273  72.0590419  46.6960160
   9.5387071  71.3270658  47.2971699  10.5872197  71.9699319  46.4144348
  18.6382221  73.9978823  31.4444639  18.0211392  73.2725651  31.3477692
  18.1698709  74.7588184  31.1011713  12.3049574  71.7710378  46.1843840
  13.0149192  71.1303570  46.1430458  12.2618882  72.0223273  47.1070021
  11.0178508  68.7575596  48.0039480  10.4815865  68.3066335  48.6561076
  10.4295216  68.8921505  47.2609944  10.4280767  68.2164248  30.5665943
   9.5510233  68.0953048  30.2028190  10.9038520  67.4250326  30.3144832
  20.2953760  76.6717316  47.3364399  19.4080539  76.3343237  47.4590798
  20.8652311  75.9400347  47.5733164   6.7517629  67.8931604  45.0892474
   6.6675818  67.2857273  44.3542884   5.9300336  68.3840622  45.0901970
  16.9241343  66.3785167  40.4562669  17.4210043  65.6255130  40.1363739
  16.1528325  66.4149484  39.8905878  24.7771100  72.0825533  42.0980961
  24.7660977  72.9650248  41.7274894  23.9088480  71.7297084  41.9035498
  18.0071124  75.1356855  38.0301092  17.0727402  75.2558317  37.8605797
  18.1847792  74.2329321  37.7661102  13.5076312  68.5202550  40.1834354
  13.1374099  67.9673591  40.8715259  14.0035404  67.9160684  39.6309354
  21.3943675  70.9774174  38.5651127  21.8604127  71.8102165  38.4911429
  21.8451176  70.5119155  39.2696385  19.4619906  77.3217995  35.5637279
  19.7379750  77.2074590  36.4731153  18.5924405  76.9235480  35.5249452
  19.3660338  63.3454761  42.6042028  18.4523418  63.5758988  42.7724235
  19.7953439  63.4293205  43.4556060  19.1366796  71.5344653  45.1041922
  18.4838247  71.7820560  44.4494375  19.5147176  70.7208791  44.7704399
  15.1854369  72.2764464  51.5907959  14.5095006  72.1758593  52.2610334
  16.0082003  72.1203678  52.0543956   1.5250883  71.0842001  42.9324917
   1.5634983  70.5505591  43.7262036   1.0191176  70.5577206  42.3135895
   8.9041645  65.9306541  46.4287460   8.9682972  66.7921372  46.0164857
   8.8408766  65.3180543  45.6959818   8.3793918  68.0029674  50.0760494
   9.0065957  67.6206751  50.6898018   7.5221837  67.7843876  50.4416187
   5.1559461  69.8106103  36.0078849   5.4512902  68.9016781  35.9545903
   4.2547496  69.7893842  35.6859851   8.6853708  67.8862099  41.9906397
   7.9640293  68.4998067  41.8513871   9.4746963  68.4219864  41.9123043
  11.4880021  65.2216526  48.2647049  12.0114423  65.4678822  49.0273359
  11.2692355  66.0536561  47.8450187   6.8847302  67.4920200  36.1318174
   6.5560008  66.6117579  35.9493280   7.2386673  67.4367869  37.0194563
   9.9989125  67.7793170  36.4993652  10.3385198  68.3079092  35.7772260
  10.4461246  68.1173576  37.2752218  12.6932566  66.1630221  45.9496720
  12.3529387  65.3638034  46.3517400  11.9871573  66.4631932  45.3773553
  13.3449038  63.2479533  44.4024043  14.1675107  62.7740012  44.2802933
  13.5887102  64.0270017  44.9022729  11.9857273  66.2767792  34.6986944
  12.7065635  66.6549045  34.1950661  11.3622577  66.9956669  34.8021922
  16.1288395  66.9812941  35.6345277  16.3452010  67.8637579  35.3334105
  15.6482463  66.5899154  34.9050919  10.8687617  69.9398654  42.2116021
  10.7232198  70.2538957  43.1040303  10.3912821  70.5583554  41.6586920
  12.7284000  66.9301202  42.2596911  12.7145569  66.0342295  41.9229209
  13.4456428  66.9371866  42.8935197  14.5810130  67.3638542  44.3050038
  14.3227908  68.2855613  44.3034369  14.0495171  66.9668977  44.9950502
  12.1320896  65.8115582  37.5284481  12.2536807  64.8832228  37.7275369
  11.8422938  65.8254268  36.6162796  15.0012086  63.4970493  40.6651201
  15.0233783  63.5609826  39.7103180  15.4180145  62.6575001  40.8591707
  25.3795710  73.2325752  38.7030423  25.8226856  72.4833077  38.3049547
  24.5022221  73.2235889  38.3204155   6.1299301  71.6073895  48.0433839
   5.3881037  71.7556530  48.6298470   5.8092045  71.8682160  47.1800589
  22.4122915  77.2355799  35.7124353  22.9374239  77.5743072  34.9873673
  22.3245267  76.3002815  35.5287487  11.6161975  67.3247580  51.7374414
  11.6650131  68.2009702  51.3552183  12.1584489  66.7824973  51.1646057
  22.1016821  77.8688703  51.0175551  21.3112365  77.8512842  50.4780050
  21.8650175  78.4076997  51.7724587  22.2214696  74.7181169  48.3308279
  22.2712701  74.5531177  49.2723802  22.1128619  73.8508428  47.9406160
  19.5118458  70.7012097  49.6467586  20.4128321  70.5618562  49.3551584
  19.5866433  70.8666552  50.5865763  13.8461264  68.0778952  48.4920772
  12.9764573  68.3712518  48.2203361  14.0820744  68.6619397  49.2128036
  23.7232893  77.1378111  48.5750301  23.4317701  77.5008091  49.4113762
  23.1105024  76.4245119  48.3963633  24.9228575  74.7030991  41.0952871
  25.7575466  75.1420795  41.2590431  25.0587704  74.2269644  40.2761117
  21.9720081  72.2610725  47.0430359  22.4474203  72.4538372  46.2349210
  21.0485646  72.3169911  46.7973742   8.8603588  73.4234893  36.6261437
   8.6149630  72.5197223  36.8241647   9.0299502  73.4252043  35.6840915
  16.5500298  64.2958569  46.0086193  17.0682241  65.0319596  45.6832681
  16.1955430  64.6022562  46.8432952   8.1299235  69.1563250  34.1247599
   7.4368480  69.2307605  33.4687635   7.8850987  68.3923594  34.6469115
  16.8012892  60.7158852  41.5287089  17.0814645  60.0482041  42.1547516
  17.5863499  60.9087947  41.0161753  20.6721750  69.1376486  45.2758664
  21.6239173  69.2374583  45.2970888  20.5025200  68.3454754  45.7856749
  18.6936129  66.2232069  45.4618065  18.0986062  66.5037081  44.7664554
  18.4085826  66.7125970  46.2334806  23.1509828  72.3582605  44.3900964
  23.1186148  71.4198606  44.5760648  23.7610451  72.4366642  43.6566789
  14.9893159  71.2278658  30.4328168  15.9352263  71.0984866  30.5016586
  14.6107404  70.4893320  30.9097596  23.3004316  69.1493649  44.4359247
  22.7843365  68.3652105  44.2489176  24.1844265  68.8212365  44.6005767
  20.9615043  62.8934664  40.3955060  20.7639864  62.5849752  41.2798392
  21.5714749  63.6196303  40.5252990  28.9686378  73.4198612  43.5307001
  29.6989766  73.1583900  44.0914704  28.3593323  72.6827334  43.5709069
  27.0501675  71.5606475  44.1281452  26.3234838  71.4262440  43.5197944
  26.6348962  71.8683303  44.9338170  14.8731851  75.2796404  51.8928825
  15.7934861  75.4575003  52.0868872  14.8381434  74.3352450  51.7408524
  13.1736076  69.1528635  30.3683053  12.2667531  68.8561747  30.4445767
  13.4512057  68.8558453  29.5017340   4.0914016  70.4734998  40.8182100
   3.7716801  69.6200306  40.5256474   3.5447444  70.6883576  41.5740067
  14.7898142  63.6965524  36.5227295  13.9798870  63.3512609  36.8982541
  15.4782558  63.3873068  37.1114906  16.7188690  62.7743571  38.1451591
  17.2719728  63.1939025  38.8041614  16.9558776  61.8479319  38.1874547
  12.7421789  68.7630645  53.9254355  12.6418516  69.7125002  53.8566446
  12.5243331  68.4348884  53.0530425  11.9434860  66.0115570  30.5095033
  12.8054024  66.3370468  30.7690850  12.1285205  65.2247066  29.9968098
  20.0967497  64.8844096  37.6530256  19.5166166  65.5428900  37.2708308
  19.8303430  64.0621441  37.2417673  18.5471063  64.2849154  39.8551576
  19.0470842  64.3965688  39.0465895  19.1906671  63.9810207  40.4952384
  12.6053059  72.1927784  52.7419417  12.1220141  72.9928144  52.9483306
  12.6913998  72.2035728  51.7886861  18.8792375  67.0444187  36.7086604
  17.9918230  67.3293837  36.4906799  19.2946364  66.8837950  35.8613881
  22.2306911  67.0690708  40.4240943  23.0067301  67.5587160  40.6965560
  21.5055045  67.4948762  40.8812813  24.6679470  67.7818327  41.4814884
  25.2623961  67.5414063  40.7708192  24.7406053  67.0625457  42.1088420
  18.8533399  72.5598723  36.9236894  18.7968600  73.0167274  36.0844526
  19.4061741  71.7989407  36.7459737  22.6638205  68.3488454  37.7487013
  22.4075139  67.9485090  38.5795221  22.0391073  69.0632248  37.6237153
  26.9750542  71.0884528  40.2558305  26.4150100  71.1577717  41.0289867
  26.3694046  70.9125512  39.5357801  19.9322286  77.2471391  32.8533084
  20.7667890  76.8152589  32.6710559  19.7706629  77.0753404  33.7809978
  19.5868178  73.7503504  34.2189423  19.5316982  73.5847775  33.2777867
  18.9614233  74.4579537  34.3751613   4.3760693  68.9871568  48.0450845
   5.0219557  68.4770522  48.5338071   4.1677844  69.7240250  48.6194271
  12.8964303  63.2511613  33.7974742  12.8842973  64.1953453  33.9543012
  13.7887725  63.0681758  33.5034203  16.7116423  59.8454389  38.0520678
  15.9448819  59.2912876  38.1977361  17.1227128  59.9176258  38.9134830
   8.7158184  66.1339185  52.1425860   9.5789646  65.7775990  52.3529184
   8.1423595  65.7953080  52.8301264  31.0381677  79.1389303  45.3869056
  30.7065002  80.0084714  45.1630271  30.4427290  78.8225587  46.0663086
  32.7971987  82.0600827  44.2440280  32.1546367  82.3533361  43.5980074
  32.2926915  81.9453748  45.0493476  28.1364809  76.9858884  45.0040369
  27.7929078  77.8760526  44.9279480  28.5043771  76.7960542  44.1409954
  27.2161349  79.3563539  42.9689603  26.7126145  79.3193674  42.1557408
  27.5091956  80.2656282  43.0286259  23.3689222  78.5445726  38.0747221
  22.7153634  78.2294743  37.4503835  23.3269696  77.9221466  38.8007043
  29.9352474  76.2452443  40.1058107  30.2411351  75.3849807  39.8184022
  30.6605079  76.8370063  39.9057101  30.2054092  78.6746679  42.6042028
  29.2917172  78.9050905  42.7724235  30.6347194  78.7585123  43.4556060
  24.1842793  78.5771451  44.4024043  25.0068862  78.1031929  44.2802933
  24.4280856  79.3561935  44.9022729  25.8405841  78.8262410  40.6651201
  25.8627537  78.8901744  39.7103180  26.2573900  77.9866919  40.8591707
  27.3894052  79.6250487  46.0086193  27.9075996  80.3611514  45.6832681
  27.0349185  79.9314480  46.8432952  27.6406646  76.0450769  41.5287089
  27.9208400  75.3773958  42.1547516  28.4257253  76.2379865  41.0161753
  31.8008798  78.2226582  40.3955060  31.6033619  77.9141670  41.2798392
  32.4108503  78.9488221  40.5252990  25.6291896  79.0257442  36.5227295
  24.8192624  78.6804527  36.8982541  26.3176313  78.7164986  37.1114906
  27.5582444  78.1035489  38.1451591  28.1113483  78.5230942  38.8041614
  27.7952531  77.1771237  38.1874547  30.9361251  80.2136014  37.6530256
  30.3559920  80.8720818  37.2708308  30.6697184  79.3913359  37.2417673
  29.3864818  79.6141072  39.8551576  29.8864596  79.7257606  39.0465895
  30.0300426  79.3102124  40.4952384  35.5073224  83.1110245  41.4814884
  36.1017715  82.8705980  40.7708192  35.5799808  82.3917375  42.1088420
  27.5510177  75.1746307  38.0520678  26.7842573  74.6204794  38.1977361
  27.9620882  75.2468176  38.9134830   6.8792455  19.6101289  27.5232063
   6.1256163  19.0408687  27.3676068   7.0139996  19.5763954  28.4702698
   0.9556600  19.7629926  24.6334207   0.8174499  19.9531522  23.7055396
   0.5992819  20.5249309  25.0902258   0.9825980  21.8306453  29.6445478
   1.4162487  21.7381742  30.4928532   1.6957561  21.8063953  29.0065494
   1.8441530  21.8730154  32.1778363   2.0377420  22.7775964  32.4237638
   1.7442148  21.4137573  33.0116948   3.0983593  18.4303820  28.8226267
   3.0873469  19.3128536  28.4520200   2.2300972  18.0775371  28.6280804
   3.7008203  19.5804040  25.4275730   4.1439349  18.8311365  25.0294853
   2.8234713  19.5714176  25.0449462   0.7335407  23.5834087  22.4369659
   1.2586731  23.9221359  21.7118979   0.6457760  22.6481102  22.2532794
   0.5427188  21.0659457  35.0553586   0.5925193  20.9009464  35.9969109
   0.4341112  20.1986716  34.6651467   2.0445385  23.4856398  35.2995607
   1.7530193  23.8486379  36.1359068   1.4317516  22.7723406  35.1208940
   3.2441067  21.0509278  27.8198178   4.0787959  21.4899082  27.9835738
   3.3800196  20.5747931  27.0006423   1.4722320  18.7060892  31.1146271
   1.4398640  17.7676893  31.3005955   2.0822944  18.7844929  30.3812096
   1.6216809  15.4971936  31.1604554   1.1055857  14.7130393  30.9734483
   2.5056757  15.1690653  31.3251073   7.2898870  19.7676899  30.2552307
   8.0202258  19.5062187  30.8160011   6.6805815  19.0305621  30.2954375
   5.3714167  17.9084762  30.8526759   4.6447331  17.7740727  30.2443250
   4.9561454  18.2161591  31.6583477   2.9891962  14.1296614  28.2060190
   3.5836453  13.8892350  27.4953499   3.0618546  13.4103745  28.8333727
   0.9850697  14.6966742  24.4732320   0.7287631  14.2963377  25.3040528
   0.3603565  15.4110536  24.3482459   5.2963035  17.4362815  26.9803611
   4.7362593  17.5056004  27.7535174   4.6906538  17.2603800  26.2603108
   6.8819053  34.1119329  29.6733567   7.5197463  33.9926076  28.9696907
   6.7639896  35.0600173  29.7321519   3.6908759  34.0646757  29.6095092
   3.3527271  33.9487822  28.7215627   4.5598528  33.6637922  29.5896098
   4.1728542  35.2181609  35.5681297   4.1617183  34.8234407  34.6961801
   4.3349182  34.4847681  36.1615069   5.1295134  39.5853201  20.9106448
   4.4783114  40.1707282  20.5240462   5.9239497  40.1159396  20.9701485
   0.8935804  38.0018721  34.5160481   0.6025670  38.9064351  34.4007148
   1.5292788  38.0435248  35.2304551   1.8192010  35.3795569  31.1061841
   2.4155583  35.1551591  30.3918804   1.8766982  34.6380315  31.7087289
   1.3917039  32.8335004  18.9412032   1.6442560  32.3116526  18.1795495
   0.4541598  32.6701150  19.0438716   6.4360322  31.8370783  26.7486775
   7.2223411  31.4190206  26.3977192   6.6999026  32.7416875  26.9168424
   6.6070399  37.2743633  21.4475432   5.9716232  37.3478260  22.1596337
   6.2767805  37.8637232  20.7694511  11.8368749  31.7746016  27.6519754
  12.5693921  31.2045233  27.8857583  11.0808105  31.3867616  28.0926259
   1.1113328  34.7363110  21.1436407   0.9949586  34.0608014  21.8117491
   1.2215587  34.2495484  20.3268560   3.4544869  34.1973257  24.8483096
   3.0903076  33.6703878  25.5596018   4.3111984  33.8071726  24.6749582
   9.3594169  25.4867590  32.1114362   9.0277494  26.3563001  31.8875577
   8.7639783  25.1703874  32.7908393   3.0950356  29.2263157  19.8444445
   3.2624758  30.0943394  20.2114916   2.9047525  29.3890439  18.9205734
   5.8525689  37.6880136  31.5110275   5.5526412  38.5905175  31.4026082
   5.5076748  37.4212319  32.3631428   9.2522832  30.2062676  29.1907712
   8.3439710  30.1378085  28.8966473   9.2010428  30.6834621  30.0189538
   3.0739576  31.6820815  20.8291112   2.9539202  32.1277865  21.6676592
   2.3792165  32.0306132  20.2704650   3.3263698  31.6252322  37.1342610
   2.5497032  32.1846242  37.1245474   3.9654261  32.1109105  37.6557480
  11.1184479  28.4079115  30.9685586  10.4758859  28.7011648  30.3225381
  10.6139407  28.2932035  31.7738783   8.7724643  32.1542288  21.6571446
   9.6842499  32.3869675  21.4819143   8.2634290  32.7379332  21.0946524
   1.5810071  34.4337775  36.6960577   2.3224755  34.9722819  36.4195400
   0.8747056  35.0604064  36.8532128   7.0565410  36.5766916  35.2932738
   7.4648766  36.1349326  34.5487371   6.3342672  36.0019543  35.5466931
   3.4096480  31.5139522  32.6666295   4.2557675  31.9378936  32.8100944
   3.3495118  30.8573147  33.3604858   7.3794225  37.1368106  29.0485027
   6.7503087  37.3013820  28.3461095   6.9919887  37.5509716  29.8195991
  11.2583457  38.0722544  26.4029391  10.5734495  38.4521445  25.8526424
  11.3427306  38.6817871  27.1361339   6.5595926  29.1743891  34.3247469
   6.3156857  29.9285951  33.7881744   6.8355856  29.5529238  35.1594716
   8.5134388  35.7182503  33.0024734   8.7251284  36.3614263  32.3259115
   8.4664137  34.8844820  32.5346664   6.1160617  28.3300324  29.9061306
   5.2545096  28.6281577  30.1978044   6.1423052  28.5470723  28.9742339
   2.9322187  36.8742514  26.3135112   3.3960532  37.1530217  25.5239735
   2.6678985  35.9725959  26.1308203   1.8691073  32.9965667  23.1224677
   2.5715116  33.4486710  23.5898604   1.5371701  32.3549486  23.7504570
   9.6280216  38.5954459  31.1747092  10.4497660  38.1934646  30.8929773
   9.6242619  38.4922693  32.1263207   3.3936820  38.1438502  33.3307802
   3.4581252  38.6058909  34.1665974   2.6847744  37.5135867  33.4590112
  17.7186209  34.9393207  27.5232063  16.9649918  34.3700605  27.3676068
  17.8533751  34.9055872  28.4702698   3.1084837  39.8106609  23.1986783
   2.9730512  40.6558145  23.6271630   3.6494650  40.0125887  22.4352716
   2.5120138  27.3056068  37.4521394   3.2529851  27.9063221  37.3725857
   2.7438061  26.5633706  36.8939437   4.7353314  40.4330176  37.3287125
   4.2917168  39.6466554  37.0108029   5.3970527  40.6209326  36.6631015
   6.8334552  40.7132976  35.3568526   6.8153027  41.5341857  34.8648795
   7.7554472  40.5887051  35.5818667   3.2907606  38.2277105  36.1992034
   3.8235943  37.4665393  35.9691342   2.7621687  37.9350757  36.9416189
   6.4577301  23.3337171  31.7285676   6.1141570  24.2238813  31.6524787
   6.8256264  23.1438829  30.8655261   6.4227584  33.3245782  20.2358111
   5.9074207  34.0950387  20.4746498   6.1504892  32.6510918  20.8591173
   4.0074695  28.1695483  25.2943349   3.1516291  27.7802333  25.1148988
   4.4201646  28.2487444  24.4343135   5.5373841  25.7041826  29.6934909
   5.0338637  25.6671962  28.8802715   5.8304448  26.6134569  29.7531566
   1.7816727  25.7880556  28.7001091   2.6469724  25.5923365  28.3406980
   1.8494236  25.5590908  29.6270448  11.3961858  36.0778137  22.1711285
  10.6191301  35.7389296  21.7266447  12.0753339  36.0830760  21.4966250
   6.2113887  31.1972874  22.0617892   5.9064022  31.5119024  22.9128035
   7.1644329  31.2754294  22.1045225   4.6560319  37.3563098  23.7110846
   4.1281680  36.6215857  23.3984084   4.1547821  38.1337774  23.4650815
   9.6353165  35.5512118  28.8277893   8.9776839  36.2411380  28.9158021
  10.4393564  35.9408550  29.1711879   8.4458624  33.9056491  26.8781834
   8.9590505  34.5386483  27.3803544   9.0959847  33.3057686  26.5125194
   1.6901714  24.8924013  24.7992527   1.0366126  24.5773030  24.1749142
   1.6482188  24.2699753  25.5252350   2.8012919  35.1743308  16.7145819
   1.8939981  34.9432561  16.9136968   3.2983951  34.3780927  16.9019801
   5.7080998  43.8840815  19.6342505   5.0342697  44.1872512  20.2427463
   6.0946820  44.6869896  19.2847963   4.9239454  31.3805946  29.1240175
   4.0062016  31.6020893  28.9661863   5.3399598  31.4552257  28.2651882
   5.7074502  32.7797362  24.2542855   6.4546321  33.2918759  23.9449977
   5.9766092  32.4581415  25.1147249   3.9801152  35.2755903  21.2369809
   3.0712372  34.9914936  21.3342279   4.0096236  35.6954981  20.3773116
   9.2120420  38.8862492  25.0060977   8.7582747  38.0453402  25.0626167
   8.5814386  39.5223891  25.3435757   8.1553339  29.8154478  26.2361644
   7.4176096  29.3031865  26.5671887   8.4080113  29.3754860  25.4244921
   7.6553359  40.7238989  25.9410795   7.9476333  41.2844046  25.2223161
   8.1651980  41.0167550  26.6963954   8.2564967  22.5930730  26.8303414
   8.5623843  21.7328094  26.5429329   8.9817571  23.1848351  26.6302408
   2.5286046  32.8884523  27.3379605   2.5834656  31.9358360  27.2622081
   1.7177248  33.0443963  27.8220903   3.6777240  36.8164647  18.5757888
   3.2396670  36.1000505  18.1163525   4.4187681  37.0440761  18.0142979
   2.6186984  41.5019340  27.0304248   2.5763163  41.7280186  26.1012780
   3.5349683  41.2682715  27.1790049   6.0652618  31.9703408  33.9284877
   6.4202006  32.1974881  34.7879343   6.7124749  32.3021784  33.3062133
  11.7950355  35.0921844  24.6334207  11.6568254  35.2823440  23.7055396
  11.4386574  35.8541226  25.0902258  11.8219735  37.1598371  29.6445478
  12.2556241  37.0673660  30.4928532  12.5351315  37.1355871  29.0065494
   5.5547629  40.7600465  31.1778579   5.6084652  41.3291401  31.9456295
   4.6862411  40.9302350  30.8132616  12.6835284  37.2022071  32.1778363
  12.8771174  38.1067882  32.4237638  12.5835902  36.7429490  33.0116948
   4.3371595  27.0879962  34.6768691   3.6899510  27.7869911  34.5833167
   5.1072610  27.5216106  35.0444939   7.7450393  37.3528814  37.7519244
   7.5935899  37.1239366  36.8349328   7.7355072  38.3099415  37.7650589
   4.5135729  34.9260727  32.7365510   5.4427789  35.0771886  32.5634478
   4.0926759  35.0144748  31.8814157   3.3124061  38.9511391  30.5064048
   3.1735147  38.5830176  31.3789986   2.5238657  39.4659031  30.3348006
   3.9072213  44.0520488  21.8489585   4.0823969  43.5808531  22.6635207
   3.2205001  44.6786254  22.0770845   4.8629276  38.3292994  27.8952886
   4.5279109  38.2893764  28.7910536   4.3633222  37.6637710  27.4223296
   7.7988468  35.6749028  18.1689946   7.1817638  34.9495856  18.0722998
   7.3304956  36.4358388  17.8257020   1.4655821  33.4480583  32.9089147
   2.1755439  32.8073775  32.8675765   1.4225129  33.6993478  33.8315327
   9.4542599  40.3847937  35.8295726   9.3955146  39.7007157  35.1626309
   9.8562118  41.1266927  35.3776352   9.4560007  38.3487520  34.0609706
   8.5686785  38.0113442  34.1836104  10.0258558  37.6170552  34.2978471
   2.9861160  43.0088973  31.0270949   2.9131332  43.8143944  31.5390253
   2.5438553  43.2080939  30.2018970   2.7750940  42.2460743  24.5373770
   1.9918462  42.7882423  24.6311995   3.4743685  42.7634722  24.9368011
   6.0847590  28.0555372  27.1807976   6.5816289  27.3025335  26.8609046
   5.3134571  28.0919689  26.6151185  13.9377347  33.7595738  28.8226267
  13.9267223  34.6420453  28.4520200  13.0694727  33.4067289  28.6280804
   5.4459844  42.9075807  33.1829107   6.1587816  43.5423272  33.1105009
   4.9549872  43.0039673  32.3669109   7.1677370  36.8127060  24.7546399
   6.2333649  36.9328522  24.5851103   7.3454039  35.9099526  24.4906409
   2.6682559  30.1972755  26.9079660   2.2980346  29.6443796  27.5960566
   3.1641651  29.5930889  26.3554660  10.5549922  32.6544379  25.2896433
  11.0210374  33.4872370  25.2156736  11.0057422  32.1889360  25.9941692
   8.6226153  38.9988200  22.2882585   8.8985997  38.8844795  23.1976459
   7.7530652  38.6005685  22.2494758   8.5266585  25.0224966  29.3287335
   7.6129664  25.2529193  29.4969542   8.9559686  25.1063410  30.1801367
   8.2973043  33.2114858  31.8287229   7.6444493  33.4590765  31.1739681
   8.6753423  32.3978996  31.4949706   5.2580217  43.2474551  25.9315399
   5.4402612  42.4296207  26.3943151   6.0813203  43.4642243  25.4940289
   5.5922382  42.1742736  23.1930447   6.1210149  41.6635191  22.5800609
   5.8550602  41.8585266  24.0575980   4.3460616  33.9534669  38.3153266
   3.6701253  33.8528798  38.9855641   5.1688250  33.7973883  38.7789263
   3.0883399  45.2601596  32.5510882   3.6401707  45.4233218  33.3159967
   3.4289592  45.8506034  31.8790907   7.9394273  40.0862854  38.4059536
   8.4834177  40.6992812  37.9114491   7.3581118  40.6442432  38.9226549
   6.2251786  43.2083572  29.5374564   6.1002926  42.4073312  29.0285509
   6.8830877  43.7029765  29.0488534   8.2886695  41.0092592  31.1654114
   7.3417030  40.8897943  31.0932441   8.6369468  40.1215090  31.2480375
   0.6486268  26.8986731  34.9892356   1.1720670  27.1449027  35.7518665
   0.4298601  27.7306766  34.5695493   5.2933128  40.8045308  27.3658466
   5.1458090  39.8762016  27.5466036   6.1186621  40.8265399  26.8815541
   8.8967250  41.6273867  28.4523339   9.8213797  41.4216728  28.3147790
   8.7282553  41.3790268  29.3612680   1.8538813  27.8400426  32.6742026
   1.5135633  27.0408239  33.0762706   1.1477819  28.1402137  32.1018860
   2.5055285  24.9249738  31.1269349   3.3281354  24.4510217  31.0048240
   2.7493348  25.7040222  31.6268036   1.1463519  27.9537997  21.4232251
   1.8671882  28.3319250  20.9195968   0.5228824  28.6726874  21.5267229
   5.2894642  28.6583146  22.3590583   5.5058257  29.5407784  22.0579412
   4.8088709  28.2669359  21.6296225   1.8890247  28.6071407  28.9842218
   1.8751815  27.7112500  28.6474515   2.6062675  28.6142071  29.6180504
   3.7416377  29.0408747  31.0295345   3.4834155  29.9625818  31.0279675
   3.2101418  28.6439182  31.7195809   8.6862566  42.1459534  23.8085430
   8.8599444  41.5805957  23.0559283   9.1791457  42.9460429  23.6264920
   1.2927142  27.4885787  24.2529788   1.4143054  26.5602433  24.4520675
   1.0029185  27.5024473  23.3408103   4.1618333  25.1740698  27.3896508
   4.1840030  25.2380031  26.4348487   4.5786392  24.3345206  27.5837014
  14.5401957  34.9095957  25.4275730  14.9833103  34.1603282  25.0294853
  13.6628467  34.9006094  25.0449462   9.6737738  41.4626299  20.9082329
  10.3688643  42.0832991  21.1269643  10.0160889  40.6121650  21.1834707
  11.5729162  38.9126004  22.4369659  12.0980486  39.2513277  21.7118979
  11.4851514  37.9773020  22.2532794   3.2349210  42.8260078  34.5659536
   3.5436337  42.5809225  35.4382236   4.0324692  43.0306716  34.0778406
   3.2569822  44.9797987  26.7964913   2.8174813  44.4874366  27.4897769
   4.0077939  44.4370955  26.5556988   0.7768222  29.0017785  38.4619720
   0.8256377  29.8779907  38.0797490   1.3190736  28.4595178  37.8891364
  11.2623068  39.5458908  37.7420857  10.4718611  39.5283047  37.2025357
  11.0256422  40.0847202  38.4969894  11.3820943  36.3951374  35.0553586
  11.4318948  36.2301382  35.9969109  11.2734866  35.5278633  34.6651467
   8.6724705  32.3782302  36.3712893   9.5734568  32.2388767  36.0796890
   8.7472680  32.5436757  37.3111070   3.0067510  29.7549157  35.2166079
   2.1370820  30.0482723  34.9448667   3.2426991  30.3389602  35.9373343
  14.0834822  36.3801196  27.8198178  14.9181713  36.8191000  27.9835738
  14.2193951  35.9039849  27.0006423  11.1326328  33.9380930  33.7675665
  11.6080449  34.1308577  32.9594517  10.2091893  33.9940116  33.5219049
   5.7106544  25.9728774  32.7331499   6.2288488  26.7089801  32.4077988
   5.3561677  26.2792767  33.5678258   5.9619138  22.3929056  28.2532396
   6.2420892  21.7252246  28.8792822   6.7469745  22.5858152  27.7407060
   3.7652607  41.5688050  19.8157422   3.1926574  42.1878237  19.3627894
   4.3385401  42.1187412  20.3497344   9.8327997  30.8146690  32.0003971
  10.7845420  30.9144788  32.0216195   9.6631447  30.0224959  32.5102055
   7.8542376  27.9002274  32.1863372   7.2592308  28.1807286  31.4909861
   7.5692073  28.3896175  32.9580113   6.9849867  41.8525200  20.9466005
   7.9180540  41.7870762  21.1498880   6.8973080  42.6881467  20.4880537
   9.6137883  41.1691071  17.9069952   9.5351515  40.8350934  18.8005710
  10.4347550  41.6612839  17.9061424  12.3116075  34.0352810  31.1146271
  12.2792395  33.0968811  31.3005955  12.9216698  34.1136847  30.3812096
   4.1499405  32.9048863  17.1573475   5.0958510  32.7755071  17.2261893
   3.7713650  32.1663525  17.6342903  12.4610563  30.8263854  31.1604554
  11.9449612  30.0422310  30.9734483  13.3450512  30.4982570  31.3251073
  10.1221290  24.5704869  27.1200367   9.9246111  24.2619957  28.0043699
  10.7320996  25.2966508  27.2498296  18.1292624  35.0968817  30.2552307
  18.8596013  34.8354105  30.8160011  17.5199570  34.3597539  30.2954375
  16.2107922  33.2376680  30.8526759  15.4841085  33.1032645  30.2443250
  15.7955208  33.5453508  31.6583477   4.0338098  36.9566609  38.6174132
   4.9541107  37.1345208  38.8114178   3.9987681  36.0122655  38.4653831
   2.3342323  30.8298840  17.0928360   1.4273778  30.5331952  17.1691074
   2.6118304  30.5328658  16.2262646   3.9504388  25.3735729  23.2472601
   3.1405117  25.0282814  23.6227847   4.6388805  25.0643273  23.8360213
   5.8794937  24.4513776  24.8696898   6.4325975  24.8709229  25.5286921
   6.1165023  23.5249524  24.9119854   1.9028036  30.4400850  40.6499662
   1.8024763  31.3895207  40.5811753   1.6849578  30.1119089  39.7775732
   1.1041107  27.6885775  17.2340339   1.9660271  28.0140673  17.4936157
   1.2891451  26.9017271  16.7213405   9.2573744  26.5614301  24.3775562
   8.6772413  27.2199105  23.9953615   8.9909676  25.7391646  23.9662980
   7.7077310  25.9619359  26.5796882   8.2077088  26.0735893  25.7711201
   8.3512918  25.6580412  27.2197691   1.7659306  33.8697989  39.4664723
   1.2826388  34.6698349  39.6728612   1.8520245  33.8805933  38.5132167
   8.0398622  28.7214392  23.4331910   7.1524477  29.0064042  23.2152105
   8.4552611  28.5608155  22.5859187  11.3913158  28.7460913  27.1486250
  12.1673548  29.2357365  27.4210866  10.6661292  29.1718967  27.6058119
  13.8285716  29.4588532  28.2060190  14.4230207  29.2184268  27.4953499
  13.9012300  28.7395662  28.8333727   7.1841835  38.4859066  17.5279930
   7.8877685  38.6909069  18.1437586   6.4604484  39.0535828  17.7929014
   8.0139645  34.2368927  23.6482201   7.9574847  34.6937479  22.8089833
   8.5667988  33.4759612  23.4705043  11.8244451  30.0258659  24.4732320
  11.5681386  29.6255295  25.3040528  11.1997319  30.7402453  24.3482459
  16.1356789  32.7654733  26.9803611  15.5756347  32.8347922  27.7535174
  15.5300293  32.5895717  26.2603108   9.0928533  38.9241595  19.5778390
   9.9274137  38.4922794  19.3955865   8.9312876  38.7523609  20.5055285
   8.7474425  35.4273709  20.9434730   8.6923229  35.2617980  20.0023174
   8.1220480  36.1349742  21.0996919   6.0620332  37.7322621  40.2688293
   6.9311492  37.9063273  39.9074927   5.5827083  38.5517037  40.1464022
   2.0570550  24.9281818  20.5220048   2.0449220  25.8723658  20.6788319
   2.9493972  24.7451963  20.2279509   1.9860114  43.6050708  28.6087805
   1.0355745  43.6052570  28.4952177   2.2892600  42.8583443  28.0923839
   5.8722670  21.5224594  24.7765985   5.1055065  20.9683081  24.9222667
   6.2833375  21.5946463  25.6380137  17.7212808  49.4411247  29.6733567
  18.3591218  49.3217994  28.9696907  17.6033651  50.3892091  29.7321519
  14.5302514  49.3938675  29.6095092  14.1921025  49.2779739  28.7215627
  15.3992282  48.9929840  29.5896098  10.3889330  51.2474151  25.5991983
   9.8254195  51.1564088  24.8308271  10.2741725  50.4274056  26.0794475
  15.0122297  50.5473526  35.5681297  15.0010938  50.1526325  34.6961801
  15.1742936  49.8139599  36.1615069   7.9353762  52.7425343  28.4376203
   8.7275054  52.4016167  28.0222503   8.1750412  52.8520318  29.3578357
  15.9688888  54.9145119  20.9106448  15.3176868  55.4999199  20.5240462
  16.7633251  55.4451314  20.9701485   9.8944516  52.0034256  21.3093582
  10.6675392  51.4563243  21.1706458  10.2469914  52.8678505  21.5208043
  11.7329558  53.3310638  34.5160481  11.4419424  54.2356269  34.4007148
  12.3686542  53.3727166  35.2304551  12.6585765  50.7087487  31.1061841
  13.2549337  50.4843509  30.3918804  12.7160736  49.9672232  31.7087289
  12.2310793  48.1626922  18.9412032  12.4836314  47.6408443  18.1795495
  11.2935352  47.9993067  19.0438716  17.2754076  47.1662700  26.7486775
  18.0617165  46.7482124  26.3977192  17.5392780  48.0708793  26.9168424
  17.4464154  52.6035551  21.4475432  16.8109987  52.6770177  22.1596337
  17.1161560  53.1929150  20.7694511  11.9507082  50.0655028  21.1436407
  11.8343340  49.3899931  21.8117491  12.0609342  49.5787402  20.3268560
  14.2938623  49.5265175  24.8483096  13.9296830  48.9995796  25.5596018
  15.1505739  49.1363644  24.6749582  13.9344110  44.5555075  19.8444445
  14.1018512  45.4235311  20.2114916  13.7441279  44.7182356  18.9205734
  16.6919443  53.0172054  31.5110275  16.3920166  53.9197093  31.4026082
  16.3470503  52.7504237  32.3631428  10.1431925  49.4685851  27.5446980
   9.2182421  49.3362065  27.7524671  10.3916338  50.2480070  28.0416922
  20.0916587  45.5354594  29.1907712  19.1833464  45.4670002  28.8966473
  20.0404183  46.0126539  30.0189538  13.9133331  47.0112732  20.8291112
  13.7932956  47.4569783  21.6676592  13.2185919  47.3598050  20.2704650
   7.5040736  49.1119124  28.3790769   7.6333117  49.3653603  29.2930180
   6.8238187  49.7046832  28.0595424  11.6740223  59.7816374  24.4781243
  11.5964253  60.7324199  24.5569723  11.0701867  59.4362247  25.1356169
  19.6118397  47.4834205  21.6571446  20.5236253  47.7161592  21.4819143
  19.1028044  48.0671250  21.0946524  12.4203825  49.7629693  36.6960577
  13.1618509  50.3014737  36.4195400  11.7140811  50.3895982  36.8532128
  17.8959165  51.9058833  35.2932738  18.3042521  51.4641244  34.5487371
  17.1736426  51.3311461  35.5466931  14.2490235  46.8431440  32.6666295
  15.0951430  47.2670854  32.8100944  14.1888872  46.1865064  33.3604858
  18.2187979  52.4660024  29.0485027  17.5896842  52.6305738  28.3461095
  17.8313641  52.8801633  29.8195991  19.3528143  51.0474421  33.0024734
  19.5645038  51.6906181  32.3259115  19.3057891  50.2136737  32.5346664
  16.9554372  43.6592241  29.9061306  16.0938851  43.9573495  30.1978044
  16.9816806  43.8762640  28.9742339  13.7715941  52.2034432  26.3135112
  14.2354287  52.4822135  25.5239735  13.5072739  51.3017877  26.1308203
  10.6640022  51.7505914  29.2514875  11.2341379  52.1793182  28.6132360
  11.2548134  51.4688498  29.9499061  12.7084827  48.3257584  23.1224677
  13.4108871  48.7778628  23.5898604  12.3765456  47.6841403  23.7504570
  11.1565189  46.9169341  37.4975887  10.5263849  47.5985622  37.7311284
  11.0501277  46.8052423  36.5529025   6.4510161  46.5841137  28.4241811
   5.6609215  46.8398666  27.9481921   6.9421409  47.3989475  28.5293851
  20.4673971  53.9246376  31.1747092  21.2891415  53.5226563  30.8929773
  20.4636374  53.8214610  32.1263207   8.4024907  46.9485716  25.3825288
   7.6056070  47.0604411  25.9008783   8.1750499  47.2872369  24.5166178
  14.2330574  53.4730420  33.3307802  14.2975007  53.9350827  34.1665974
  13.5241498  52.8427784  33.4590112   4.7347864  46.8371627  30.8556802
   4.9855903  47.7218637  31.1214378   5.2707413  46.6576229  30.0831893
  13.9478592  55.1398527  23.1986783  13.8124267  55.9850063  23.6271630
  14.4888404  55.3417805  22.4352716  10.4345932  41.2190107  39.8601138
  10.0412877  40.6656305  40.5348782  11.2512072  41.5300685  40.2507655
   7.4007989  52.6573965  23.7714708   7.9132510  53.4517215  23.9220272
   8.0530702  51.9600255  23.7048309   9.2102874  55.7739721  25.8537461
   9.3869502  56.6957686  25.6658445  10.0059708  55.4598141  26.2831841
   8.4955231  47.8204353  35.7299624   8.3808746  46.9189610  36.0306723
   7.6399748  48.0668050  35.3784441  15.5747068  55.7622094  37.3287125
  15.1310922  54.9758472  37.0108029  16.2364282  55.9501244  36.6631015
  10.3334189  57.2917895  31.8547803  10.8841615  57.1634958  31.0824797
   9.4945665  57.5912784  31.5042696  17.6728306  56.0424893  35.3568526
  17.6546782  56.8633774  34.8648795  18.5948226  55.9178969  35.5818667
  14.1301361  53.5569023  36.1992034  14.6629697  52.7957311  35.9691342
  13.6015442  53.2642675  36.9416189   5.3656906  50.9862619  24.5474278
   6.2032128  51.3959628  24.3307986   5.5435174  50.0462061  24.5174472
  17.2621338  48.6537700  20.2358111  16.7467962  49.4242305  20.4746498
  16.9898647  47.9802836  20.8591173  14.8468449  43.4987401  25.2943349
  13.9910046  43.1094251  25.1148988  15.2595401  43.5779362  24.4343135
  16.3767596  41.0333744  29.6934909  15.8732391  40.9963879  28.8802715
  16.6698203  41.9426487  29.7531566  12.6210482  41.1172474  28.7001091
  13.4863479  40.9215282  28.3406980  12.6887991  40.8882826  29.6270448
  17.0507641  46.5264792  22.0617892  16.7457777  46.8410941  22.9128035
  18.0038083  46.6046212  22.1045225  15.4954073  52.6855015  23.7110846
  14.9675435  51.9507775  23.3984084  14.9941576  53.4629692  23.4650815
  10.2272801  43.3474682  26.0717458  10.8016553  43.1249863  25.3390651
  10.8143783  43.4163376  26.8246059  19.2852378  49.2348409  26.8781834
  19.7984260  49.8678400  27.3803544  19.9353602  48.6349604  26.5125194
  10.5542388  45.3779143  20.0913343   9.7179700  45.7153829  20.4122618
  10.4147158  45.2428123  19.1540480  12.5295469  40.2215931  24.7992527
  11.8759881  39.9064948  24.1749142  12.4875943  39.5991671  25.5252350
  13.6406673  50.5035226  16.7145819  12.7333735  50.2724479  16.9136968
  14.1377705  49.7072845  16.9019801  16.5474752  59.2132733  19.6342505
  15.8736451  59.5164430  20.2427463  16.9340574  60.0161813  19.2847963
  15.7633209  46.7097864  29.1240175  14.8455770  46.9312811  28.9661863
  16.1793353  46.7844175  28.2651882  16.5468257  48.1089280  24.2542855
  17.2940076  48.6210677  23.9449977  16.8159846  47.7873333  25.1147249
  14.8194907  50.6047821  21.2369809  13.9106126  50.3206853  21.3342279
  14.8489991  51.0246899  20.3773116  20.0514174  54.2154410  25.0060977
  19.5976501  53.3745320  25.0626167  19.4208141  54.8515808  25.3435757
  18.9947094  45.1446396  26.2361644  18.2569851  44.6323782  26.5671887
  19.2473867  44.7046778  25.4244921  18.4947113  56.0530907  25.9410795
  18.7870088  56.6135964  25.2223161  19.0045734  56.3459468  26.6963954
  19.0958721  37.9222648  26.8303414  19.4017598  37.0620011  26.5429329
  19.8211326  38.5140268  26.6302408   5.3883077  48.3253335  25.2185012
   5.1907477  47.7322695  24.4936078   4.8329741  48.0205545  25.9360950
  13.3679801  48.2176441  27.3379605  13.4228411  47.2650278  27.2622081
  12.5571003  48.3735880  27.8220903  14.5170995  52.1456564  18.5757888
  14.0790425  51.4292423  18.1163525  15.2581435  52.3732679  18.0142979
  11.3072161  46.8353501  25.0969984  10.4940026  47.1347671  25.5035176
  11.8031155  46.4409190  25.8144466  13.4580739  56.8311258  27.0304248
  13.4156917  57.0572104  26.1012780  14.3743438  56.5974632  27.1790049
  10.7986236  44.4071856  30.7131219  11.4385615  44.2660615  30.0154182
   9.9663766  44.1206370  30.3369821  11.5746539  53.7074287  26.8266211
  12.3687138  53.2124607  26.6248786  10.8638232  53.1792150  26.4633917
  16.3941384  56.0892382  31.1778579  16.4478406  56.6583319  31.9456295
  15.5256165  56.2594267  30.8132616   7.8829303  47.8517369  22.9025964
   6.9526891  47.7901824  23.1195926   7.9786775  47.3293321  22.1062605
   7.8014852  44.3772181  25.4904205   8.0621669  45.2917515  25.3813366
   8.6232024  43.9096624  25.6400818   9.2739777  45.7909939  32.6603030
   9.9462831  45.5827301  32.0115679   8.4469564  45.5932025  32.2208262
  23.5229039  52.5313989  32.1778363  23.7164929  53.4359799  32.4237638
  23.4229657  52.0721408  33.0116948  15.1765349  42.4171879  34.6768691
  14.5293264  43.1161829  34.5833167  15.9466365  42.8508023  35.0444939
  18.5844147  52.6820732  37.7519244  18.4329654  52.4531283  36.8349328
  18.5748827  53.6391333  37.7650589  15.3529484  50.2552644  32.7365510
  16.2821544  50.4063804  32.5634478  14.9320514  50.3436665  31.8814157
  14.1517815  54.2803309  30.5064048  14.0128901  53.9122093  31.3789986
  13.3632412  54.7950948  30.3348006  14.7465967  59.3812405  21.8489585
  14.9217723  58.9100448  22.6635207  14.0598755  60.0078171  22.0770845
  15.7023031  53.6584911  27.8952886  15.3672863  53.6185681  28.7910536
  15.2026976  52.9929627  27.4223296   9.6767275  49.0652542  33.4205467
   9.5387072  48.3332780  34.0217006  10.5872198  48.9761442  33.1389655
  18.6382222  51.0040946  18.1689946  18.0211393  50.2787774  18.0722998
  18.1698711  51.7650306  17.8257020  12.3049575  48.7772501  32.9089147
  13.0149194  48.1365693  32.8675765  12.2618883  49.0285396  33.8315327
  20.2936354  55.7139854  35.8295726  20.2348900  55.0299074  35.1626309
  20.6955872  56.4558844  35.3776352  11.0178509  45.7637719  34.7284786
  10.4815866  45.3128457  35.3806382  10.4295218  45.8983628  33.9855251
   9.3127053  62.5301768  28.6229445   9.5523651  63.1620292  29.3008463
   8.4696249  62.1789808  28.9094804  10.4280768  45.2226370  17.2911250
   9.5510234  45.1015171  16.9273496  10.9038521  44.4312448  17.0390138
  20.2953761  53.6779438  34.0609706  19.4080540  53.3405360  34.1836104
  20.8652312  52.9462469  34.2978471   1.9482908  50.0103530  27.3852757
   2.6353948  49.6965260  26.7973772   1.7931037  50.9144895  27.1120008
   6.7517630  44.8993726  31.8137781   6.6675819  44.2919396  31.0788191
   5.9300337  45.3902745  31.8147277  13.8254915  58.3380890  31.0270949
  13.7525086  59.1435862  31.5390253  13.3832308  58.5372856  30.2018970
  13.6144694  57.5752661  24.5373770  12.8312216  58.1174341  24.6311995
  14.3137439  58.0926640  24.9368011  16.9241344  43.3847290  27.1807976
  17.4210044  42.6317252  26.8609046  16.1528326  43.4211607  26.6151185
  16.2853598  58.2367725  33.1829107  16.9981570  58.8715189  33.1105009
  15.7943627  58.3331591  32.3669109  18.0071125  52.1418977  24.7546399
  17.0727404  52.2620440  24.5851103  18.1847793  51.2391444  24.4906409
  13.5076313  45.5264673  26.9079660  13.1374101  44.9735713  27.5960566
  14.0035406  44.9222806  26.3554660  11.3365512  55.9862168  34.0034678
  12.0374971  56.6198651  34.1564072  10.8660627  56.3276900  33.2430318
  19.4619907  54.3280118  22.2882585  19.7379751  54.2136712  23.1976459
  18.5924406  53.9297603  22.2494758  19.1366798  48.5406775  31.8287229
  18.4838248  48.7882683  31.1739681  19.5147177  47.7270914  31.4949706
  16.0973971  58.5766469  25.9315399  16.2796366  57.7588125  26.3943151
  16.9206957  58.7934161  25.4940289  16.4316137  57.5034654  23.1930447
  16.9603903  56.9927108  22.5800609  16.6944357  57.1877184  24.0575980
   6.9333230  55.5198523  30.9365781   7.5186666  54.7742211  31.0693685
   6.7358068  55.8302480  31.8202445   9.7871885  58.5549770  25.9528223
   9.1182260  59.0395898  25.4692263   9.6484755  58.8018991  26.8671602
   1.5250884  48.0904123  29.6570224   1.5634984  47.5567714  30.4507342
   1.0191177  47.5639329  29.0381201  13.9277153  60.5893514  32.5510882
  14.4795462  60.7525135  33.3159967  14.2683347  61.1797952  31.8790907
   8.9041647  42.9368664  33.1532766   8.9682973  43.7983495  32.7410164
   8.8408767  42.3242665  32.4205125   8.3793919  45.0091796  36.8005801
   9.0065958  44.6268874  37.4143325   7.5221838  44.7905998  37.1661493
  18.7788028  55.4154771  38.4059536  19.3227932  56.0284730  37.9114491
  18.1974873  55.9734350  38.9226549   5.1559462  46.8168225  22.7324155
   5.4512903  45.9078904  22.6791209   4.2547498  46.7955965  22.4105158
  17.0645541  58.5375489  29.5374564  16.9396680  57.7365229  29.0285509
  17.7224632  59.0321683  29.0488534   8.6853709  44.8924222  28.7151704
   7.9640295  45.5060190  28.5759177   9.4746965  45.4281987  28.6368350
  19.1280449  56.3384510  31.1654114  18.1810785  56.2189861  31.0932441
  19.4763222  55.4507008  31.2480375  11.4880023  42.2278648  34.9892356
  12.0114424  42.4740945  35.7518665  11.2692356  43.0598683  34.5695493
   6.8847304  44.4982323  22.8563481   6.5560010  43.6179702  22.6738587
   7.2386674  44.4429992  23.7439870  16.1326882  56.1337226  27.3658466
  15.9851845  55.2053933  27.5466036  16.9580376  56.1557316  26.8815541
   9.9989127  44.7855293  23.2238958  10.3385199  45.3141214  22.5017567
  10.4461247  45.1235699  23.9997525  12.6932568  43.1692344  32.6742026
  12.3529388  42.3700157  33.0762706  11.9871574  43.4694054  32.1018860
  13.3449039  40.2541656  31.1269349  14.1675109  39.7802134  31.0048240
  13.5887103  41.0332140  31.6268036  11.9857274  43.2829914  21.4232251
  12.7065636  43.6611167  20.9195968  11.3622578  44.0018791  21.5267229
  16.1288397  43.9875063  22.3590583  16.3452011  44.8699701  22.0579412
  15.6482464  43.5961277  21.6296225  10.8687618  46.9460777  28.9361328
  10.7232199  47.2601080  29.8285610  10.3912822  47.5645677  28.3832227
  12.7284001  43.9363325  28.9842218  12.7145570  43.0404418  28.6474515
  13.4456429  43.9433988  29.6180504  14.5810132  44.3700665  31.0295345
  14.3227910  45.2917735  31.0279675  14.0495172  43.9731099  31.7195809
  19.5256321  57.4751452  23.8085430  19.6993198  56.9097874  23.0559283
  20.0185212  58.2752347  23.6264920   5.3433280  49.4866121  31.8748989
   4.7986748  50.2625929  32.0069264   6.2212630  49.8336926  31.7168111
  12.1320897  42.8177705  24.2529788  12.2536808  41.8894351  24.4520675
  11.8422939  42.8316391  23.3408103  15.0012087  40.5032615  27.3896508
  15.0233784  40.5671948  26.4348487  15.4180146  39.6637124  27.5837014
  20.5131493  56.7918216  20.9082329  21.2082398  57.4124909  21.1269643
  20.8554643  55.9413568  21.1834707   6.1299302  48.6136017  34.7679146
   5.3881038  48.7618653  35.3543776   5.8092046  48.8744283  33.9045895
  14.0742965  58.1551996  34.5659536  14.3830091  57.9101142  35.4382236
  14.8718447  58.3598634  34.0778406  14.0963577  60.3089905  26.7964913
  13.6568567  59.8166284  27.4897769  14.8471694  59.7662873  26.5556988
   6.5755916  56.5001446  26.7989541   7.4013936  56.2005218  26.4188184
   6.2249968  55.7309068  27.2479329  11.5437449  55.8527914  28.8687214
  10.9217458  55.1898619  28.5689442  12.2142316  55.8789046  28.1860862
   4.7764521  54.4187772  27.7578474   3.9396429  53.9909947  27.5762476
   4.7488166  54.6120216  28.6949265  11.6161976  44.3309702  38.4619720
  11.6650132  45.2071825  38.0797490  12.1584491  43.7887095  37.8891364
  22.1016822  54.8750826  37.7420857  21.3112366  54.8574964  37.2025357
  21.8650177  55.4139119  38.4969894  22.2214697  51.7243292  35.0553586
  22.2712702  51.5593299  35.9969109  22.1128621  50.8570551  34.6651467
  11.1050956  54.4031838  22.3445675  11.2539076  55.0867302  21.6912348
  11.9117399  54.3836928  22.8595131  13.8461265  45.0841075  35.2166079
  12.9764574  45.3774641  34.9448667  14.0820745  45.6681520  35.9373343
  23.7232894  54.1440233  35.2995607  23.4317702  54.5070214  36.1359068
  23.1105025  53.4307242  35.1208940  21.9720082  49.2672848  33.7675665
  22.4474204  49.4600494  32.9594517  21.0485648  49.3232034  33.5219049
   8.8603589  50.4297015  23.3506744   8.6149631  49.5259345  23.5486954
   9.0299503  50.4314166  22.4086222  16.5500299  41.3020692  32.7331499
  17.0682243  42.0381719  32.4077988  16.1955432  41.6084685  33.5678258
   8.1299236  46.1625373  20.8492905   7.4368481  46.2369728  20.1932941
   7.8850988  45.3985716  21.3714422  16.8012893  37.7220974  28.2532396
  17.0814647  37.0544163  28.8792822  17.5863500  37.9150070  27.7407060
  14.6046361  56.8979968  19.8157422  14.0320329  57.5170155  19.3627894
  15.1779155  57.4479330  20.3497344  18.6936131  43.2294191  32.1863372
  18.0986063  43.5099204  31.4909861  18.4085827  43.7188092  32.9580113
  17.8243621  57.1817118  20.9466005  18.7574294  57.1162680  21.1498880
  17.7366834  58.0173385  20.4880537  20.4531638  56.4982989  17.9069952
  20.3745269  56.1642852  18.8005710  21.2741305  56.9904756  17.9061424
  14.9893160  48.2340781  17.1573475  15.9352265  48.1046989  17.2261893
  14.6107405  47.4955443  17.6342903  14.8731852  52.2858527  38.6174132
  15.7934862  52.4637126  38.8114178  14.8381436  51.3414572  38.4653831
  13.1736077  46.1590757  17.0928360  12.2667532  45.8623870  17.1691074
  13.4512058  45.8620575  16.2262646   4.0914017  47.4797121  27.5427406
   3.7716802  46.6262429  27.2501780   3.5447446  47.6945699  28.2985374
   7.8693925  50.1959562  31.2596913   8.0879935  51.1276669  31.2784947
   8.2819699  49.8367536  32.0451717  14.7898143  40.7027647  23.2472601
  13.9798871  40.3574732  23.6227847  15.4782560  40.3935191  23.8360213
  16.7188691  39.7805694  24.8696898  17.2719730  40.2001147  25.5286921
  16.9558777  38.8541442  24.9119854  12.7421790  45.7692767  40.6499662
  12.6418517  46.7187124  40.5811753  12.5243332  45.4411006  39.7775732
  11.9434862  43.0177692  17.2340339  12.8054026  43.3432591  17.4936157
  12.1285206  42.2309188  16.7213405   3.9602277  51.1000032  29.5120528
   3.2665749  50.6853985  28.9990482   4.7075268  51.1420569  28.9153947
  20.0967498  41.8906219  24.3775562  19.5166167  42.5491023  23.9953615
  19.8303431  41.0683563  23.9662980  18.5471065  41.2911277  26.5796882
  19.0470843  41.4027811  25.7711201  19.1906672  40.9872329  27.2197691
  12.6053060  49.1989906  39.4664723  12.1220142  49.9990266  39.6728612
  12.6913999  49.2097851  38.5132167   5.8739020  51.0318286  27.3886543
   5.8509708  51.1305973  26.4368426   6.1839656  51.8783437  27.7103709
   8.5326398  53.0894441  31.5033157   9.4869651  53.0578383  31.4363089
   8.3338921  52.6285065  32.3183383   9.1225780  51.6595557  34.0703955
   9.9418669  52.1539636  34.0938792   9.3962588  50.7427525  34.0421522
  18.8792376  44.0506309  23.4331910  17.9918231  44.3355960  23.2152105
  19.2946365  43.8900073  22.5859187   6.8876627  58.6314060  28.5203355
   6.7531095  57.8714461  27.9541353   6.4708689  59.3554960  28.0532144
  18.0235590  53.8150984  17.5279930  18.7271440  54.0200986  18.1437586
  17.2998238  54.3827746  17.7929014  10.0445753  59.5283377  28.7321798
   9.9278137  60.4728810  28.6300488   9.2238199  59.2256939  29.1207597
  19.9322287  54.2533513  19.5778390  20.7667891  53.8214712  19.3955865
  19.7706630  54.0815527  20.5055285  19.5868179  50.7565626  20.9434730
  19.5316983  50.5909898  20.0023174  18.9614235  51.4641659  21.0996919
   4.3760694  45.9933691  34.7696152   5.0219558  45.4832645  35.2583377
   4.1677845  46.7302372  35.3439577  16.9014086  53.0614538  40.2688293
  17.7705246  53.2355191  39.9074927  16.4220838  53.8808955  40.1464022
  12.8964305  40.2573735  20.5220048  12.8842975  41.2015575  20.6788319
  13.7887727  40.0743881  20.2279509  11.0700267  60.1811639  31.9477726
  11.9727513  60.2135250  32.2644221  10.8437637  59.2512090  31.9624062
  12.8253869  58.9342626  28.6087805  11.8749500  58.9344487  28.4952177
  13.1286355  58.1875360  28.0923839  16.7116424  36.8516512  24.7765985
  15.9448820  36.2974999  24.9222667  17.1227129  36.9238381  25.6380137
   8.7158185  43.1401308  38.8671166   9.5789647  42.7838113  39.0774491
   8.1423596  42.8015203  39.5546570  28.5606562  64.7703164  29.6733567
  29.1984972  64.6509912  28.9696907  28.4427405  65.7184008  29.7321519
  25.3696268  64.7230592  29.6095092  25.0314780  64.6071657  28.7215627
  26.2386037  64.3221757  29.5896098  21.2283084  66.5766069  25.5991983
  20.6647949  66.4856006  24.8308271  21.1135479  65.7565973  26.0794475
  25.8516051  65.8765444  35.5681297  25.8404692  65.4818242  34.6961801
  26.0136691  65.1431517  36.1615069  18.7747516  68.0717260  28.4376203
  19.5668808  67.7308085  28.0222503  19.0144166  68.1812235  29.3578357
  26.8082643  70.2437036  20.9106448  26.1570623  70.8291117  20.5240462
  27.6027006  70.7743231  20.9701485  20.7338270  67.3326174  21.3093582
  21.5069146  66.7855161  21.1706458  21.0863669  68.1970423  21.5208043
  22.5723313  68.6602556  34.5160481  22.2813179  69.5648187  34.4007148
  23.2080297  68.7019083  35.2304551  23.4979519  66.0379404  31.1061841
  24.0943092  65.8135427  30.3918804  23.5554491  65.2964150  31.7087289
  23.0704548  63.4918840  18.9412032  23.3230069  62.9700361  18.1795495
  22.1329107  63.3284985  19.0438716  28.1147831  62.4954618  26.7486775
  28.9010920  62.0774041  26.3977192  28.3786535  63.4000710  26.9168424
  28.2857908  67.9327468  21.4475432  27.6503741  68.0062095  22.1596337
  27.9555314  68.5221067  20.7694511  33.5156258  62.4329851  27.6519754
  34.2481430  61.8629068  27.8857583  32.7595613  62.0451452  28.0926259
  22.7900837  65.3946946  21.1436407  22.6737095  64.7191849  21.8117491
  22.9003096  64.9079320  20.3268560  25.1332378  64.8557093  24.8483096
  24.7690585  64.3287714  25.5596018  25.9899493  64.4655562  24.6749582
  31.0381678  56.1451425  32.1114362  30.7065003  57.0146836  31.8875577
  30.4427292  55.8287709  32.7908393  24.7737864  59.8846992  19.8444445
  24.9412267  60.7527229  20.2114916  24.5835034  60.0474274  18.9205734
  27.5313198  68.3463971  31.5110275  27.2313921  69.2489010  31.4026082
  27.1864257  68.0796155  32.3631428  20.9825679  64.7977768  27.5446980
  20.0576176  64.6653982  27.7524671  21.2310092  65.5771987  28.0416922
  30.9310341  60.8646512  29.1907712  30.0227219  60.7961920  28.8966473
  30.8797937  61.3418456  30.0189538  24.7527085  62.3404650  20.8291112
  24.6326711  62.7861701  21.6676592  24.0579674  62.6889968  20.2704650
  18.3434490  64.4411042  28.3790769  18.4726871  64.6945521  29.2930180
  17.6631941  65.0338750  28.0595424  22.5133977  75.1108292  24.4781243
  22.4358007  76.0616117  24.5569723  21.9095621  74.7654164  25.1356169
  25.0051207  62.2836157  37.1342610  24.2284541  62.8430077  37.1245474
  25.6441770  62.7692940  37.6557480  32.7971988  59.0662950  30.9685586
  32.1546368  59.3595483  30.3225381  32.2926916  58.9515870  31.7738783
  30.4512152  62.8126123  21.6571446  31.3630008  63.0453510  21.4819143
  29.9421799  63.3963167  21.0946524  23.2597580  65.0921611  36.6960577
  24.0012264  65.6306654  36.4195400  22.5534565  65.7187899  36.8532128
  28.7352919  67.2350751  35.2932738  29.1436275  66.7933161  34.5487371
  28.0130181  66.6603378  35.5466931  25.0883989  62.1723358  32.6666295
  25.9345184  62.5962771  32.8100944  25.0282627  61.5156982  33.3604858
  29.0581734  67.7951942  29.0485027  28.4290596  67.9597656  28.3461095
  28.6707396  68.2093551  29.8195991  32.9370966  68.7306379  26.4029391
  32.2522004  69.1105281  25.8526424  33.0214815  69.3401706  27.1361339
  28.2383435  59.8327726  34.3247469  27.9944366  60.5869787  33.7881744
  28.5143365  60.2113074  35.1594716  30.1921897  66.3766338  33.0024734
  30.4038793  67.0198098  32.3259115  30.1451646  65.5428655  32.5346664
  27.7948126  58.9884159  29.9061306  26.9332605  59.2865413  30.1978044
  27.8210561  59.2054558  28.9742339  24.6109696  67.5326350  26.3135112
  25.0748041  67.8114053  25.5239735  24.3466494  66.6309794  26.1308203
  21.5033777  67.0797831  29.2514875  22.0735134  67.5085100  28.6132360
  22.0941889  66.7980416  29.9499061  23.5478582  63.6549502  23.1224677
  24.2502625  64.1070546  23.5898604  23.2159210  63.0133321  23.7504570
  21.9958943  62.2461259  37.4975887  21.3657604  62.9277540  37.7311284
  21.8895031  62.1344340  36.5529025  17.2903916  61.9133055  28.4241811
  16.5002970  62.1690583  27.9481921  17.7815163  62.7281393  28.5293851
  31.3067725  69.2538294  31.1747092  32.1285169  68.8518481  30.8929773
  31.3030128  69.1506528  32.1263207  19.2418661  62.2777634  25.3825288
  18.4449824  62.3896328  25.9008783  19.0144253  62.6164286  24.5166178
  25.0724329  68.8022337  33.3307802  25.1368761  69.2642744  34.1665974
  24.3635253  68.1719702  33.4590112  15.5741619  62.1663545  30.8556802
  15.8249657  63.0510555  31.1214378  16.1101167  61.9868147  30.0831893
  39.3973718  65.5977042  27.5232063  38.6437427  65.0284440  27.3676068
  39.5321260  65.5639707  28.4702698  24.7872346  70.4690445  23.1986783
  24.6518021  71.3141980  23.6271630  25.3282159  70.6709722  22.4352716
  21.2739686  56.5482025  39.8601138  20.8806632  55.9948223  40.5348782
  22.0905826  56.8592603  40.2507655  18.2401744  67.9865883  23.7714708
  18.7526264  68.7809133  23.9220272  18.8924457  67.2892173  23.7048309
  20.0496628  71.1031639  25.8537461  20.2263257  72.0249604  25.6658445
  20.8453462  70.7890058  26.2831841  24.1907647  57.9639904  37.4521394
  24.9317360  58.5647057  37.3725857  24.4225570  57.2217541  36.8939437
  19.3348985  63.1496271  35.7299624  19.2202500  62.2481528  36.0306723
  18.4793503  63.3959968  35.3784441  26.4140823  71.0914011  37.3287125
  25.9704677  70.3050390  37.0108029  27.0758036  71.2793162  36.6631015
  21.1727944  72.6209813  31.8547803  21.7235369  72.4926876  31.0824797
  20.3339420  72.9204702  31.5042696  28.5122061  71.3716811  35.3568526
  28.4940536  72.1925692  34.8648795  29.4341981  71.2470886  35.5818667
  24.9695115  68.8860941  36.1992034  25.5023452  68.1249229  35.9691342
  24.4409196  68.5934592  36.9416189  16.2050661  66.3154537  24.5474278
  17.0425883  66.7251545  24.3307986  16.3828928  65.3753979  24.5174472
  28.1015093  63.9829618  20.2358111  27.5861716  64.7534222  20.4746498
  27.8292401  63.3094754  20.8591173  25.6862204  58.8279318  25.2943349
  24.8303800  58.4386169  25.1148988  26.0989155  58.9071279  24.4343135
  27.2161350  56.3625662  29.6934909  26.7126146  56.3255797  28.8802715
  27.5091957  57.2718404  29.7531566  33.0749367  66.7361972  22.1711285
  32.2978810  66.3973132  21.7266447  33.7540848  66.7414595  21.4966250
  27.8901396  61.8556710  22.0617892  27.5851531  62.1702859  22.9128035
  28.8431838  61.9338130  22.1045225  26.3347828  68.0146933  23.7110846
  25.8069189  67.2799693  23.3984084  25.8335330  68.7921609  23.4650815
  31.3140674  66.2095954  28.8277893  30.6564348  66.8995215  28.9158021
  32.1181073  66.5992386  29.1711879  21.0666555  58.6766599  26.0717458
  21.6410307  58.4541781  25.3390651  21.6537538  58.7455294  26.8246059
  30.1246133  64.5640326  26.8781834  30.6378014  65.1970318  27.3803544
  30.7747356  63.9641522  26.5125194  21.3936142  60.7071060  20.0913343
  20.5573455  61.0445747  20.4122618  21.2540912  60.5720040  19.1540480
  24.4800428  65.8327143  16.7145819  23.5727490  65.6016397  16.9136968
  24.9771460  65.0364763  16.9019801  27.3868507  74.5424651  19.6342505
  26.7130206  74.8456347  20.2427463  27.7734329  75.3453731  19.2847963
  26.6026963  62.0389782  29.1240175  25.6849525  62.2604729  28.9661863
  27.0187107  62.1136092  28.2651882  27.3862011  63.4381197  24.2542855
  28.1333830  63.9502595  23.9449977  27.6553601  63.1165250  25.1147249
  25.6588661  65.9339738  21.2369809  24.7499881  65.6498771  21.3342279
  25.6883745  66.3538817  20.3773116  30.8907929  69.5446328  25.0060977
  30.4370256  68.7037238  25.0626167  30.2601895  70.1807726  25.3435757
  29.8340848  60.4738314  26.2361644  29.0963605  59.9615700  26.5671887
  30.0867622  60.0338695  25.4244921  29.3340868  71.3822824  25.9410795
  29.6263842  71.9427882  25.2223161  29.8439489  71.6751385  26.6963954
  29.9352476  53.2514566  26.8303414  30.2411352  52.3911929  26.5429329
  30.6605080  53.8432186  26.6302408  16.2276832  63.6545252  25.2185012
  16.0301232  63.0614613  24.4936078  15.6723496  63.3497463  25.9360950
  24.2073555  63.5468359  27.3379605  24.2622165  62.5942195  27.2622081
  23.3964757  63.7027798  27.8220903  25.3564749  67.4748482  18.5757888
  24.9184179  66.7584341  18.1163525  26.0975190  67.7024597  18.0142979
  22.1465915  62.1645419  25.0969984  21.3333781  62.4639589  25.5035176
  22.6424909  61.7701107  25.8144466  24.2974493  72.1603175  27.0304248
  24.2550672  72.3864022  26.1012780  25.2137192  71.9266550  27.1790049
  27.7440127  62.6287243  33.9284877  28.0989515  62.8558716  34.7879343
  28.3912258  62.9605620  33.3062133  33.4737864  65.7505679  24.6334207
  33.3355762  65.9407275  23.7055396  33.1174083  66.5125062  25.0902258
  21.6379990  59.7363774  30.7131219  22.2779369  59.5952533  30.0154182
  20.8057521  59.4498287  30.3369821  33.5007244  67.8182206  29.6445478
  33.9343750  67.7257495  30.4928532  34.2138824  67.7939706  29.0065494
  22.4140294  69.0366204  26.8266211  23.2080892  68.5416525  26.6248786
  21.7031986  68.5084068  26.4633917  27.2335138  71.4184300  31.1778579
  27.2872161  71.9875236  31.9456295  26.3649920  71.5886185  30.8132616
  18.7223057  63.1809286  22.9025964  17.7920645  63.1193742  23.1195926
  18.8180529  62.6585239  22.1062605  18.6408606  59.7064099  25.4904205
  18.9015424  60.6209432  25.3813366  19.4625779  59.2388542  25.6400818
  20.1133532  61.1201856  32.6603030  20.7856585  60.9119218  32.0115679
  19.2863318  60.9223942  32.2208262  34.3622793  67.8605907  32.1778363
  34.5558683  68.7651717  32.4237638  34.2623411  67.4013326  33.0116948
  26.0159104  57.7463797  34.6768691  25.3687019  58.4453747  34.5833167
  26.7860119  58.1799941  35.0444939  29.4237902  68.0112649  37.7519244
  29.2723408  67.7823201  36.8349328  29.4142581  68.9683251  37.7650589
  26.1923238  65.5844562  32.7365510  27.1215298  65.7355722  32.5634478
  25.7714268  65.6728583  31.8814157  24.9911570  69.6095226  30.5064048
  24.8522656  69.2414011  31.3789986  24.2026166  70.1242866  30.3348006
  25.5859722  74.7104323  21.8489585  25.7611478  74.2392366  22.6635207
  24.8992510  75.3370089  22.0770845  26.5416785  68.9876829  27.8952886
  26.2066618  68.9477599  28.7910536  26.0420731  68.3221545  27.4223296
  20.5161029  64.3944459  33.4205467  20.3780827  63.6624698  34.0217006
  21.4265953  64.3053359  33.1389655  29.4775977  66.3332864  18.1689946
  28.8605147  65.6079692  18.0722998  29.0092465  67.0942224  17.8257020
  23.1443330  64.1064419  32.9089147  23.8542948  63.4657611  32.8675765
  23.1012638  64.3577313  33.8315327  31.1330108  71.0431772  35.8295726
  31.0742655  70.3590992  35.1626309  31.5349627  71.7850762  35.3776352
  21.8572264  61.0929636  34.7284786  21.3209621  60.6420375  35.3806382
  21.2688972  61.2275545  33.9855251  21.2674523  60.5518288  17.2911250
  20.3903989  60.4307089  16.9273496  21.7432276  59.7604366  17.0390138
  31.1347516  69.0071356  34.0609706  30.2474294  68.6697278  34.1836104
  31.7046067  68.2754387  34.2978471  12.7876663  65.3395448  27.3852757
  13.4747703  65.0257178  26.7973772  12.6324791  66.2436812  27.1120008
  17.5911385  60.2285644  31.8137781  17.5069574  59.6211314  31.0788191
  16.7694091  60.7194662  31.8147277  24.6648669  73.6672808  31.0270949
  24.5918841  74.4727780  31.5390253  24.2226062  73.8664774  30.2018970
  24.4538449  72.9044578  24.5373770  23.6705971  73.4466258  24.6311995
  25.1531194  73.4218558  24.9368011  27.7635099  58.7139208  27.1807976
  28.2603798  57.9609170  26.8609046  26.9922080  58.7503524  26.6151185
  35.6164856  64.4179573  28.8226267  35.6054732  65.3004289  28.4520200
  34.7482236  64.0651124  28.6280804  27.1247353  73.5659642  33.1829107
  27.8375325  74.2007107  33.1105009  26.6337381  73.6623508  32.3669109
  28.8464879  67.4710895  24.7546399  27.9121158  67.5912357  24.5851103
  29.0241548  66.5683362  24.4906409  24.3470068  60.8556591  26.9079660
  23.9767855  60.3027631  27.5960566  24.8429160  60.2514724  26.3554660
  32.2337431  63.3128214  25.2896433  32.6997883  64.1456206  25.2156736
  32.6844931  62.8473196  25.9941692  22.1759266  71.3154086  34.0034678
  22.8768726  71.9490569  34.1564072  21.7054381  71.6568817  33.2430318
  30.3013662  69.6572035  22.2882585  30.5773506  69.5428630  23.1976459
  29.4318161  69.2589520  22.2494758  30.2054094  55.6808801  29.3287335
  29.2917173  55.9113028  29.4969542  30.6347195  55.7647245  30.1801367
  29.9760552  63.8698693  31.8287229  29.3232002  64.1174601  31.1739681
  30.3540932  63.0562831  31.4949706  26.9367726  73.9058386  25.9315399
  27.1190120  73.0880042  26.3943151  27.7600712  74.1226079  25.4940289
  27.2709891  72.8326571  23.1930447  27.7997658  72.3219026  22.5800609
  27.5338111  72.5169102  24.0575980  26.0248125  64.6118504  38.3153266
  25.3488762  64.5112633  38.9855641  26.8475759  64.4557718  38.7789263
  17.7726984  70.8490441  30.9365781  18.3580421  70.1034129  31.0693685
  17.5751823  71.1594397  31.8202445  20.6265639  73.8841688  25.9528223
  19.9576015  74.3687816  25.4692263  20.4878509  74.1310909  26.8671602
  12.3644639  63.4196041  29.6570224  12.4028738  62.8859632  30.4507342
  11.8584932  62.8931246  29.0381201  24.7670908  75.9185432  32.5510882
  25.3189216  76.0817053  33.3159967  25.1077101  76.5089869  31.8790907
  19.7435401  58.2660581  33.1532766  19.8076728  59.1275412  32.7410164
  19.6802521  57.6534583  32.4205125  19.2187674  60.3383714  36.8005801
  19.8459713  59.9560791  37.4143325  18.3615593  60.1197916  37.1661493
  29.6181782  70.7446689  38.4059536  30.1621686  71.3576647  37.9114491
  29.0368627  71.3026268  38.9226549  15.9953216  62.1460143  22.7324155
  16.2906658  61.2370821  22.6791209  15.0941252  62.1247883  22.4105158
  27.9039295  73.8667407  29.5374564  27.7790435  73.0657147  29.0285509
  28.5618386  74.3613601  29.0488534  19.5247463  60.2216140  28.7151704
  18.8034049  60.8352107  28.5759177  20.3140719  60.7573904  28.6368350
  29.9674204  71.6676427  31.1654114  29.0204539  71.5481778  31.0932441
  30.3156977  70.7798925  31.2480375  22.3273777  57.5570566  34.9892356
  22.8508179  57.8032863  35.7518665  22.1086110  58.3890601  34.5695493
  17.7241058  59.8274241  22.8563481  17.3953764  58.9471620  22.6738587
  18.0780429  59.7721909  23.7439870  26.9720637  71.4629143  27.3658466
  26.8245599  70.5345851  27.5466036  27.7974130  71.4849234  26.8815541
  20.8382881  60.1147211  23.2238958  21.1778954  60.6433132  22.5017567
  21.2855002  60.4527617  23.9997525  30.5754759  72.2857702  28.4523339
  31.5001306  72.0800564  28.3147790  30.4070062  72.0374103  29.3612680
  23.5326322  58.4984261  32.6742026  23.1923142  57.6992074  33.0762706
  22.8265328  58.7985972  32.1018860  22.8251028  58.6121832  21.4232251
  23.5459391  58.9903085  20.9195968  22.2016332  59.3310709  21.5267229
  26.9682151  59.3166981  22.3590583  27.1845766  60.1991619  22.0579412
  26.4876218  58.9253194  21.6296225  21.7081373  62.2752694  28.9361328
  21.5625953  62.5892997  29.8285610  21.2306576  62.8937595  28.3832227
  25.4203886  59.6992583  31.0295345  25.1621664  60.6209653  31.0279675
  24.8888927  59.3023017  31.7195809  30.3650075  72.8043370  23.8085430
  30.5386953  72.2389792  23.0559283  30.8578966  73.6044265  23.6264920
  16.1827035  64.8158039  31.8748989  15.6380503  65.5917847  32.0069264
  17.0606385  65.1628843  31.7168111  22.9714651  58.1469623  24.2529788
  23.0930563  57.2186269  24.4520675  22.6816694  58.1608309  23.3408103
  36.2189466  65.5679793  25.4275730  36.6620612  64.8187118  25.0294853
  35.3415976  65.5589929  25.0449462  31.3525247  72.1210134  20.9082329
  32.0476152  72.7416827  21.1269643  31.6948398  71.2705485  21.1834707
  16.9693057  63.9427935  34.7679146  16.2274793  64.0910570  35.3543776
  16.6485801  64.2036201  33.9045895  33.2516671  69.5709840  22.4369659
  33.7767995  69.9097112  21.7118979  33.1639023  68.6356855  22.2532794
  24.9136719  73.4843913  34.5659536  25.2223846  73.2393060  35.4382236
  25.7112201  73.6890552  34.0778406  24.9357331  75.6381823  26.7964913
  24.4962322  75.1458202  27.4897769  25.6865448  75.0954791  26.5556988
  17.4149670  71.8293364  26.7989541  18.2407690  71.5297136  26.4188184
  17.0643722  71.0600986  27.2479329  22.3831203  71.1819832  28.8687214
  21.7611213  70.5190537  28.5689442  23.0536070  71.2080964  28.1860862
  15.6158275  69.7479690  27.7578474  14.7790184  69.3201865  27.5762476
  15.5881921  69.9412133  28.6949265  22.4555731  59.6601620  38.4619720
  22.5043886  60.5363743  38.0797490  22.9978245  59.1179013  37.8891364
  32.9410577  70.2042743  37.7420857  32.1506120  70.1866882  37.2025357
  32.7043931  70.7431037  38.4969894  33.0608452  67.0535210  35.0553586
  33.1106457  66.8885217  35.9969109  32.9522375  66.1862469  34.6651467
  21.9444710  69.7323755  22.3445675  22.0932831  70.4159220  21.6912348
  22.7511154  69.7128845  22.8595131  30.3512214  63.0366138  36.3712893
  31.2522077  62.8972602  36.0796890  30.4260189  63.2020592  37.3111070
  24.6855019  60.4132992  35.2166079  23.8158329  60.7066558  34.9448667
  24.9214500  60.9973437  35.9373343  34.5626649  69.4732151  35.2995607
  34.2711457  69.8362132  36.1359068  33.9498780  68.7599159  35.1208940
  35.7622331  67.0385031  27.8198178  36.5969222  67.4774835  27.9835738
  35.8981460  66.5623684  27.0006423  32.8113837  64.5964766  33.7675665
  33.2867958  64.7892412  32.9594517  31.8879402  64.6523952  33.5219049
  19.6997343  65.7588933  23.3506744  19.4543385  64.8551263  23.5486954
  19.8693258  65.7606083  22.4086222  27.3894053  56.6312609  32.7331499
  27.9075997  57.3673636  32.4077988  27.0349186  56.9376603  33.5678258
  18.9692991  61.4917290  20.8492905  18.2762236  61.5661645  20.1932941
  18.7244743  60.7277634  21.3714422  27.6406647  53.0512892  28.2532396
  27.9208401  52.3836081  28.8792822  28.4257254  53.2441987  27.7407060
  25.4440116  72.2271886  19.8157422  24.8714083  72.8462073  19.3627894
  26.0172910  72.7771247  20.3497344  31.5115506  61.4730526  32.0003971
  32.4632929  61.5728623  32.0216195  31.3418956  60.6808794  32.5102055
  29.5329885  58.5586109  32.1863372  28.9379817  58.8391122  31.4909861
  29.2479582  59.0480010  32.9580113  28.6637376  72.5109036  20.9466005
  29.5968049  72.4454598  21.1498880  28.5760589  73.3465303  20.4880537
  31.2925392  71.8274906  17.9069952  31.2139024  71.4934770  18.8005710
  32.1135059  72.3196674  17.9061424  33.9903584  64.6936645  31.1146271
  33.9579904  63.7552646  31.3005955  34.6004207  64.7720682  30.3812096
  25.8286914  63.5632698  17.1573475  26.7746019  63.4338907  17.2261893
  25.4501159  62.8247360  17.6342903  34.1398072  61.4847689  31.1604554
  33.6237121  60.7006146  30.9734483  35.0238021  61.1566406  31.3251073
  31.8008799  55.2288704  27.1200367  31.6033620  54.9203793  28.0043699
  32.4108505  55.9550343  27.2498296  39.8080133  65.7552652  30.2552307
  40.5383522  65.4937940  30.8160011  39.1987079  65.0181374  30.2954375
  37.8895431  63.8960515  30.8526759  37.1628594  63.7616480  30.2443250
  37.4742717  64.2037344  31.6583477  25.7125607  67.6150445  38.6174132
  26.6328616  67.7929044  38.8114178  25.6775190  66.6706490  38.4653831
  24.0129832  61.4882675  17.0928360  23.1061287  61.1915788  17.1691074
  24.2905813  61.1912493  16.2262646  14.9307772  62.8089038  27.5427406
  14.6110556  61.9554346  27.2501780  14.3841200  63.0237616  28.2985374
  18.7087680  65.5251479  31.2596913  18.9273689  66.4568587  31.2784947
  19.1213453  65.1659454  32.0451717  25.6291897  56.0319565  23.2472601
  24.8192626  55.6866650  23.6227847  26.3176314  55.7227108  23.8360213
  27.5582446  55.1097611  24.8696898  28.1113484  55.5293065  25.5286921
  27.7952532  54.1833359  24.9119854  23.5815545  61.0984685  40.6499662
  23.4812272  62.0479042  40.5811753  23.3637087  60.7702924  39.7775732
  22.7828616  58.3469610  17.2340339  23.6447780  58.6724508  17.4936157
  22.9678960  57.5601106  16.7213405  14.7996032  66.4291950  29.5120528
  14.1059503  66.0145903  28.9990482  15.5469023  66.4712486  28.9153947
  30.9361253  57.2198137  24.3775562  30.3559922  57.8782941  23.9953615
  30.6697185  56.3975481  23.9662980  29.3864819  56.6203194  26.5796882
  29.8864597  56.7319729  25.7711201  30.0300427  56.3164247  27.2197691
  23.4446815  64.5281824  39.4664723  22.9613897  65.3282184  39.6728612
  23.5307754  64.5389769  38.5132167  16.7132774  66.3610204  27.3886543
  16.6903463  66.4597891  26.4368426  17.0233411  67.2075354  27.7103709
  19.3720152  68.4186359  31.5033157  20.3263406  68.3870301  31.4363089
  19.1732676  67.9576982  32.3183383  19.9619534  66.9887475  34.0703955
  20.7812423  67.4831553  34.0938792  20.2356342  66.0719443  34.0421522
  29.7186131  59.3798227  23.4331910  28.8311986  59.6647878  23.2152105
  30.1340120  59.2191990  22.5859187  33.0700667  59.4044748  27.1486250
  33.8461057  59.8941200  27.4210866  32.3448801  59.8302802  27.6058119
  35.5073225  60.1172367  28.2060190  36.1017716  59.8768103  27.4953499
  35.5799809  59.3979498  28.8333727  17.7270381  73.9605978  28.5203355
  17.5924849  73.2006379  27.9541353  17.3102443  74.6846878  28.0532144
  28.8629344  69.1442902  17.5279930  29.5665194  69.3492904  18.1437586
  28.1391993  69.7119663  17.7929014  29.6927154  64.8952763  23.6482201
  29.6362356  65.3521314  22.8089833  30.2455497  64.1343447  23.4705043
  33.5031960  60.6842495  24.4732320  33.2468895  60.2839130  25.3040528
  32.8784828  61.3986289  24.3482459  37.8144298  63.4238568  26.9803611
  37.2543856  63.4931757  27.7535174  37.2087802  63.2479553  26.2603108
  20.8839507  74.8575295  28.7321798  20.7671891  75.8020728  28.6300488
  20.0631953  74.5548857  29.1207597  30.7716042  69.5825431  19.5778390
  31.6061646  69.1506629  19.3955865  30.6100384  69.4107444  20.5055285
  30.4261934  66.0857544  20.9434730  30.3710738  65.9201816  20.0023174
  29.8007989  66.7933577  21.0996919  15.2154449  61.3225608  34.7696152
  15.8613312  60.8124562  35.2583377  15.0071600  62.0594290  35.3439577
  27.7407841  68.3906456  40.2688293  28.6099001  68.5647108  39.9074927
  27.2614592  69.2100873  40.1464022  23.7358059  55.5865653  20.5220048
  23.7236729  56.5307493  20.6788319  24.6281481  55.4035799  20.2279509
  21.9094021  75.5103557  31.9477726  22.8121268  75.5427167  32.2644221
  21.6831391  74.5804008  31.9624062  23.6647623  74.2634544  28.6087805
  22.7143254  74.2636405  28.4952177  23.9680109  73.5167278  28.0923839
  27.5510179  52.1808430  24.7765985  26.7842574  51.6266916  24.9222667
  27.9620884  52.2530299  25.6380137  19.5551940  58.4693226  38.8671166
  20.4183401  58.1130030  39.0774491  18.9817350  58.1307120  39.5546570
  39.4000317  80.0995082  29.6733567  40.0378727  79.9801829  28.9696907
  39.2821160  81.0475926  29.7321519  36.2090023  80.0522510  29.6095092
  35.8708534  79.9363575  28.7215627  37.0779791  79.6513675  29.5896098
  32.0676839  81.9057986  25.5991983  31.5041704  81.8147923  24.8308271
  31.9529234  81.0857891  26.0794475  36.6909806  81.2057362  35.5681297
  36.6798447  80.8110160  34.6961801  36.8530445  80.4723434  36.1615069
  34.3373274  81.3671322  31.1061841  34.9336846  81.1427344  30.3918804
  34.3948245  80.6256068  31.7087289  33.9098302  78.8210757  18.9412032
  34.1623823  78.2992279  18.1795495  32.9722861  78.6576903  19.0438716
  38.9541585  77.8246536  26.7486775  39.7404674  77.4065959  26.3977192
  39.2180289  78.7292628  26.9168424  39.1251662  83.2619386  21.4475432
  38.4897495  83.3354013  22.1596337  38.7949069  83.8512985  20.7694511
  44.3550012  77.7621769  27.6519754  45.0875184  77.1920986  27.8857583
  43.5989368  77.3743369  28.0926259  33.6294591  80.7238863  21.1436407
  33.5130849  80.0483767  21.8117491  33.7396851  80.2371237  20.3268560
  35.9726132  80.1849010  24.8483096  35.6084339  79.6579631  25.5596018
  36.8293248  79.7947480  24.6749582  41.8775433  71.4743343  32.1114362
  41.5458757  72.3438754  31.8875577  41.2821046  71.1579627  32.7908393
  35.6131619  75.2138910  19.8444445  35.7806021  76.0819147  20.2114916
  35.4228788  75.3766192  18.9205734  38.3706952  83.6755889  31.5110275
  38.0707675  84.5780928  31.4026082  38.0258012  83.4088072  32.3631428
  31.8219434  80.1269686  27.5446980  30.8969930  79.9945900  27.7524671
  32.0703847  80.9063905  28.0416922  41.7704096  76.1938429  29.1907712
  40.8620973  76.1253838  28.8966473  41.7191692  76.6710374  30.0189538
  35.5920840  77.6696568  20.8291112  35.4720465  78.1153618  21.6676592
  34.8973428  78.0181885  20.2704650  29.1828245  79.7702959  28.3790769
  29.3120626  80.0237438  29.2930180  28.5025696  80.3630667  28.0595424
  35.8444962  77.6128075  37.1342610  35.0678296  78.1721995  37.1245474
  36.4835525  78.0984858  37.6557480  43.6365742  74.3954868  30.9685586
  42.9940123  74.6887401  30.3225381  43.1320671  74.2807788  31.7738783
  41.2905906  78.1418041  21.6571446  42.2023762  78.3745428  21.4819143
  40.7815553  78.7255085  21.0946524  34.0991334  80.4213528  36.6960577
  34.8406018  80.9598572  36.4195400  33.3928320  81.0479817  36.8532128
  39.5746674  82.5642669  35.2932738  39.9830030  82.1225079  34.5487371
  38.8523935  81.9895296  35.5466931  35.9277744  77.5015275  32.6666295
  36.7738939  77.9254689  32.8100944  35.8676381  76.8448900  33.3604858
  39.8975488  83.1243859  29.0485027  39.2684351  83.2889573  28.3461095
  39.5101150  83.5385469  29.8195991  43.7764720  84.0598297  26.4029391
  43.0915758  84.4397198  25.8526424  43.8608570  84.6693624  27.1361339
  39.0777189  75.1619644  34.3247469  38.8338121  75.9161704  33.7881744
  39.3537120  75.5404991  35.1594716  41.0315652  81.7058256  33.0024734
  41.2432547  82.3490016  32.3259115  40.9845400  80.8720573  32.5346664
  38.6341881  74.3176077  29.9061306  37.7726360  74.6157330  30.1978044
  38.6604315  74.5346476  28.9742339  35.4503450  82.8618267  26.3135112
  35.9141796  83.1405970  25.5239735  35.1860248  81.9601712  26.1308203
  34.3872336  78.9841420  23.1224677  35.0896380  79.4362463  23.5898604
  34.0552965  78.3425239  23.7504570  32.8352698  77.5753176  37.4975887
  32.2051358  78.2569457  37.7311284  32.7288786  77.4636258  36.5529025
  28.1297670  77.2424972  28.4241811  27.3396724  77.4982501  27.9481921
  28.6208918  78.0573310  28.5293851  42.1461480  84.5830212  31.1747092
  42.9678924  84.1810399  30.8929773  42.1423883  84.4798446  32.1263207
  30.0812416  77.6069552  25.3825288  29.2843579  77.7188246  25.9008783
  29.8538008  77.9456204  24.5166178  26.4135373  77.4955463  30.8556802
  26.6643412  78.3802473  31.1214378  26.9494922  77.3160064  30.0831893
  50.2367473  80.9268960  27.5232063  49.4831181  80.3576358  27.3676068
  50.3715014  80.8931625  28.4702698  32.1133441  71.8773942  39.8601138
  31.7200386  71.3240141  40.5348782  32.9299581  72.1884521  40.2507655
  35.0301402  73.2931821  37.4521394  35.7711115  73.8938974  37.3725857
  35.2619324  72.5509459  36.8939437  30.1742740  78.4788189  35.7299624
  30.0596255  77.5773446  36.0306723  29.3187257  78.7251885  35.3784441
  38.9758564  69.3212924  31.7285676  38.6322834  70.2114566  31.6524787
  39.3437527  69.1314582  30.8655261  38.9408847  79.3121535  20.2358111
  38.4255471  80.0826140  20.4746498  38.6686156  78.6386671  20.8591173
  36.5255958  74.1571236  25.2943349  35.6697555  73.7678087  25.1148988
  36.9382910  74.2363197  24.4343135  38.0555105  71.6917579  29.6934909
  37.5519900  71.6547715  28.8802715  38.3485712  72.6010322  29.7531566
  34.2997991  71.7756309  28.7001091  35.1650987  71.5799118  28.3406980
  34.3675500  71.5466661  29.6270448  43.9143121  82.0653890  22.1711285
  43.1372564  81.7265049  21.7266447  44.5934602  82.0706513  21.4966250
  38.7295150  77.1848627  22.0617892  38.4245286  77.4994777  22.9128035
  39.6825592  77.2630047  22.1045225  42.1534428  81.5387871  28.8277893
  41.4958103  82.2287133  28.9158021  42.9574827  81.9284303  29.1711879
  31.9060310  74.0058517  26.0717458  32.4804062  73.7833699  25.3390651
  32.4931292  74.0747212  26.8246059  40.9639887  79.8932244  26.8781834
  41.4771769  80.5262236  27.3803544  41.6141111  79.2933439  26.5125194
  32.2329897  76.0362978  20.0913343  31.3967209  76.3737665  20.4122618
  32.0934667  75.9011958  19.1540480  34.2082978  70.8799766  24.7992527
  33.5547390  70.5648783  24.1749142  34.1663452  70.2575506  25.5252350
  35.3194182  81.1619061  16.7145819  34.4121244  80.9308314  16.9136968
  35.8165214  80.3656680  16.9019801  37.4420718  77.3681699  29.1240175
  36.5243279  77.5896646  28.9661863  37.8580861  77.4428010  28.2651882
  38.2255766  78.7673115  24.2542855  38.9727585  79.2794512  23.9449977
  38.4947355  78.4457168  25.1147249  36.4982416  81.2631656  21.2369809
  35.5893635  80.9790689  21.3342279  36.5277500  81.6830734  20.3773116
  41.7301683  84.8738245  25.0060977  41.2764010  84.0329155  25.0626167
  41.0995650  85.5099644  25.3435757  40.6734603  75.8030231  26.2361644
  39.9357360  75.2907618  26.5671887  40.9261376  75.3630613  25.4244921
  40.7746230  68.5806483  26.8303414  41.0805107  67.7203847  26.5429329
  41.4998835  69.1724104  26.6302408  27.0670586  78.9837170  25.2185012
  26.8694986  78.3906531  24.4936078  26.5117250  78.6789380  25.9360950
  35.0467310  78.8760276  27.3379605  35.1015920  77.9234113  27.2622081
  34.2358512  79.0319716  27.8220903  36.1958504  82.8040400  18.5757888
  35.7577934  82.0876258  18.1163525  36.9368944  83.0316514  18.0142979
  32.9859670  77.4937336  25.0969984  32.1727535  77.7931507  25.5035176
  33.4818664  77.0993025  25.8144466  38.5833881  77.9579161  33.9284877
  38.9383269  78.1850634  34.7879343  39.2306013  78.2897537  33.3062133
  44.3131618  81.0797597  24.6334207  44.1749517  81.2699193  23.7055396
  43.9567837  81.8416979  25.0902258  32.4773745  75.0655692  30.7131219
  33.1173124  74.9244451  30.0154182  31.6451275  74.7790205  30.3369821
  44.3400998  83.1474124  29.6445478  44.7737505  83.0549413  30.4928532
  45.0532579  83.1231624  29.0065494  29.5616812  78.5101204  22.9025964
  28.6314400  78.4485659  23.1195926  29.6574284  77.9877157  22.1062605
  29.4802361  75.0356017  25.4904205  29.7409178  75.9501350  25.3813366
  30.3019533  74.5680459  25.6400818  30.9527286  76.4493774  32.6603030
  31.6250340  76.2411136  32.0115679  30.1257073  76.2515860  32.2208262
  45.2016548  83.1897824  32.1778363  45.3952438  84.0943635  32.4237638
  45.1017166  82.7305243  33.0116948  36.8552858  73.0755715  34.6768691
  36.2080773  73.7745664  34.5833167  37.6253874  73.5091859  35.0444939
  40.2631656  83.3404567  37.7519244  40.1117163  83.1115119  36.8349328
  40.2536336  84.2975168  37.7650589  37.0316993  80.9136480  32.7365510
  37.9609053  81.0647639  32.5634478  36.6108023  81.0020501  31.8814157
  31.3554784  79.7236377  33.4205467  31.2174581  78.9916616  34.0217006
  32.2659707  79.6345277  33.1389655  40.3169731  81.6624781  18.1689946
  39.6998902  80.9371609  18.0722998  39.8486220  82.4234141  17.8257020
  33.9837084  79.4356336  32.9089147  34.6936703  78.7949528  32.8675765
  33.9406392  79.6869231  33.8315327  32.6966018  76.4221554  34.7284786
  32.1603375  75.9712293  35.3806382  32.1082727  76.5567463  33.9855251
  32.1068277  75.8810206  17.2911250  31.2297743  75.7599006  16.9273496
  32.5826030  75.0896284  17.0390138  41.9741270  84.3363273  34.0609706
  41.0868049  83.9989195  34.1836104  42.5439821  83.6046305  34.2978471
  28.4305139  75.5577562  31.8137781  28.3463328  74.9503231  31.0788191
  27.6087846  76.0486580  31.8147277  38.6028853  74.0431125  27.1807976
  39.0997553  73.2901088  26.8609046  37.8315835  74.0795442  26.6151185
  46.4558611  79.7471491  28.8226267  46.4448487  80.6296206  28.4520200
  45.5875990  79.3943042  28.6280804  39.6858634  82.8002813  24.7546399
  38.7514913  82.9204275  24.5851103  39.8635302  81.8975279  24.4906409
  35.1863822  76.1848508  26.9079660  34.8161610  75.6319549  27.5960566
  35.6822914  75.5806642  26.3554660  43.0731185  78.6420132  25.2896433
  43.5391638  79.4748123  25.2156736  43.5238686  78.1765113  25.9941692
  41.1407416  84.9863953  22.2882585  41.4167260  84.8720548  23.1976459
  40.2711915  84.5881438  22.2494758  41.0447848  71.0100719  29.3287335
  40.1310928  71.2404946  29.4969542  41.4740950  71.0939163  30.1801367
  40.8154307  79.1990611  31.8287229  40.1625757  79.4466518  31.1739681
  41.1934686  78.3854749  31.4949706  36.8641880  79.9410422  38.3153266
  36.1882517  79.8404551  38.9855641  37.6869513  79.7849636  38.7789263
  23.2038393  78.7487959  29.6570224  23.2422493  78.2151549  30.4507342
  22.6978686  78.2223164  29.0381201  30.5829156  73.5952499  33.1532766
  30.6470482  74.4567330  32.7410164  30.5196276  72.9826501  32.4205125
  30.0581428  75.6675632  36.8005801  30.6853467  75.2852709  37.4143325
  29.2009347  75.4489834  37.1661493  26.8346971  77.4752061  22.7324155
  27.1300412  76.5662739  22.6791209  25.9335007  77.4539800  22.4105158
  30.3641218  75.5508057  28.7151704  29.6427804  76.1644025  28.5759177
  31.1534474  76.0865822  28.6368350  33.1667531  72.8862484  34.9892356
  33.6901933  73.1324780  35.7518665  32.9479865  73.7182519  34.5695493
  28.5634813  75.1566158  22.8563481  28.2347519  74.2763537  22.6738587
  28.9174183  75.1013827  23.7439870  31.6776636  75.4439128  23.2238958
  32.0172708  75.9725049  22.5017567  32.1248756  75.7819534  23.9997525
  34.3720077  73.8276179  32.6742026  34.0316897  73.0283992  33.0762706
  33.6659083  74.1277890  32.1018860  35.0236548  70.9125491  31.1269349
  35.8462618  70.4385970  31.0048240  35.2674612  71.6915975  31.6268036
  33.6644783  73.9413750  21.4232251  34.3853145  74.3195003  20.9195968
  33.0410087  74.6602627  21.5267229  37.8075906  74.6458899  22.3590583
  38.0239520  75.5283537  22.0579412  37.3269973  74.2545112  21.6296225
  32.5475127  77.6044612  28.9361328  32.4019708  77.9184915  29.8285610
  32.0700331  78.2229512  28.3832227  34.4071510  74.5947160  28.9842218
  34.3933079  73.6988253  28.6474515  35.1243938  74.6017824  29.6180504
  36.2597641  75.0284500  31.0295345  36.0015419  75.9501571  31.0279675
  35.7282681  74.6314935  31.7195809  33.8108406  73.4761540  24.2529788
  33.9324317  72.5478186  24.4520675  33.5210448  73.4900226  23.3408103
  36.6799596  71.1616451  27.3896508  36.7021293  71.2255784  26.4348487
  37.0967655  70.3220959  27.5837014  47.0583221  80.8971710  25.4275730
  47.5014367  80.1479035  25.0294853  46.1809731  80.8881847  25.0449462
  27.8086811  79.2719853  34.7679146  27.0668547  79.4202488  35.3543776
  27.4879555  79.5328118  33.9045895  44.0910425  84.9001757  22.4369659
  44.6161749  85.2389030  21.7118979  44.0032778  83.9648773  22.2532794
  33.2949485  74.9893538  38.4619720  33.3437641  75.8655660  38.0797490
  33.8372000  74.4470931  37.8891364  43.7804331  85.5334661  37.7420857
  42.9899875  85.5158800  37.2025357  43.5437686  86.0722955  38.4969894
  43.9002206  82.3827127  35.0553586  43.9500211  82.2177135  35.9969109
  43.7916130  81.5154386  34.6651467  41.1905969  78.3658055  36.3712893
  42.0915831  78.2264520  36.0796890  41.2653943  78.5312510  37.3111070
  35.5248774  75.7424910  35.2166079  34.6552083  76.0358476  34.9448667
  35.7608254  76.3265355  35.9373343  45.4020403  84.8024069  35.2995607
  45.1105211  85.1654049  36.1359068  44.7892534  84.0891077  35.1208940
  46.6016085  82.3676949  27.8198178  47.4362977  82.8066753  27.9835738
  46.7375214  81.8915602  27.0006423  43.6507591  79.9256683  33.7675665
  44.1261713  80.1184330  32.9594517  42.7273157  79.9815869  33.5219049
  30.5391098  81.0880851  23.3506744  30.2937140  80.1843181  23.5486954
  30.7087012  81.0898001  22.4086222  38.2287808  71.9604527  32.7331499
  38.7469752  72.6965554  32.4077988  37.8742941  72.2668520  33.5678258
  29.8086745  76.8209208  20.8492905  29.1155990  76.8953563  20.1932941
  29.5638497  76.0569552  21.3714422  38.4800402  68.3804809  28.2532396
  38.7602156  67.7127999  28.8792822  39.2651009  68.5733905  27.7407060
  42.3509260  76.8022443  32.0003971  43.3026683  76.9020541  32.0216195
  42.1812711  76.0100712  32.5102055  40.3723640  73.8878027  32.1863372
  39.7773572  74.1683039  31.4909861  40.0873336  74.3771928  32.9580113
  44.8297338  80.0228563  31.1146271  44.7973658  79.0844564  31.3005955
  45.4397962  80.1012600  30.3812096  36.6680669  78.8924616  17.1573475
  37.6139774  78.7630824  17.2261893  36.2894914  78.1539278  17.6342903
  44.9791827  76.8139607  31.1604554  44.4630875  76.0298063  30.9734483
  45.8631775  76.4858323  31.3251073  42.6402553  70.5580622  27.1200367
  42.4427375  70.2495710  28.0043699  43.2502259  71.2842261  27.2498296
  50.6473888  81.0844570  30.2552307  51.3777276  80.8229858  30.8160011
  50.0380833  80.3473292  30.2954375  48.7289185  79.2252433  30.8526759
  48.0022349  79.0908398  30.2443250  48.3136472  79.5329261  31.6583477
  36.5519361  82.9442362  38.6174132  37.4722371  83.1220961  38.8114178
  36.5168944  81.9998408  38.4653831  34.8523586  76.8174593  17.0928360
  33.9455041  76.5207705  17.1691074  35.1299567  76.5204411  16.2262646
  25.7701526  78.1380956  27.5427406  25.4504311  77.2846264  27.2501780
  25.2234955  78.3529534  28.2985374  36.4685652  71.3611482  23.2472601
  35.6586380  71.0158567  23.6227847  37.1570069  71.0519026  23.8360213
  38.3976200  70.4389529  24.8696898  38.9507239  70.8584982  25.5286921
  38.6346286  69.5125277  24.9119854  34.4209299  76.4276603  40.6499662
  34.3206026  77.3770960  40.5811753  34.2030841  76.0994842  39.7775732
  33.6222371  73.6761528  17.2340339  34.4841535  74.0016426  17.4936157
  33.8072715  72.8893024  16.7213405  41.7755007  72.5490054  24.3775562
  41.1953676  73.2074858  23.9953615  41.5090940  71.7267399  23.9662980
  40.2258574  71.9495112  26.5796882  40.7258352  72.0611646  25.7711201
  40.8694181  71.6456165  27.2197691  34.2840569  79.8573742  39.4664723
  33.8007651  80.6574102  39.6728612  34.3701508  79.8681686  38.5132167
  40.5579885  74.7090145  23.4331910  39.6705740  74.9939795  23.2152105
  40.9733874  74.5483908  22.5859187  43.9094421  74.7336666  27.1486250
  44.6854811  75.2233118  27.4210866  43.1842555  75.1594720  27.6058119
  46.3466980  75.4464285  28.2060190  46.9411471  75.2060021  27.4953499
  46.4193564  74.7271415  28.8333727  40.5320909  80.2244681  23.6482201
  40.4756110  80.6813232  22.8089833  41.0849251  79.4635365  23.4705043
  44.3425715  76.0134412  24.4732320  44.0862649  75.6131048  25.3040528
  43.7178583  76.7278206  24.3482459  48.6538053  78.7530486  26.9803611
  48.0937611  78.8223675  27.7535174  48.0481556  78.5771470  26.2603108
  41.6109796  84.9117348  19.5778390  42.4455400  84.4798547  19.3955865
  41.4494139  84.7399362  20.5055285  41.2655688  81.4149462  20.9434730
  41.2104492  81.2493733  20.0023174  40.6401744  82.1225495  21.0996919
  26.0548203  76.6517526  34.7696152  26.7007067  76.1416480  35.2583377
  25.8465354  77.3886208  35.3439577  38.5801595  83.7198374  40.2688293
  39.4492755  83.8939026  39.9074927  38.1008347  84.5392790  40.1464022
  34.5751814  70.9157571  20.5220048  34.5630484  71.8599411  20.6788319
  35.4675236  70.7327716  20.2279509  38.3903933  67.5100347  24.7765985
  37.6236329  66.9558834  24.9222667  38.8014638  67.5822216  25.6380137
  30.3945694  73.7985143  38.8671166  31.2577156  73.4421948  39.0774491
  29.8211105  73.4599038  39.5546570  52.7169187  86.8035261  32.1114362
  52.3852512  87.6730672  31.8875577  52.1214801  86.4871545  32.7908393
  54.4759497  89.7246785  30.9685586  53.8333877  90.0179318  30.3225381
  53.9714425  89.6099706  31.7738783  49.8152319  84.6504842  31.7285676
  49.4716588  85.5406484  31.6524787  50.1831282  84.4606500  30.8655261
  48.8948859  87.0209497  29.6934909  48.3913655  86.9839632  28.8802715
  49.1879466  87.9302240  29.7531566  45.0476732  86.2091684  24.7992527
  44.3941144  85.8940701  24.1749142  45.0057206  85.5867424  25.5252350
  51.6139985  83.9098401  26.8303414  51.9198861  83.0495765  26.5429329
  52.3392589  84.5016021  26.6302408  51.8841603  86.3392636  29.3287335
  50.9704682  86.5696863  29.4969542  52.3134704  86.4231081  30.1801367
  45.8630303  86.2417409  31.1269349  46.6856372  85.7677887  31.0048240
  46.1068366  87.0207893  31.6268036  47.5193351  86.4908368  27.3896508
  47.5415048  86.5547701  26.4348487  47.9361410  85.6512877  27.5837014
  49.0681562  87.2896445  32.7331499  49.5863506  88.0257472  32.4077988
  48.7136695  87.5960438  33.5678258  49.3194156  83.7096727  28.2532396
  49.5995910  83.0419916  28.8792822  50.1044763  83.9025823  27.7407060
  53.4796308  85.8872540  27.1200367  53.2821129  85.5787628  28.0043699
  54.0896014  86.6134179  27.2498296  47.3079406  86.6903400  23.2472601
  46.4980135  86.3450485  23.6227847  47.9963823  86.3810944  23.8360213
  49.2369955  85.7681447  24.8696898  49.7900993  86.1876900  25.5286921
  49.4740041  84.8417195  24.9119854  52.6148762  87.8781972  24.3775562
  52.0347431  88.5366776  23.9953615  52.3484694  87.0559316  23.9662980
  51.0652328  87.2787030  26.5796882  51.5652106  87.3903564  25.7711201
  51.7087936  86.9748082  27.2197691  49.2297688  82.8392265  24.7765985
  48.4630083  82.2850752  24.9222667  49.6408393  82.9114134  25.6380137
   4.7353315  17.4392298  24.0532431   4.2917169  16.6528677  23.7353336
   5.3970529  17.6271449  23.3876322   6.8334553  17.7195098  22.0813833
   6.8153028  18.5403979  21.5894102   7.7554473  17.5949174  22.3063974
   3.2907607  15.2339228  22.9237341   3.8235944  14.4727516  22.6936649
   2.7621688  14.9412880  23.6661495  12.6835285  14.2084194  18.9023670
  12.8771175  15.1130004  19.1482945  12.5835903  13.7491613  19.7362255
   7.7450394  14.3590937  24.4764551   7.5935900  14.1301488  23.5594634
   7.7355073  15.3161538  24.4895896   9.4542601  17.3910059  22.5541033
   9.3955147  16.7069279  21.8871616   9.8562119  18.1329049  22.1021659
   9.4560008  15.3549643  20.7855012   8.5686787  15.0175565  20.9081411
  10.0258559  14.6232674  21.0223778   5.4459845  19.9137929  19.9074414
   6.1587817  20.5485394  19.8350316   4.9549873  20.0101795  19.0914416
   4.3460617  10.9596791  25.0398572   3.6701254  10.8590921  25.7100948
   5.1688251  10.8036005  25.5034570   3.0883400  22.2663719  19.2756188
   3.6401708  22.4295340  20.0405274   3.4289594  22.8568157  18.6036213
   7.9394275  17.0924976  25.1304843   8.4834179  17.7054935  24.6359798
   7.3581119  17.6504555  25.6471856   3.2349212  19.8322200  21.2904843
   3.5436338  19.5871347  22.1627542   4.0324694  20.0368839  20.8023713
  11.2623069  16.5521030  24.4666164  10.4718613  16.5345169  23.9270663
  11.0256424  17.0909324  25.2215201  11.3820944  13.4013497  21.7798893
  11.4318949  13.2363504  22.7214415  11.2734867  12.5340756  21.3896773
   8.6724706   9.3844425  23.0958199   9.5734569   9.2450890  22.8042197
   8.7472681   9.5498880  24.0356377  12.8839141  15.8210438  22.0240914
  12.5923949  16.1840419  22.8604375  12.2711272  15.1077447  21.8454246
   4.0338099  13.9628732  25.3419438   4.9541109  14.1407331  25.5359485
   3.9987682  13.0184777  25.1899138   6.0620333  14.7384743  26.9933599
   6.9311493  14.9125395  26.6320234   5.5827085  15.5579160  26.8709329
  17.7212809  26.4473369  16.3978874  18.3591219  26.3280117  15.6942214
  17.6033652  27.3954213  16.4566826  14.5302515  26.4000797  16.3340399
  14.1921027  26.2841862  15.4460933  15.3992283  25.9991962  16.3141405
  15.0122298  27.5535649  22.2926604  15.0010939  27.1588447  21.4207108
  15.1742938  26.8201722  22.8860376   7.9353763  29.7487465  15.1621510
   8.7275055  29.4078290  14.7467809   8.1750413  29.8582440  16.0823663
  15.9688890  31.9207241   7.6351754  15.3176869  32.5061322   7.2485768
  16.7633252  32.4513436   7.6946792  11.7329559  30.3372761  21.2405788
  11.4419425  31.2418392  21.1252454  12.3686544  30.3789288  21.9549858
  12.6585766  27.7149609  17.8307148  13.2549338  27.4905632  17.1164111
  12.7160738  26.9734355  18.4332596  17.2754077  24.1724823  13.4732082
  18.0617167  23.7544246  13.1222499  17.5392782  25.0770915  13.6413730
  22.6762505  24.1100056  14.3765060  23.4087676  23.5399273  14.6102890
  21.9201860  23.7221657  14.8171566  14.2938624  26.5327298  11.5728403
  13.9296832  26.0057919  12.2841324  15.1505740  26.1425767  11.3994888
  20.1987925  17.8221630  18.8359669  19.8671250  18.6917041  18.6120884
  19.6033538  17.5057914  19.5153699  16.6919444  30.0234176  18.2355582
  16.3920168  30.9259215  18.1271389  16.3470504  29.7566360  19.0876735
  10.1431926  26.4747973  14.2692286   9.2182422  26.3424187  14.4769978
  10.3916339  27.2542192  14.7662229  20.0916588  22.5416716  15.9153019
  19.1833466  22.4732125  15.6211780  20.0404184  23.0188661  16.7434845
   7.5040737  26.1181247  15.1036075   7.6333118  26.3715726  16.0175487
   6.8238188  26.7108955  14.7840730  11.6740224  36.7878497  11.2026549
  11.5964254  37.7386322  11.2815030  11.0701868  36.4424369  11.8601476
  14.1657454  23.9606362  23.8587916  13.3890788  24.5200282  23.8490781
  14.8048017  24.4463145  24.3802786  21.9578235  20.7433155  17.6930893
  21.3152615  21.0365688  17.0470688  21.4533163  20.6286075  18.4984090
  12.4203826  26.7691815  23.4205883  13.1618511  27.3076859  23.1440707
  11.7140812  27.3958104  23.5777435  17.8959166  28.9120956  22.0178045
  18.3042522  28.4703366  21.2732677  17.1736427  28.3373583  22.2712238
  14.2490236  23.8493563  19.3911602  15.0951431  24.2732976  19.5346251
  14.1888874  23.1927187  20.0850165  18.2187981  29.4722147  15.7730334
  17.5896843  29.6367861  15.0706402  17.8313643  29.8863756  16.5441298
  22.0977212  30.4076584  13.1274697  21.4128251  30.7875486  12.5771731
  22.1821062  31.0171911  13.8606645  17.3989681  21.5097931  21.0492775
  17.1550613  22.2639992  20.5127051  17.6749612  21.8883279  21.8840022
  19.3528144  28.0536543  19.7270041  19.5645039  28.6968303  19.0504422
  19.3057892  27.2198860  19.2591971  16.9554373  20.6654364  16.6306613
  16.0938852  20.9635618  16.9223351  16.9816808  20.8824763  15.6987646
  13.7715942  29.2096555  13.0380419  14.2354288  29.4884258  12.2485041
  13.5072741  28.3079999  12.8553509  10.6640024  28.7568036  15.9760182
  11.2341381  29.1855305  15.3377667  11.2548135  28.4750621  16.6744368
  11.1565190  23.9231464  24.2221193  10.5263851  24.6047744  24.4556590
  11.0501278  23.8114545  23.2774332  20.4673972  30.9308499  17.8992398
  21.2891416  30.5288686  17.6175080  20.4636375  30.8276733  18.8508514
  14.2330575  30.4792542  20.0553109  14.2975008  30.9412949  20.8911281
  13.5241499  29.8489907  20.1835419   4.7347865  23.8433750  17.5802108
   4.9855904  24.7280760  17.8459684   5.2707414  23.6638352  16.8077200
  28.5579965  27.2747247  14.2477370  27.8043673  26.7054645  14.0921374
  28.6927506  27.2409912  15.1948004  13.9478593  32.1460650   9.9232089
  13.8124268  32.9912185  10.3516937  14.4888406  32.3479927   9.1598023
  10.4345933  18.2252229  26.5846444  10.0412878  17.6718428  27.2594089
  11.2512073  18.5362808  26.9752962   9.2102875  32.7801844  12.5782767
   9.3869504  33.7019809  12.3903751  10.0059709  32.4660263  13.0077147
  13.3513894  19.6410109  24.1766701  14.0923607  20.2417262  24.0971163
  13.5831817  18.8987746  23.6184744   8.4955232  24.8266476  22.4544931
   8.3808747  23.9251733  22.7552030   7.6399750  25.0730173  22.1029747
  15.5747070  32.7684216  24.0532431  15.1310924  31.9820595  23.7353336
  16.2364283  32.9563367  23.3876322  10.3334191  34.2980018  18.5793110
  10.8841616  34.1697081  17.8070104   9.4945667  34.5974907  18.2288003
  17.6728308  33.0487016  22.0813833  17.6546783  33.8695897  21.5894102
  18.5948228  32.9241091  22.3063974  14.1301362  30.5631146  22.9237341
  14.6629699  29.8019434  22.6936649  13.6015443  30.2704797  23.6661495
  17.2971057  15.6691211  18.4530983  16.9535326  16.5592853  18.3770093
  17.6650019  15.4792869  17.5900568  16.3767597  18.0395867  16.4180216
  15.8732393  18.0026002  15.6048021  16.6698204  18.9488609  16.4776873
  22.2355614  28.4132177   8.8956591  21.4585056  28.0743337   8.4511753
  22.9147095  28.4184800   8.2211556  15.4954074  29.6917138  10.4356153
  14.9675436  28.9569898  10.1229390  14.9941577  30.4691814  10.1896121
  20.4746920  27.8866158  15.5523199  19.8170595  28.5765420  15.6403328
  21.2787320  28.2762590  15.8957186  19.2852379  26.2410531  13.6027141
  19.7984261  26.8740523  14.1048851  19.9353603  25.6411727  13.2370501
  16.5474754  36.2194855   6.3587812  15.8736452  36.5226552   6.9672770
  16.9340575  37.0223936   6.0093269  15.7633210  23.7159987  15.8485481
  14.8455772  23.9374934  15.6907170  16.1793354  23.7906297  14.9897189
  16.5468258  25.1151402  10.9788162  17.2940077  25.6272800  10.6695284
  16.8159847  24.7935455  11.8392555  20.0514175  31.2216533  11.7306284
  19.5976503  30.3807443  11.7871474  19.4208142  31.8577931  12.0681064
  18.9947095  22.1508519  12.9606951  18.2569852  21.6385905  13.2917194
  19.2473869  21.7108900  12.1490228  18.4947115  33.0593029  12.6656102
  18.7870089  33.6198086  11.9468467  19.0045735  33.3521590  13.4209261
  13.3679802  25.2238564  14.0624911  13.4228412  24.2712400  13.9867388
  12.5571004  25.3798003  14.5466210  13.4580740  33.8373380  13.7549555
  13.4156919  34.0634227  12.8258087  14.3743439  33.6036755  13.9035356
  16.9046374  24.3057448  20.6530184  17.2595761  24.5328921  21.5124650
  17.5518505  24.6375825  20.0307439  22.6344111  27.4275884  11.3579513
  22.4962009  27.6177480  10.4300702  22.2780329  28.1895267  11.8147564
  10.7986237  21.4133979  17.4376525  11.4385616  21.2722738  16.7399489
   9.9663767  21.1268492  17.0615127  22.6613490  29.4952411  16.3690785
  23.0949997  29.4027700  17.2173839  23.3745071  29.4709911  15.7310801
  11.5746541  30.7136409  13.5511518  12.3687139  30.2186730  13.3494093
  10.8638233  30.1854273  13.1879223  16.3941385  33.0954505  17.9023885
  16.4478407  33.6645441  18.6701601  15.5256167  33.2656390  17.5377922
   9.2739779  22.7972061  19.3848337   9.9462832  22.5889423  18.7360985
   8.4469565  22.5994147  18.9453569  15.1765351  19.4234002  21.4013997
  14.5293266  20.1223952  21.3078474  15.9466366  19.8570146  21.7690246
  15.3529485  27.2614767  19.4610817  16.2821545  27.4125927  19.2879784
  14.9320515  27.3498788  18.6059464  14.1517817  31.2865431  17.2309355
  14.0128902  30.9184216  18.1035293  13.3632413  31.8013071  17.0593313
  14.7465969  36.3874528   8.5734891  14.9217724  35.9162571   9.3880514
  14.0598757  37.0140294   8.8016152  15.7023032  30.6647034  14.6198193
  15.3672864  30.6247804  15.5155842  15.2026978  29.9991750  14.1468603
   9.6767276  26.0714664  20.1450774   9.5387074  25.3394903  20.7462313
  10.5872199  25.9823564  19.8634961  12.3049576  25.7834623  19.6334453
  13.0149195  25.1427816  19.5921072  12.2618885  26.0347518  20.5560634
  11.0178510  22.7699841  21.4530093  10.4815867  22.3190580  22.1051689
  10.4295219  22.9045750  20.7100557   9.3127054  39.5363891  15.3474751
   9.5523652  40.1682415  16.0253770   8.4696250  39.1851931  15.6340111
   6.7517632  21.9055849  18.5383087   6.6675820  21.2981519  17.8033497
   5.9300338  22.3964867  18.5392584  13.8254916  35.3443013  17.7516255
  13.7525087  36.1497985  18.2635560  13.3832309  35.5434979  16.9264277
  13.6144695  34.5814783  11.2619077  12.8312217  35.1236463  11.3557301
  14.3137441  35.0988763  11.6613318  24.7771103  26.0949778  15.5471574
  24.7660979  26.9774494  15.1765507  23.9088482  25.7421329  15.3526111
  16.2853599  35.2429847  19.9074414  16.9981572  35.8777312  19.8350316
  15.7943628  35.3393713  19.0914416  18.0071126  29.1481100  11.4791706
  17.0727405  29.2682562  11.3096410  18.1847795  28.2453567  11.2151716
  21.3943678  24.9898419  12.0141740  21.8604130  25.8226411  11.9402043
  21.8451178  24.5243401  12.7186998  11.3365513  32.9924291  20.7279985
  12.0374972  33.6260774  20.8809379  10.8660628  33.3339022  19.9675624
  19.4619909  31.3342240   9.0127892  19.7379753  31.2198835   9.9221766
  18.5924407  30.9359725   8.9740065  19.3660340  17.3579006  16.0532641
  18.4523420  17.5883233  16.2214848  19.7953442  17.4417450  16.9046674
  19.1366799  25.5468898  18.5532535  18.4838249  25.7944805  17.8984988
  19.5147179  24.7333036  18.2195013  16.0973973  35.5828591  12.6560706
  16.2796367  34.7650247  13.1188458  16.9206959  35.7996283  12.2185596
  16.4316138  34.5096776   9.9175754  16.9603905  33.9989231   9.3045916
  16.6944358  34.1939307  10.7821287  15.1854372  26.2888709  25.0398572
  14.5095009  26.1882838  25.7100948  16.0082006  26.1327923  25.5034570
   6.9333231  32.5260646  17.6611088   7.5186668  31.7804334  17.7938992
   6.7358069  32.8364602  18.5447751   9.7871886  35.5611893  12.6773530
   9.1182261  36.0458021  12.1937570   9.6484756  35.8081113  13.5916909
  13.9277155  37.5955637  19.2756188  14.4795463  37.7587258  20.0405274
  14.2683348  38.1860074  18.6036213   8.9041648  19.9430786  19.8778073
   8.9682974  20.8045617  19.4655471   8.8408768  19.3304788  19.1450432
   8.3793920  22.0153919  23.5251107   9.0065959  21.6330996  24.1388632
   7.5221839  21.7968121  23.8906800  17.0645542  35.5437612  16.2619871
  16.9396681  34.7427352  15.7530816  17.7224633  36.0383805  15.7733840
  19.1280450  33.3446632  17.8899421  18.1810786  33.2251983  17.8177747
  19.4763224  32.4569130  17.9725682  11.4880024  19.2340771  21.7137662
  12.0114426  19.4803068  22.4763972  11.2692357  20.0660806  21.2940800
  16.1326884  33.1399348  14.0903773  15.9851846  32.2116056  14.2711343
  16.9580377  33.1619439  13.6060848  19.7361006  33.9627907  15.1768646
  20.6607553  33.7570768  15.0393097  19.5676309  33.7144308  16.0857987
  12.6932569  20.1754466  19.3987333  12.3529389  19.3762279  19.8008013
  11.9871575  20.4756177  18.8264166  13.3449041  17.2603779  17.8514656
  14.1675110  16.7864257  17.7293546  13.5887104  18.0394262  18.3513342
  10.8687619  23.9522899  15.6606635  10.7232200  24.2663202  16.5530916
  10.3912823  24.5707800  15.1077533  12.7284002  20.9425447  15.7087524
  12.7145571  20.0466541  15.3719822  13.4456430  20.9496111  16.3425810
  14.5810133  21.3762787  17.7540652  14.3227911  22.2979858  17.7524982
  14.0495173  20.9793222  18.4441116  19.5256322  34.4813575  10.5330737
  19.6993199  33.9159997   9.7804589  20.0185213  35.2814469  10.3510227
   5.3433282  26.4928244  18.5994296   4.7986750  27.2688052  18.7314570
   6.2212631  26.8399048  18.4413417  25.3795713  27.2449997  12.1521037
  25.8226859  26.4957323  11.7540160  24.5022223  27.2360134  11.7694769
  20.5131494  33.7980339   7.6327635  21.2082399  34.4187032   7.8514950
  20.8554644  32.9475690   7.9080013   6.1299303  25.6198140  21.4924453
   5.3881039  25.7680775  22.0789083   5.8092048  25.8806406  20.6291202
  22.4122917  31.2480044   9.1614966  22.9374241  31.5867317   8.4364286
  22.3245270  30.3127060   8.9778101  14.0742966  35.1614118  21.2904843
  14.3830093  34.9163265  22.1627542  14.8718448  35.3660757  20.8023713
  14.0963578  37.3152028  13.5210219  13.6568568  36.8228406  14.2143076
  14.8471695  36.7724995  13.2802294   6.5755917  33.5063569  13.5234847
   7.4013937  33.2067340  13.1433491   6.2249969  32.7371191  13.9724636
  11.5437450  32.8590037  15.5932521  10.9217460  32.1960742  15.2934749
  12.2142317  32.8851169  14.9106169   4.7764522  31.4249895  14.4823781
   3.9396430  30.9972069  14.3007782   4.7488168  31.6182338  15.4194572
  11.6161978  21.3371825  25.1865027  11.6650133  22.2133948  24.8042797
  12.1584492  20.7949218  24.6136670  13.8461266  22.0903197  21.9411386
  12.9764576  22.3836763  21.6693974  14.0820747  22.6743642  22.6618649
  24.9228578  28.7155236  14.5443484  25.7575469  29.1545040  14.7081045
  25.0587706  28.2393889  13.7251730  16.5500300  18.3082814  19.4576806
  17.0682244  19.0443841  19.1323295  16.1955433  18.6146807  20.2923565
  20.6721753  23.1500731  18.7249278  21.6239175  23.2498828  18.7461502
  20.5025203  22.3578999  19.2347362  18.6936132  20.2356314  18.9108679
  18.0986064  20.5161327  18.2155167  18.4085829  20.7250215  19.6825420
  17.8243622  34.1879241   7.6711311  18.7574296  34.1224802   7.8744187
  17.7366835  35.0235508   7.2125844  20.4531639  33.5045111   4.6315259
  20.3745271  33.1704975   5.5251017  21.2741306  33.9966879   4.6306731
  23.1509830  26.3706850  17.8391577  23.1186150  25.4322851  18.0251261
  23.7610454  26.4490887  17.1057402  23.3004319  23.1617894  17.8849861
  22.7843367  22.3776350  17.6979789  24.1844267  22.8336610  18.0496380
  20.9615046  16.9058909  13.8445673  20.7639867  16.5973998  14.7289005
  21.5714751  17.6320548  13.9743603  28.9686380  27.4322857  16.9797614
  29.6989769  27.1708145  17.5405317  28.3593326  26.6951579  17.0199682
  14.8731854  29.2920650  25.3419438  15.7934863  29.4699249  25.5359485
  14.8381437  28.3476695  25.1899138   7.8693926  27.2021684  17.9842220
   8.0879936  28.1338792  18.0030253   8.2819700  26.8429659  18.7697023
  12.7421792  22.7754890  27.3744968  12.6418518  23.7249247  27.3057060
  12.5243334  22.4473129  26.5021039   3.9602279  28.1062155  16.2365835
   3.2665750  27.6916107  15.7235789   4.7075270  28.1482691  15.6399253
  12.6053062  26.2052029  26.1910030  12.1220143  27.0052389  26.3973919
  12.6914001  26.2159974  25.2377474   8.5326399  30.0956563  18.2278464
   9.4869653  30.0640506  18.1608395   8.3338923  29.6347187  19.0428690
   9.1225781  28.6657680  20.7949262   9.9418670  29.1601758  20.8184099
   9.3962589  27.7489648  20.7666829  22.2306914  21.0814953  13.8731556
  23.0067304  21.5711405  14.1456173  21.5055048  21.5073007  14.3303426
  24.6679472  21.7942572  14.9305497  25.2623963  21.5538308  14.2198805
  24.7406056  21.0749703  15.5579033   6.8876628  35.6376183  15.2448662
   6.7531096  34.8776584  14.6786660   6.4708690  36.3617083  14.7777451
  18.8533401  26.5722968  10.3727507  18.7968603  27.0291519   9.5335140
  19.4061744  25.8113652  10.1950350  22.6638207  22.3612700  11.1977627
  22.4075141  21.9609335  12.0285834  22.0391075  23.0756494  11.0727766
  26.9750545  25.1008773  13.7048918  26.4150103  25.1701962  14.4780480
  26.3694048  24.9249758  12.9848414  10.0445754  36.5345500  15.4567104
   9.9278138  37.4790932  15.3545795   9.2238200  36.2319062  15.8452904
  19.9322288  31.2595636   6.3023697  20.7667892  30.8276834   6.1201172
  19.7706631  31.0877649   7.2300592   4.3760696  22.9995813  21.4941459
   5.0219559  22.4894767  21.9828684   4.1677847  23.7364495  22.0684884
  16.9014088  30.0676661  26.9933599  17.7705247  30.2417313  26.6320234
  16.4220839  30.8871078  26.8709329  11.0700268  37.1873762  18.6723033
  11.9727515  37.2197372  18.9889528  10.8437638  36.2574213  18.6869369
  12.8253870  35.9404748  15.3333111  11.8749501  35.9406610  15.2197484
  13.1286356  35.1937483  14.8169146   8.7158187  20.1463430  25.5916473
   9.5789648  19.7900235  25.8019797   8.1423597  19.8077325  26.2791877
  25.3696270  41.7292715  16.3340399  25.0314781  41.6133780  15.4460933
  26.2386038  41.3283880  16.3141405  21.2283085  43.5828191  12.3237289
  20.6647951  43.4918128  11.5553577  21.1135480  42.7628096  12.8039782
  18.7747517  45.0779383  15.1621510  19.5668809  44.7370208  14.7467809
  19.0144168  45.1874358  16.0823663  26.8082644  47.2499159   7.6351754
  26.1570624  47.8353239   7.2485768  27.6027007  47.7805354   7.6946792
  20.7338271  44.3388296   8.0338889  21.5069147  43.7917283   7.8951765
  21.0863670  45.2032546   8.2453350  23.4979521  43.0441527  17.8307148
  24.0943093  42.8197549  17.1164111  23.5554492  42.3026272  18.4332596
  23.0704549  40.4980962   5.6657339  23.3230070  39.9762484   4.9040802
  22.1329108  40.3347108   5.7684022  28.2857909  44.9389591   8.1720739
  27.6503742  45.0124217   8.8841643  27.9555316  45.5283190   7.4939818
  33.5156259  39.4391974  14.3765060  34.2481431  38.8691191  14.6102890
  32.7595615  39.0513574  14.8171566  22.7900838  42.4009068   7.8681714
  22.6737096  41.7253972   8.5362798  22.9003098  41.9141442   7.0513867
  25.1332379  41.8619215  11.5728403  24.7690586  41.3349836  12.2841324
  25.9899495  41.4717684  11.3994888  31.0381679  33.1513548  18.8359669
  30.7065004  34.0208959  18.6120884  30.4427293  32.8349832  19.5153699
  24.7737866  36.8909115   6.5689751  24.9412268  37.7589351   6.9360222
  24.5835035  37.0536397   5.6451041  27.5313199  45.3526094  18.2355582
  27.2313922  46.2551133  18.1271389  27.1864258  45.0858277  19.0876735
  20.9825680  41.8039891  14.2692286  20.0576177  41.6716105  14.4769978
  21.2310094  42.5834110  14.7662229  24.7527087  39.3466773   7.5536418
  24.6326712  39.7923823   8.3921898  24.0579675  39.6952090   6.9949956
  18.3434491  41.4473164  15.1036075  18.4726873  41.7007643  16.0175487
  17.6631943  42.0400872  14.7840730  22.5133979  52.1170414  11.2026549
  22.4358008  53.0678239  11.2815030  21.9095622  51.7716287  11.8601476
  30.4512153  39.8188246   8.3816752  31.3630009  40.0515632   8.2064450
  29.9421800  40.4025290   7.8191831  29.0581735  44.8014064  15.7730334
  28.4290598  44.9659778  15.0706402  28.6707397  45.2155674  16.5441298
  32.9370967  45.7368502  13.1274697  32.2522005  46.1167403  12.5771731
  33.0214816  46.3463829  13.8606645  24.6109697  44.5388472  13.0380419
  25.0748042  44.8176175  12.2485041  24.3466495  43.6371917  12.8553509
  21.5033778  44.0859954  15.9760182  22.0735135  44.5147222  15.3377667
  22.0941890  43.8042539  16.6744368  23.5478583  40.6611625   9.8469984
  24.2502626  41.1132668  10.3143910  23.2159212  40.0195444  10.4749877
  17.2903917  38.9195177  15.1487117  16.5002971  39.1752706  14.6727228
  17.7815164  39.7343515  15.2539158  31.3067727  46.2600416  17.8992398
  32.1285170  45.8580604  17.6175080  31.3030129  46.1568651  18.8508514
  19.2418662  39.2839757  12.1070594  18.4449826  39.3958451  12.6254090
  19.0144255  39.6226409  11.2411485  15.5741620  39.1725668  17.5802108
  15.8249658  40.0572678  17.8459684  16.1101168  38.9930269  16.8077200
  39.3973720  42.6039165  14.2477370  38.6437428  42.0346563  14.0921374
  39.5321261  42.5701829  15.1948004  24.7872348  47.4752567   9.9232089
  24.6518022  48.3204103  10.3516937  25.3282160  47.6771845   9.1598023
  18.2401745  44.9928005  10.4960014  18.7526266  45.7871256  10.6465579
  18.8924458  44.2954296  10.4293616  20.0496630  48.1093762  12.5782767
  20.2263258  49.0311726  12.3903751  20.8453463  47.7952181  13.0077147
  19.3348986  40.1558393  22.4544931  19.2202501  39.2543651  22.7552030
  18.4793504  40.4022090  22.1029747  21.1727945  49.6271935  18.5793110
  21.7235370  49.4988999  17.8070104  20.3339421  49.9266824  18.2288003
  28.5122062  48.3778934  22.0813833  28.4940537  49.1987815  21.5894102
  29.4341982  48.2533009  22.3063974  28.1364811  30.9983129  18.4530983
  27.7929081  31.8884771  18.3770093  28.5043774  30.8084787  17.5900568
  16.2050662  43.3216660  11.2719585  17.0425884  43.7313668  11.0553292
  16.3828930  42.3816102  11.2419779  28.1015094  40.9891740   6.9603418
  27.5861717  41.7596345   7.1991805  27.8292402  40.3156876   7.5836479
  25.6862205  35.8341441  12.0188656  24.8303801  35.4448291  11.8394295
  26.0989157  35.9133402  11.1588442  23.4604237  33.4526514  15.4246398
  24.3257234  33.2569323  15.0652287  23.5281746  33.2236866  16.3515754
  33.0749368  43.7424095   8.8956591  32.2978811  43.4035254   8.4511753
  33.7540849  43.7476718   8.2211556  27.8901397  38.8618832   8.7863199
  27.5851533  39.1764982   9.6373342  28.8431839  38.9400252   8.8290532
  26.3347829  45.0209056  10.4356153  25.8069191  44.2861815  10.1229390
  25.8335332  45.7983732  10.1896121  31.3140675  43.2158076  15.5523199
  30.6564349  43.9057338  15.6403328  32.1181074  43.6054508  15.8957186
  21.0666557  35.6828722  12.7962764  21.6410308  35.4603903  12.0635957
  21.6537539  35.7517416  13.5491366  21.3936144  37.7133183   6.8158650
  20.5573456  38.0507870   7.1367924  21.2540913  37.5782163   5.8785787
  23.3689224  32.5569971  11.5237834  22.7153637  32.2418988  10.8994449
  23.3269698  31.9345711  12.2497657  24.4800429  42.8389266   3.4391126
  23.5727491  42.6078519   3.6382275  24.9771461  42.0426885   3.6265107
  27.3868508  51.5486773   6.3587812  26.7130207  51.8518470   6.9672770
  27.7734330  52.3515853   6.0093269  27.3862012  40.4443320  10.9788162
  28.1333831  40.9564717  10.6695284  27.6553602  40.1227373  11.8392555
  25.6588663  42.9401861   7.9615116  24.7499882  42.6560894   8.0587586
  25.6883746  43.3600939   7.1018423  30.8907930  46.5508450  11.7306284
  30.4370257  45.7099360  11.7871474  30.2601897  47.1869849  12.0681064
  29.8340850  37.4800436  12.9606951  29.0963606  36.9677823  13.2917194
  30.0867623  37.0400818  12.1490228  29.3340869  48.3884947  12.6656102
  29.6263844  48.9490004  11.9468467  29.8439490  48.6813508  13.4209261
  29.9352477  30.2576688  13.5548720  30.2411354  29.3974052  13.2674635
  30.6605082  30.8494309  13.3547714  16.2276833  40.6607375  11.9430318
  16.0301233  40.0676736  11.2181385  15.6723497  40.3559585  12.6606257
  24.2073557  40.5530481  14.0624911  24.2622166  39.6004318  13.9867388
  23.3964759  40.7089921  14.5466210  25.3564750  44.4810604   5.3003195
  24.9184180  43.7646463   4.8408832  26.0975191  44.7086719   4.7388286
  22.1465917  39.1707541  11.8215290  21.3333782  39.4701712  12.2280482
  22.6424911  38.7763230  12.5389772  24.2974494  49.1665298  13.7549555
  24.2550673  49.3926144  12.8258087  25.2137193  48.9328673  13.9035356
  33.4737865  42.7567802  11.3579513  33.3355764  42.9469397  10.4300702
  33.1174084  43.5187184  11.8147564  21.6379991  36.7425897  17.4376525
  22.2779371  36.6014656  16.7399489  20.8057522  36.4560410  17.0615127
  33.5007245  44.8244329  16.3690785  33.9343751  44.7319618  17.2173839
  34.2138825  44.8001829  15.7310801  22.4140295  46.0428327  13.5511518
  23.2080894  45.5478647  13.3494093  21.7031988  45.5146190  13.1879223
  27.2335140  48.4246423  17.9023885  27.2872162  48.9937359  18.6701601
  26.3649921  48.5948308  17.5377922  18.7223059  40.1871409   9.6271270
  17.7920647  40.1255864   9.8441232  18.8180531  39.6647362   8.8307912
  18.6408608  36.7126222  12.2149512  18.9015425  37.6271555  12.1058672
  19.4625780  36.2450664  12.3646125  20.1133533  38.1263979  19.3848337
  20.7856586  37.9181341  18.7360985  19.2863320  37.9286065  18.9453569
  34.3622794  44.8668029  18.9023670  34.5558684  45.7713840  19.1482945
  34.2623412  44.4075448  19.7362255  24.9911571  46.6157349  17.2309355
  24.8522657  46.2476133  18.1035293  24.2026167  47.1304989  17.0593313
  25.5859723  51.7166446   8.5734891  25.7611479  51.2454489   9.3880514
  24.8992511  52.3432212   8.8016152  26.5416786  45.9938952  14.6198193
  26.2066619  45.9539722  15.5155842  26.0420732  45.3283668  14.1468603
  20.5161030  41.4006582  20.1450774  20.3780828  40.6686821  20.7462313
  21.4265954  41.3115482  19.8634961  29.4775978  43.3394986   4.8935252
  28.8605149  42.6141814   4.7968305  29.0092466  44.1004346   4.5502326
  20.1520808  54.8655808  15.3474751  20.3917407  55.4974332  16.0253770
  19.3090005  54.5143848  15.6340111  21.2674524  37.5580410   4.0156556
  20.3903990  37.4369211   3.6518803  21.7432277  36.7666489   3.7635445
  12.7876664  42.3457570  14.1098064  13.4747704  42.0319300  13.5219079
  12.6324793  43.2498935  13.8365315  17.5911386  37.2347767  18.5383087
  17.5069575  36.6273436  17.8033497  16.7694093  37.7256785  18.5392584
  24.6648670  50.6734931  17.7516255  24.5918842  51.4789902  18.2635560
  24.2226063  50.8726897  16.9264277  24.4538450  49.9106701  11.2619077
  23.6705972  50.4528381  11.3557301  25.1531195  50.4280680  11.6613318
  27.7635100  35.7201330  13.9053282  28.2603800  34.9671293  13.5854353
  26.9922082  35.7565647  13.3396492  35.6164857  41.4241696  15.5471574
  35.6054734  42.3066411  15.1765507  34.7482237  41.0713247  15.3526111
  27.1247354  50.5721765  19.9074414  27.8375326  51.2069230  19.8350316
  26.6337382  50.6685631  19.0914416  28.8464881  44.4773017  11.4791706
  27.9121159  44.5974480  11.3096410  29.0241549  43.5745484  11.2151716
  24.3470069  37.8618713  13.6324967  23.9767856  37.3089754  14.3205873
  24.8429161  37.2576847  13.0799967  32.2337432  40.3190337  12.0141740
  32.6997884  41.1518328  11.9402043  32.6844933  39.8535318  12.7186998
  22.1759267  48.3216208  20.7279985  22.8768727  48.9552691  20.8809379
  21.7054382  48.6630940  19.9675624  30.3013663  46.6634158   9.0127892
  30.5773507  46.5490753   9.9221766  29.4318162  46.2651643   8.9740065
  30.2054095  32.6870924  16.0532641  29.2917175  32.9175151  16.2214848
  30.6347196  32.7709368  16.9046674  26.9367727  50.9120509  12.6560706
  27.1190122  50.0942165  13.1188458  27.7600713  51.1288201  12.2185596
  27.2709893  49.8388694   9.9175754  27.7997659  49.3281149   9.3045916
  27.5338112  49.5231224  10.7821287  17.7726985  47.8552563  17.6611088
  18.3580422  47.1096251  17.7938992  17.5751824  48.1656520  18.5447751
  20.6265641  50.8903811  12.6773530  19.9576016  51.3749938  12.1937570
  20.4878510  51.1373031  13.5916909  12.3644640  40.4258164  16.3815531
  12.4028740  39.8921754  17.1752649  11.8584933  39.8993369  15.7626508
  24.7670909  52.9247554  19.2756188  25.3189217  53.0879176  20.0405274
  25.1077103  53.5151992  18.6036213  19.7435402  35.2722704  19.8778073
  19.8076729  36.1337535  19.4655471  19.6802523  34.6596706  19.1450432
  19.2187675  37.3445837  23.5251107  19.8459714  36.9622914  24.1388632
  18.3615594  37.1260038  23.8906800  15.9953218  39.1522266   9.4569462
  16.2906659  38.2432944   9.4036516  15.0941253  39.1310005   9.1350464
  27.9039296  50.8729530  16.2619871  27.7790436  50.0719270  15.7530816
  28.5618388  51.3675723  15.7733840  19.5247465  37.2278262  15.4397011
  18.8034050  37.8414230  15.3004484  20.3140721  37.7636027  15.3613657
  29.9674205  48.6738550  17.8899421  29.0204540  48.5543901  17.8177747
  30.3156978  47.7861048  17.9725682  17.7241059  36.8336363   9.5808787
  17.3953765  35.9533742   9.3983893  18.0780430  36.7784032  10.4685177
  26.9720638  48.4691266  14.0903773  26.8245601  47.5407973  14.2711343
  27.7974132  48.4911357  13.6060848  20.8382882  37.1209333   9.9484265
  21.1778955  37.6495254   9.2262873  21.2855003  37.4589739  10.7242831
  30.5754760  49.2919825  15.1768646  31.5001308  49.0862686  15.0393097
  30.4070063  49.0436226  16.0857987  22.8251030  35.6183955   8.1477558
  23.5459392  35.9965207   7.6441275  22.2016334  36.3372832   8.2512536
  26.9682152  36.3229104   9.0835890  27.1845767  37.2053742   8.7824718
  26.4876220  35.9315317   8.3541532  21.7081374  39.2814817  15.6606635
  21.5625955  39.5955120  16.5530916  21.2306578  39.8999717  15.1077533
  23.5677757  36.2717365  15.7087524  23.5539326  35.3758458  15.3719822
  24.2850185  36.2788029  16.3425810  30.3650076  49.8105492  10.5330737
  30.5386954  49.2451915   9.7804589  30.8578967  50.6106387  10.3510227
  16.1827036  41.8220161  18.5994296  15.6380504  42.5979969  18.7314570
  17.0606386  42.1690966  18.4413417  22.9714653  35.1531745  10.9775094
  23.0930564  34.2248391  11.1765982  22.6816695  35.1670431  10.0653410
  25.8405843  32.8386656  14.1141814  25.8627540  32.9025989  13.1593794
  26.2573902  31.9991164  14.3082320  36.2189467  42.5741915  12.1521037
  36.6620613  41.8249240  11.7540160  35.3415978  42.5652052  11.7694769
  31.3525249  49.1272257   7.6327635  32.0476153  49.7478949   7.8514950
  31.6948399  48.2767608   7.9080013  16.9693058  40.9490058  21.4924453
  16.2274794  41.0972693  22.0789083  16.6485802  41.2098323  20.6291202
  33.2516672  46.5771962   9.1614966  33.7767996  46.9159235   8.4364286
  33.1639024  45.6418977   8.9778101  24.9357333  52.6443945  13.5210219
  24.4962323  52.1520324  14.2143076  25.6865450  52.1016913  13.2802294
  17.4149672  48.8355486  13.5234847  18.2407691  48.5359258  13.1433491
  17.0643724  48.0663109  13.9724636  22.3831205  48.1881955  15.5932521
  21.7611214  47.5252660  15.2934749  23.0536072  48.2143086  14.9106169
  15.6158277  46.7541813  14.4823781  14.7790185  46.3263987  14.3007782
  15.5881922  46.9474256  15.4194572  21.9444712  46.7385878   9.0690981
  22.0932832  47.4221342   8.4157654  22.7511155  46.7190968   9.5840437
  35.7622332  44.0447153  14.5443484  36.5969223  44.4836958  14.7081045
  35.8981461  43.5685807  13.7251730  19.6997345  42.7651055  10.0752050
  19.4543387  41.8613385  10.2732261  19.8693259  42.7668206   9.1331528
  18.9692992  38.4979413   7.5738212  18.2762237  38.5723768   6.9178248
  18.7244744  37.7339757   8.0959729  27.6406649  30.0575014  14.9777703
  27.9208402  29.3898203  15.6038129  28.4257256  30.2504110  14.4652366
  25.4440117  49.2334008   6.5402729  24.8714084  49.8524195   6.0873201
  26.0172911  49.7833370   7.0742651  28.6637377  49.5171158   7.6711311
  29.5968050  49.4516720   7.8744187  28.5760590  50.3527425   7.2125844
  31.2925394  48.8337029   4.6315259  31.2139025  48.4996892   5.5251017
  32.1135060  49.3258797   4.6306731  33.9903585  41.6998768  17.8391577
  33.9579905  40.7614769  18.0251261  34.6004208  41.7782805  17.1057402
  25.8286916  40.5694821   3.8818781  26.7746020  40.4401029   3.9507199
  25.4501161  39.8309483   4.3588210  34.1398073  38.4909812  17.8849861
  33.6237122  37.7068268  17.6979789  35.0238022  38.1628528  18.0496380
  31.8008800  32.2350827  13.8445673  31.6033621  31.9265915  14.7289005
  32.4108506  32.9612466  13.9743603  39.8080135  42.7614775  16.9797614
  40.5383523  42.5000063  17.5405317  39.1987080  42.0243497  17.0199682
  37.8895432  40.9022638  17.5772065  37.1628595  40.7678602  16.9688557
  37.4742719  41.2099466  18.3828783  24.0129833  38.4944797   3.8173667
  23.1061288  38.1977910   3.8936380  24.2905814  38.1974616   2.9507953
  14.9307773  39.8151161  14.2672713  14.6110558  38.9616469  13.9747087
  14.3841201  40.0299739  15.0230680  18.7087681  42.5313602  17.9842220
  18.9273691  43.4630710  18.0030253  19.1213455  42.1721576  18.7697023
  25.6291899  33.0381687   9.9717908  24.8192627  32.6928772  10.3473154
  26.3176315  32.7289231  10.5605519  27.5582447  32.1159734  11.5942205
  28.1113485  32.5355187  12.2532228  27.7952533  31.1895482  11.6365161
  22.7828617  35.3531733   3.9585646  23.6447781  35.6786631   4.2181463
  22.9678962  34.5663229   3.4458712  14.7996033  43.4354072  16.2365835
  14.1059505  43.0208025  15.7235789  15.5469024  43.4774609  15.6399253
  30.9361254  34.2260259  11.1020869  30.3559923  34.8845063  10.7198921
  30.6697187  33.4037604  10.6908286  29.3864820  33.6265317  13.3042189
  29.8864599  33.7381851  12.4956508  30.0300428  33.3226370  13.9442998
  16.7132776  43.3672326  14.1131849  16.6903464  43.4660013  13.1613733
  17.0233412  44.2137477  14.4349016  19.3720154  45.4248481  18.2278464
  20.3263407  45.3932423  18.1608395  19.1732677  44.9639105  19.0428690
  19.9619536  43.9949597  20.7949262  20.7812425  44.4893676  20.8184099
  20.2356343  43.0781565  20.7666829  29.7186132  36.3860350  10.1577217
  28.8311987  36.6710000   9.9397412  30.1340121  36.2254113   9.3104494
  33.0700668  36.4106870  13.8731556  33.8461058  36.9003323  14.1456173
  32.3448802  36.8364925  14.3303426  35.5073227  37.1234490  14.9305497
  36.1017718  36.8830226  14.2198805  35.5799810  36.4041620  15.5579033
  17.7270382  50.9668101  15.2448662  17.5924850  50.2068502  14.6786660
  17.3102445  51.6909001  14.7777451  28.8629345  46.1505024   4.2525237
  29.5665196  46.3555027   4.8682893  28.1391994  46.7181786   4.5174321
  29.6927156  41.9014885  10.3727507  29.6362357  42.3583437   9.5335140
  30.2455498  41.1405570  10.1950350  33.5031962  37.6904617  11.1977627
  33.2468896  37.2901253  12.0285834  32.8784830  38.4048411  11.0727766
  37.8144299  40.4300691  13.7048918  37.2543857  40.4993880  14.4780480
  37.2087803  40.2541675  12.9848414  20.8839508  51.8637418  15.4567104
  20.7671892  52.8082850  15.3545795  20.0631955  51.5610979  15.8452904
  30.7716043  46.5887553   6.3023697  31.6061647  46.1568752   6.1201172
  30.6100386  46.4169567   7.2300592  30.4261935  43.0919667   7.6680036
  30.3710739  42.9263938   6.7268481  29.8007990  43.7995700   7.8242226
  15.2154450  38.3287731  21.4941459  15.8613314  37.8186685  21.9828684
  15.0071601  39.0656413  22.0684884  23.7358060  32.5927776   7.2465355
  23.7236730  33.5369616   7.4033626  24.6281482  32.4097921   6.9524816
  21.9094022  52.5165680  18.6723033  22.8121269  52.5489290  18.9889528
  21.6831392  51.5866131  18.6869369  23.6647624  51.2696666  15.3333111
  22.7143255  51.2698528  15.2197484  23.9680111  50.5229401  14.8169146
  27.5510180  29.1870552  11.5011292  26.7842576  28.6329039  11.6467974
  27.9620885  29.2592421  12.3625443  19.5551941  35.4755348  25.5916473
  20.4183403  35.1192153  25.8019797  18.9817352  35.1369243  26.2791877
  39.4000318  57.1057204  16.3978874  40.0378728  56.9863952  15.6942214
  39.2821161  58.0538048  16.4566826  36.2090024  57.0584633  16.3340399
  35.8708536  56.9425697  15.4460933  37.0779792  56.6575798  16.3141405
  32.0676840  58.9120109  12.3237289  31.5041705  58.8210046  11.5553577
  31.9529235  58.0920013  12.8039782  36.6909807  58.2119484  22.2926604
  36.6798448  57.8172283  21.4207108  36.8530447  57.4785557  22.8860376
  29.6141272  60.4071301  15.1621510  30.4062564  60.0662125  14.7467809
  29.8537922  60.5166276  16.0823663  37.6476399  62.5791077   7.6351754
  36.9964378  63.1645157   7.2485768  38.4420761  63.1097272   7.6946792
  31.5732026  59.6680214   8.0338889  32.3462902  59.1209201   7.8951765
  31.9257425  60.5324463   8.2453350  33.4117068  60.9956596  21.2405788
  33.1206934  61.9002227  21.1252454  34.0474053  61.0373124  21.9549858
  34.3373275  58.3733445  17.8307148  34.9336847  58.1489467  17.1164111
  34.3948247  57.6318190  18.4332596  33.9098304  55.8272880   5.6657339
  34.1623824  55.3054401   4.9040802  32.9722863  55.6639025   5.7684022
  38.9541586  54.8308658  13.4732082  39.7404676  54.4128082  13.1222499
  39.2180291  55.7354751  13.6413730  39.1251664  60.2681509   8.1720739
  38.4897497  60.3416135   8.8841643  38.7949070  60.8575107   7.4939818
  44.3550014  54.7683892  14.3765060  45.0875185  54.1983108  14.6102890
  43.5989369  54.3805492  14.8171566  33.6294592  57.7300986   7.8681714
  33.5130850  57.0545889   8.5362798  33.7396852  57.2433360   7.0513867
  35.9726133  57.1911133  11.5728403  35.6084340  56.6641754  12.2841324
  36.8293249  56.8009602  11.3994888  35.6131620  52.2201033   6.5689751
  35.7806023  53.0881269   6.9360222  35.4228789  52.3828314   5.6451041
  38.3706953  60.6818012  18.2355582  38.0707677  61.5843050  18.1271389
  38.0258013  60.4150195  19.0876735  31.8219435  57.1331808  14.2692286
  30.8969931  57.0008023  14.4769978  32.0703848  57.9126028  14.7662229
  41.7704097  53.2000552  15.9153019  40.8620975  53.1315960  15.6211780
  41.7191693  53.6772497  16.7434845  35.5920841  54.6758690   7.5536418
  35.4720466  55.1215741   8.3921898  34.8973429  55.0244008   6.9949956
  29.1828246  56.7765082  15.1036075  29.3120627  57.0299561  16.0175487
  28.5025697  57.3692790  14.7840730  33.3527733  67.4462332  11.2026549
  33.2751763  68.3970157  11.2815030  32.7489377  67.1008204  11.8601476
  43.6365744  51.4016990  17.6930893  42.9940124  51.6949523  17.0470688
  43.1320672  51.2869911  18.4984090  41.2905907  55.1480163   8.3816752
  42.2023763  55.3807550   8.2064450  40.7815554  55.7317208   7.8191831
  34.0991335  57.4275651  23.4205883  34.8406020  57.9660695  23.1440707
  33.3928321  58.0541940  23.5777435  39.5746675  59.5704791  22.0178045
  39.9830031  59.1287202  21.2732677  38.8523936  58.9957419  22.2712238
  39.8975490  60.1305982  15.7730334  39.2684352  60.2951696  15.0706402
  39.5101152  60.5447591  16.5441298  43.7764721  61.0660420  13.1274697
  43.0915760  61.4459321  12.5771731  43.8608571  61.6755746  13.8606645
  41.0315653  58.7120379  19.7270041  41.2432548  59.3552139  19.0504422
  40.9845401  57.8782695  19.2591971  38.6341882  51.3238199  16.6306613
  37.7726361  51.6219453  16.9223351  38.6604317  51.5408598  15.6987646
  35.4503451  59.8680390  13.0380419  35.9141797  60.1468093  12.2485041
  35.1860250  58.9663835  12.8553509  32.3427533  59.4151871  15.9760182
  32.9128890  59.8439140  15.3377667  32.9335644  59.1334456  16.6744368
  34.3872338  55.9903542   9.8469984  35.0896381  56.4424586  10.3143910
  34.0552966  55.3487361  10.4749877  32.8352699  54.5815299  24.2221193
  32.2051360  55.2631580  24.4556590  32.7288787  54.4698381  23.2774332
  28.1297671  54.2487095  15.1487117  27.3396725  54.5044624  14.6727228
  28.6208919  55.0635433  15.2539158  42.1461481  61.5892334  17.8992398
  42.9678925  61.1872521  17.6175080  42.1423884  61.4860568  18.8508514
  30.0812417  54.6131674  12.1070594  29.2843580  54.7250368  12.6254090
  29.8538009  54.9518326  11.2411485  35.9118084  61.1376377  20.0553109
  35.9762517  61.5996785  20.8911281  35.2029008  60.5073742  20.1835419
  26.4135374  54.5017585  17.5802108  26.6643413  55.3864595  17.8459684
  26.9494923  54.3222187  16.8077200  50.2367474  57.9331083  14.2477370
  49.4831182  57.3638481  14.0921374  50.3715015  57.8993747  15.1948004
  35.6266102  62.8044485   9.9232089  35.4911777  63.6496021  10.3516937
  36.1675915  63.0063763   9.1598023  29.0795500  60.3219923  10.4960014
  29.5920020  61.1163173  10.6465579  29.7318212  59.6246213  10.4293616
  30.8890384  63.4385679  12.5782767  31.0657013  64.3603644  12.3903751
  31.6847218  63.1244098  13.0077147  30.1742741  55.4850311  22.4544931
  30.0596256  54.5835568  22.7552030  29.3187259  55.7314008  22.1029747
  37.2534579  63.4268051  24.0532431  36.8098433  62.6404430  23.7353336
  37.9151792  63.6147202  23.3876322  32.0121700  64.9563853  18.5793110
  32.5629125  64.8280916  17.8070104  31.1733176  65.2558742  18.2288003
  39.3515817  63.7070851  22.0813833  39.3334292  64.5279732  21.5894102
  40.2735737  63.5824927  22.3063974  35.8088871  61.2214981  22.9237341
  36.3417208  60.4603269  22.6936649  35.2802952  60.9288633  23.6661495
  38.9758566  46.3275047  18.4530983  38.6322835  47.2176689  18.3770093
  39.3437528  46.1376704  17.5900568  27.0444416  58.6508577  11.2719585
  27.8819638  59.0605586  11.0553292  27.2222684  57.7108019  11.2419779
  38.9408848  56.3183658   6.9603418  38.4255472  57.0888263   7.1991805
  38.6686157  55.6448794   7.5836479  36.5255959  51.1633359  12.0188656
  35.6697556  50.7740209  11.8394295  36.9382911  51.2425320  11.1588442
  38.0555106  48.6979702  16.4180216  37.5519902  48.6609837  15.6048021
  38.3485713  49.6072445  16.4776873  34.2997992  48.7818432  15.4246398
  35.1650989  48.5861240  15.0652287  34.3675501  48.5528783  16.3515754
  43.9143123  59.0716013   8.8956591  43.1372565  58.7327172   8.4511753
  44.5934604  59.0768636   8.2211556  38.7295152  54.1910750   8.7863199
  38.4245287  54.5056899   9.6373342  39.6825594  54.2692170   8.8290532
  37.1741583  60.3500973  10.4356153  36.6462945  59.6153733  10.1229390
  36.6729086  61.1275650  10.1896121  42.1534429  58.5449994  15.5523199
  41.4958104  59.2349255  15.6403328  42.9574829  58.9346426  15.8957186
  31.9060311  51.0120640  12.7962764  32.4804063  50.7895821  12.0635957
  32.4931293  51.0809334  13.5491366  40.9639888  56.8994367  13.6027141
  41.4771770  57.5324358  14.1048851  41.6141112  56.2995562  13.2370501
  32.2329898  53.0425101   6.8158650  31.3967210  53.3799787   7.1367924
  32.0934668  52.9074080   5.8785787  34.2082979  47.8861889  11.5237834
  33.5547391  47.5710906  10.8994449  34.1663453  47.2637629  12.2497657
  35.3194184  58.1681184   3.4391126  34.4121245  57.9370437   3.6382275
  35.8165216  57.3718803   3.6265107  38.2262263  66.8778691   6.3587812
  37.5523961  67.1810388   6.9672770  38.6128084  67.6807771   6.0093269
  37.4420719  54.3743822  15.8485481  36.5243280  54.5958769  15.6907170
  37.8580863  54.4490133  14.9897189  38.2255767  55.7735238  10.9788162
  38.9727586  56.2856635  10.6695284  38.4947356  55.4519290  11.8392555
  36.4982417  58.2693778   7.9615116  35.5893636  57.9852811   8.0587586
  36.5277501  58.6892857   7.1018423  41.7301684  61.8800368  11.7306284
  41.2764012  61.0391278  11.7871474  41.0995651  62.5161766  12.0681064
  40.6734604  52.8092354  12.9606951  39.9357361  52.2969740  13.2917194
  40.9261378  52.3692736  12.1490228  40.1734624  63.7176865  12.6656102
  40.4657598  64.2781922  11.9468467  40.6833244  64.0105426  13.4209261
  40.7746231  45.5868606  13.5548720  41.0805108  44.7265969  13.2674635
  41.4998836  46.1786226  13.3547714  27.0670587  55.9899293  11.9430318
  26.8694987  55.3968653  11.2181385  26.5117251  55.6851503  12.6606257
  35.0467311  55.8822399  14.0624911  35.1015921  54.9296235  13.9867388
  34.2358513  56.0381838  14.5466210  36.1958505  59.8102522   5.3003195
  35.7577935  59.0938381   4.8408832  36.9368946  60.0378637   4.7388286
  32.9859671  54.4999459  11.8215290  32.1727537  54.7993629  12.2280482
  33.4818665  54.1055148  12.5389772  35.1368249  64.4957216  13.7549555
  35.0944428  64.7218062  12.8258087  36.0530948  64.2620590  13.9035356
  44.3131620  58.0859719  11.3579513  44.1749518  58.2761315  10.4300702
  43.9567838  58.8479102  11.8147564  32.4773746  52.0717814  17.4376525
  33.1173125  51.9306573  16.7399489  31.6451276  51.7852328  17.0615127
  44.3400999  60.1536246  16.3690785  44.7737506  60.0611535  17.2173839
  45.0532580  60.1293747  15.7310801  33.2534050  61.3720245  13.5511518
  34.0474648  60.8770565  13.3494093  32.5425742  60.8438108  13.1879223
  38.0728894  63.7538340  17.9023885  38.1265916  64.3229277  18.6701601
  37.2043676  63.9240225  17.5377922  29.5616813  55.5163327   9.6271270
  28.6314401  55.4547782   9.8441232  29.6574285  54.9939279   8.8307912
  29.4802362  52.0418139  12.2149512  29.7409179  52.9563473  12.1058672
  30.3019535  51.5742582  12.3646125  30.9527288  53.4555897  19.3848337
  31.6250341  53.2473259  18.7360985  30.1257074  53.2577983  18.9453569
  45.2016549  60.1959947  18.9023670  45.3952439  61.1005757  19.1482945
  45.1017167  59.7367366  19.7362255  40.2631657  60.3466690  24.4764551
  40.1117164  60.1177241  23.5594634  40.2536337  61.3037291  24.4895896
  37.0316994  57.9198602  19.4610817  37.9609054  58.0709762  19.2879784
  36.6108024  58.0082623  18.6059464  35.8305326  61.9449267  17.2309355
  35.6916411  61.5768051  18.1035293  35.0419922  62.4596906  17.0593313
  36.4253478  67.0458363   8.5734891  36.6005233  66.5746406   9.3880514
  35.7386266  67.6724129   8.8016152  37.3810541  61.3230869  14.6198193
  37.0460373  61.2831639  15.5155842  36.8814487  60.6575585  14.1468603
  31.3554785  56.7298499  20.1450774  31.2174583  55.9978738  20.7462313
  32.2659708  56.6407400  19.8634961  40.3169732  58.6686904   4.8935252
  39.6998903  57.9433732   4.7968305  39.8486221  59.4296264   4.5502326
  33.9837085  56.4418459  19.6334453  34.6936704  55.8011651  19.5921072
  33.9406394  56.6931354  20.5560634  41.9723864  63.3785812  22.5541033
  41.9136410  62.6945032  21.8871616  42.3743383  64.1204802  22.1021659
  32.6966019  53.4283677  21.4530093  32.1603376  52.9774415  22.1051689
  32.1082728  53.5629586  20.7100557  30.9914563  70.1947726  15.3474751
  31.2311161  70.8266250  16.0253770  30.1483759  69.8435766  15.6340111
  32.1068278  52.8872328   4.0156556  31.2297745  52.7661129   3.6518803
  32.5826031  52.0958406   3.7635445  41.9741271  61.3425396  20.7855012
  41.0868050  61.0051318  20.9081411  42.5439822  60.6108427  21.0223778
  23.6270419  57.6749488  14.1098064  24.3141458  57.3611218  13.5219079
  23.4718547  58.5790852  13.8365315  28.4305141  52.5639684  18.5383087
  28.3463329  51.9565354  17.8033497  27.6087847  53.0548703  18.5392584
  35.5042425  66.0026848  17.7516255  35.4312596  66.8081820  18.2635560
  35.0619818  66.2018814  16.9264277  35.2932204  65.2398618  11.2619077
  34.5099726  65.7820299  11.3557301  35.9924950  65.7572598  11.6613318
  38.6028855  51.0493248  13.9053282  39.0997554  50.2963210  13.5854353
  37.8315836  51.0857565  13.3396492  46.4558612  56.7533613  15.5471574
  46.4448488  57.6358329  15.1765507  45.5875991  56.4005164  15.3526111
  37.9641108  65.9013682  19.9074414  38.6769081  66.5361147  19.8350316
  37.4731137  65.9977548  19.0914416  39.6858635  59.8064935  11.4791706
  38.7514914  59.9266398  11.3096410  39.8635304  58.9037402  11.2151716
  35.1863823  53.1910631  13.6324967  34.8161611  52.6381671  14.3205873
  35.6822916  52.5868764  13.0799967  43.0731187  55.6482254  12.0141740
  43.5391639  56.4810246  11.9402043  43.5238687  55.1827236  12.7186998
  33.0153022  63.6508126  20.7279985  33.7162481  64.2844609  20.8809379
  32.5448137  63.9922857  19.9675624  41.1407418  61.9926076   9.0127892
  41.4167262  61.8782670   9.9221766  40.2711916  61.5943561   8.9740065
  41.0447849  48.0162841  16.0532641  40.1310929  48.2467068  16.2214848
  41.4740951  48.1001285  16.9046674  40.8154308  56.2052733  18.5532535
  40.1625758  56.4528641  17.8984988  41.1934688  55.3916872  18.2195013
  37.7761482  66.2412427  12.6560706  37.9583876  65.4234082  13.1188458
  38.5994468  66.4580119  12.2185596  38.1103647  65.1680612   9.9175754
  38.6391414  64.6573066   9.3045916  38.3731867  64.8523142  10.7821287
  36.8641881  56.9472544  25.0398572  36.1882518  56.8466674  25.7100948
  37.6869515  56.7911758  25.5034570  28.6120740  63.1844481  17.6611088
  29.1974177  62.4388169  17.7938992  28.4145578  63.4948438  18.5447751
  31.4659395  66.2195728  12.6773530  30.7969770  66.7041856  12.1937570
  31.3272265  66.4664949  13.5916909  23.2038395  55.7550081  16.3815531
  23.2422494  55.2213672  17.1752649  22.6978687  55.2285287  15.7626508
  35.6064664  68.2539472  19.2756188  36.1582972  68.4171093  20.0405274
  35.9470857  68.8443910  18.6036213  30.0581429  52.6737754  23.5251107
  30.6853468  52.2914832  24.1388632  29.2009348  52.4551956  23.8906800
  40.4575538  63.0800729  25.1304843  41.0015442  63.6930688  24.6359798
  39.8762383  63.6380308  25.6471856  26.8346972  54.4814183   9.4569462
  27.1300413  53.5724862   9.4036516  25.9335008  54.4601923   9.1350464
  38.7433051  66.2021447  16.2619871  38.6184190  65.4011187  15.7530816
  39.4012142  66.6967641  15.7733840  30.3641219  52.5570180  15.4397011
  29.6427805  53.1706148  15.3004484  31.1534475  53.0927945  15.3613657
  40.8067959  64.0030467  17.8899421  39.8598295  63.8835819  17.8177747
  41.1550732  63.1152966  17.9725682  28.5634814  52.1628281   9.5808787
  28.2347520  51.2825660   9.3983893  28.9174185  52.1075950  10.4685177
  37.8114393  63.7983184  14.0903773  37.6639355  62.8699891  14.2711343
  38.6367886  63.8203274  13.6060848  31.6776637  52.4501251   9.9484265
  32.0172709  52.9787172   9.2262873  32.1248757  52.7881657  10.7242831
  41.4148515  64.6211742  15.1768646  42.3395062  64.4154604  15.0393097
  41.2463818  64.3728144  16.0857987  35.0236550  47.9187614  17.8514656
  35.8462619  47.4448092  17.7293546  35.2674613  48.6978098  18.3513342
  33.6644784  50.9475872   8.1477558  34.3853147  51.3257125   7.6441275
  33.0410088  51.6664749   8.2512536  37.8075907  51.6521021   9.0835890
  38.0239521  52.5345659   8.7824718  37.3269974  51.2607235   8.3541532
  32.5475128  54.6106735  15.6606635  32.4019709  54.9247038  16.5530916
  32.0700332  55.2291635  15.1077533  34.4071511  51.6009283  15.7087524
  34.3933080  50.7050376  15.3719822  35.1243939  51.6079946  16.3425810
  41.2043831  65.1397410  10.5330737  41.3780708  64.5743832   9.7804589
  41.6972722  65.9398305  10.3510227  27.0220791  57.1512079  18.5994296
  26.4774259  57.9271887  18.7314570  27.9000140  57.4982883  18.4413417
  33.8108407  50.4823663  10.9775094  33.9324318  49.5540309  11.1765982
  33.5210450  50.4962349  10.0653410  36.6799598  48.1678573  14.1141814
  36.7021294  48.2317906  13.1593794  37.0967657  47.3283082  14.3082320
  47.0583222  57.9033833  12.1521037  47.5014368  57.1541158  11.7540160
  46.1809732  57.8943969  11.7694769  42.1919003  64.4564174   7.6327635
  42.8869908  65.0770867   7.8514950  42.5342153  63.6059526   7.9080013
  27.8086812  56.2781975  21.4924453  27.0668548  56.4264611  22.0789083
  27.4879557  56.5390241  20.6291202  44.0910426  61.9063880   9.1614966
  44.6161750  62.2451153   8.4364286  44.0032779  60.9710895   8.9778101
  35.7530475  65.8197953  21.2904843  36.0617601  65.5747100  22.1627542
  36.5505957  66.0244592  20.8023713  35.7751087  67.9735863  13.5210219
  35.3356077  67.4812242  14.2143076  36.5259204  67.4308831  13.2802294
  28.2543426  64.1647404  13.5234847  29.0801446  63.8651176  13.1433491
  27.9037478  63.3955026  13.9724636  33.2224959  63.5173872  15.5932521
  32.6004969  62.8544577  15.2934749  33.8929826  63.5435004  14.9106169
  26.4552031  62.0833730  14.4823781  25.6183939  61.6555905  14.3007782
  26.4275677  62.2766174  15.4194572  43.7804332  62.5396783  24.4666164
  42.9899876  62.5220922  23.9270663  43.5437687  63.0785077  25.2215201
  43.9002207  59.3889250  21.7798893  43.9500212  59.2239257  22.7214415
  43.7916131  58.5216509  21.3896773  32.7838466  62.0677796   9.0690981
  32.9326587  62.7513260   8.4157654  33.5904910  62.0482886   9.5840437
  45.4020404  61.8086191  22.0240914  45.1105213  62.1716172  22.8604375
  44.7892536  61.0953200  21.8454246  46.6016087  59.3739071  14.5443484
  47.4362978  59.8128875  14.7081045  46.7375215  58.8977724  13.7251730
  43.6507593  56.9318806  20.4920972  44.1261714  57.1246452  19.6839823
  42.7273158  56.9877992  20.2464356  30.5391099  58.0942973  10.0752050
  30.2937141  57.1905303  10.2732261  30.7087014  58.0960124   9.1331528
  29.8086747  53.8271331   7.5738212  29.1155992  53.9015686   6.9178248
  29.5638499  53.0631674   8.0959729  38.4800403  45.3866932  14.9777703
  38.7602157  44.7190121  15.6038129  39.2651010  45.5796028  14.4652366
  36.2833872  64.5625926   6.5402729  35.7107839  65.1816113   6.0873201
  36.8566665  65.1125288   7.0742651  42.3509262  53.8084566  18.7249278
  43.3026684  53.9082664  18.7461502  42.1812712  53.0162835  19.2347362
  39.5031131  64.8463076   7.6711311  40.4361805  64.7808638   7.8744187
  39.4154344  65.6819343   7.2125844  42.1319148  64.1628946   4.6315259
  42.0532780  63.8288810   5.5251017  42.9528815  64.6550714   4.6306731
  44.8297339  57.0290686  17.8391577  44.7973659  56.0906686  18.0251261
  45.4397963  57.1074722  17.1057402  36.6680670  55.8986739   3.8818781
  37.6139775  55.7692947   3.9507199  36.2894915  55.1601401   4.3588210
  44.9791828  53.8201729  17.8849861  44.4630876  53.0360186  17.6979789
  45.8631776  53.4920446  18.0496380  42.6402555  47.5642745  13.8445673
  42.4427376  47.2557833  14.7289005  43.2502260  48.2904384  13.9743603
  50.6473889  58.0906693  16.9797614  51.3777278  57.8291981  17.5405317
  50.0380835  57.3535415  17.0199682  48.7289186  56.2314555  17.5772065
  48.0022350  56.0970520  16.9688557  48.3136473  56.5391384  18.3828783
  36.5519363  59.9504485  25.3419438  37.4722372  60.1283084  25.5359485
  36.5168946  59.0060530  25.1899138  34.8523587  53.8236715   3.8173667
  33.9455043  53.5269828   3.8936380  35.1299568  53.5266533   2.9507953
  25.7701528  55.1443079  14.2672713  25.4504312  54.2908387  13.9747087
  25.2234956  55.3591657  15.0230680  29.5481435  57.8605520  17.9842220
  29.7667445  58.7922627  18.0030253  29.9607209  57.5013494  18.7697023
  36.4685653  48.3673605   9.9717908  35.6586381  48.0220690  10.3473154
  37.1570070  48.0581149  10.5605519  38.3976201  47.4451652  11.5942205
  38.9507240  47.8647105  12.2532228  38.6346288  46.5187400  11.6365161
  34.4209301  53.4338725  27.3744968  34.3206027  54.3833082  27.3057060
  34.2030843  53.1056964  26.5021039  33.6222372  50.6823650   3.9585646
  34.4841536  51.0078549   4.2181463  33.8072716  49.8955146   3.4458712
  25.6389788  58.7645990  16.2365835  24.9453259  58.3499943  15.7235789
  26.3862779  58.8066527  15.6399253  41.7755008  49.5552177  11.1020869
  41.1953677  50.2136981  10.7198921  41.5090941  48.7329521  10.6908286
  40.2258575  48.9557235  13.3042189  40.7258353  49.0673769  12.4956508
  40.8694183  48.6518287  13.9442998  34.2840571  56.8635864  26.1910030
  33.8007652  57.6636224  26.3973919  34.3701510  56.8743809  25.2377474
  27.5526530  58.6964244  14.1131849  27.5297218  58.7951931  13.1613733
  27.8627167  59.5429395  14.4349016  30.2113908  60.7540399  18.2278464
  31.1657162  60.7224341  18.1608395  30.0126432  60.2931023  19.0428690
  30.8013290  59.3241515  20.7949262  31.6206179  59.8185594  20.8184099
  31.0750098  58.4073483  20.7666829  40.5579886  51.7152267  10.1577217
  39.6705741  52.0001918   9.9397412  40.9733876  51.5546031   9.3104494
  43.9094423  51.7398788  13.8731556  44.6854813  52.2295241  14.1456173
  43.1842557  52.1656842  14.3303426  46.3466981  52.4526407  14.9305497
  46.9411472  52.2122143  14.2198805  46.4193565  51.7333538  15.5579033
  28.5664137  66.2960018  15.2448662  28.4318605  65.5360419  14.6786660
  28.1496199  67.0200918  14.7777451  39.7023100  61.4796942   4.2525237
  40.4058950  61.6846944   4.8682893  38.9785749  62.0473704   4.5174321
  40.5320910  57.2306803  10.3727507  40.4756112  57.6875355   9.5335140
  41.0849253  56.4697488  10.1950350  44.3425716  53.0196535  11.1977627
  44.0862650  52.6193171  12.0285834  43.7178584  53.7340329  11.0727766
  48.6538054  55.7592608  13.7048918  48.0937612  55.8285798  14.4780480
  48.0481557  55.5833593  12.9848414  31.7233263  67.1929335  15.4567104
  31.6065647  68.1374768  15.3545795  30.9025709  66.8902897  15.8452904
  41.6109797  61.9179471   6.3023697  42.4455401  61.4860670   6.1201172
  41.4494140  61.7461485   7.2300592  41.2655690  58.4211584   7.6680036
  41.2104493  58.2555856   6.7268481  40.6401745  59.1287617   7.8242226
  26.0548204  53.6579649  21.4941459  26.7007068  53.1478603  21.9828684
  25.8465356  54.3948330  22.0684884  38.5801597  60.7260496  26.9933599
  39.4492756  60.9001149  26.6320234  38.1008348  61.5454913  26.8709329
  34.5751815  47.9219693   7.2465355  34.5630485  48.8661533   7.4033626
  35.4675237  47.7389839   6.9524816  32.7487777  67.8457597  18.6723033
  33.6515024  67.8781208  18.9889528  32.5225147  66.9158048  18.6869369
  34.5041379  66.5988584  15.3333111  33.5537010  66.5990445  15.2197484
  34.8073865  65.8521318  14.8169146  38.3903934  44.5162470  11.5011292
  37.6236330  43.9620957  11.6467974  38.8014639  44.5884339  12.3625443
  50.2394072  72.4349122  16.3978874  50.8772482  72.3155870  15.6942214
  50.1214915  73.3829966  16.4566826  47.0483779  72.3876550  16.3340399
  46.7102290  72.2717615  15.4460933  47.9173547  71.9867715  16.3141405
  42.9070594  74.2412027  12.3237289  42.3435460  74.1501964  11.5553577
  42.7922989  73.4211931  12.8039782  47.5303562  73.5411402  22.2926604
  47.5192202  73.1464200  21.4207108  47.6924201  72.8077475  22.8860376
  40.4535026  75.7363218  15.1621510  41.2456318  75.3954043  14.7467809
  40.6931676  75.8458193  16.0823663  44.2510823  76.3248514  21.2405788
  43.9600689  77.2294145  21.1252454  44.8867807  76.3665041  21.9549858
  45.1767030  73.7025362  17.8307148  45.7730602  73.4781385  17.1164111
  45.2342001  72.9610108  18.4332596  49.7935341  70.1600576  13.4732082
  50.5798430  69.7419999  13.1222499  50.0574045  71.0646668  13.6413730
  55.1943768  70.0975809  14.3765060  55.9268940  69.5275026  14.6102890
  54.4383124  69.7097410  14.8171566  46.8119888  72.5203051  11.5728403
  46.4478095  71.9933672  12.2841324  47.6687004  72.1301520  11.3994888
  52.7169188  63.8097383  18.8359669  52.3852513  64.6792794  18.6120884
  52.1214802  63.4933667  19.5153699  49.2100708  76.0109929  18.2355582
  48.9101431  76.9134968  18.1271389  48.8651767  75.7442113  19.0876735
  42.6613189  72.4623726  14.2692286  41.7363686  72.3299940  14.4769978
  42.9097603  73.2417945  14.7662229  52.6097852  68.5292470  15.9153019
  51.7014729  68.4607878  15.6211780  52.5585447  69.0064414  16.7434845
  40.0222000  72.1057000  15.1036075  40.1514382  72.3591479  16.0175487
  39.3419452  72.6984708  14.7840730  46.6838717  69.9482115  23.8587916
  45.9072052  70.5076035  23.8490781  47.3229281  70.4338898  24.3802786
  54.4759498  66.7308908  17.6930893  53.8333878  67.0241441  17.0470688
  53.9714427  66.6161828  18.4984090  44.9385090  72.7567568  23.4205883
  45.6799774  73.2952612  23.1440707  44.2322075  73.3833857  23.5777435
  50.4140429  74.8996709  22.0178045  50.8223785  74.4579119  21.2732677
  49.6917691  74.3249336  22.2712238  46.7671499  69.8369316  19.3911602
  47.6132695  70.2608729  19.5346251  46.7070137  69.1802940  20.0850165
  50.7369244  75.4597900  15.7730334  50.1078107  75.6243614  15.0706402
  50.3494906  75.8739509  16.5441298  49.9170945  67.4973684  21.0492775
  49.6731877  68.2515745  20.5127051  50.1930875  67.8759032  21.8840022
  51.8709408  74.0412296  19.7270041  52.0826303  74.6844056  19.0504422
  51.8239156  73.2074613  19.2591971  49.4735637  66.6530117  16.6306613
  48.6120116  66.9511371  16.9223351  49.4998071  66.8700516  15.6987646
  46.2897206  75.1972308  13.0380419  46.7535551  75.4760011  12.2485041
  46.0254004  74.2955752  12.8553509  43.1821287  74.7443789  15.9760182
  43.7522644  75.1731058  15.3377667  43.7729399  74.4626374  16.6744368
  45.2266092  71.3195460   9.8469984  45.9290135  71.7716504  10.3143910
  44.8946720  70.6779279  10.4749877  43.6746454  69.9107217  24.2221193
  43.0445114  70.5923497  24.4556590  43.5682541  69.7990298  23.2774332
  38.9691426  69.5779013  15.1487117  38.1790480  69.8336541  14.6727228
  39.4602673  70.3927351  15.2539158  52.9855236  76.9184252  17.8992398
  53.8072679  76.5164439  17.6175080  52.9817638  76.8152486  18.8508514
  40.9206171  69.9423592  12.1070594  40.1237335  70.0542286  12.6254090
  40.6931764  70.2810244  11.2411485  46.7511839  76.4668295  20.0553109
  46.8156271  76.9288702  20.8911281  46.0422763  75.8365660  20.1835419
  37.2529129  69.8309503  17.5802108  37.5037167  70.7156513  17.8459684
  37.7888677  69.6514105  16.8077200  42.9527196  64.2127982  26.5846444
  42.5594142  63.6594181  27.2594089  43.7693337  64.5238561  26.9752962
  39.9189254  75.6511841  10.4960014  40.4313775  76.4455091  10.6465579
  40.5711967  74.9538131  10.4293616  45.8695157  65.6285862  24.1766701
  46.6104871  66.2293015  24.0971163  46.1013080  64.8863499  23.6184744
  41.0136495  70.8142229  22.4544931  40.8990010  69.9127486  22.7552030
  40.1581013  71.0605926  22.1029747  48.0928333  78.7559969  24.0532431
  47.6492187  77.9696348  23.7353336  48.7545547  78.9439120  23.3876322
  42.8515454  80.2855771  18.5793110  43.4022879  80.1572834  17.8070104
  42.0126930  80.5850660  18.2288003  50.1909571  79.0362769  22.0813833
  50.1728046  79.8571650  21.5894102  51.1129491  78.9116844  22.3063974
  46.6482625  76.5506899  22.9237341  47.1810962  75.7895187  22.6936649
  46.1196706  76.2580550  23.6661495  49.8152320  61.6566965  18.4530983
  49.4716590  62.5468606  18.3770093  50.1831283  61.4668622  17.5900568
  37.8838171  73.9800495  11.2719585  38.7213393  74.3897503  11.0553292
  38.0616438  73.0399937  11.2419779  47.3649714  66.4925276  12.0188656
  46.5091310  66.1032127  11.8394295  47.7776666  66.5717237  11.1588442
  48.8948861  64.0271620  16.4180216  48.3913656  63.9901755  15.6048021
  49.1879467  64.9364362  16.4776873  45.1391746  64.1110349  15.4246398
  46.0044743  63.9153158  15.0652287  45.2069255  63.8820701  16.3515754
  52.9928184  73.8741912  15.5523199  52.3351858  74.5641173  15.6403328
  53.7968583  74.2638343  15.8957186  42.7454066  66.3412557  12.7962764
  43.3197817  66.1187739  12.0635957  43.3325048  66.4101252  13.5491366
  51.8033643  72.2286284  13.6027141  52.3165524  72.8616276  14.1048851
  52.4534867  71.6287480  13.2370501  45.0476733  63.2153806  11.5237834
  44.3941146  62.9002823  10.8994449  45.0057207  62.5929547  12.2497657
  48.2814474  69.7035740  15.8485481  47.3637035  69.9250687  15.6907170
  48.6974617  69.7782050  14.9897189  51.5128359  68.1384272  12.9606951
  50.7751115  67.6261658  13.2917194  51.7655132  67.6984653  12.1490228
  51.6139986  60.9160524  13.5548720  51.9198863  60.0557887  13.2674635
  52.3392591  61.5078144  13.3547714  37.9064342  71.3191210  11.9430318
  37.7088742  70.7260571  11.2181385  37.3511006  71.0143420  12.6606257
  45.8861066  71.2114317  14.0624911  45.9409675  70.2588153  13.9867388
  45.0752268  71.3673756  14.5466210  43.8253426  69.8291377  11.8215290
  43.0121291  70.1285547  12.2280482  44.3212420  69.4347065  12.5389772
  49.4227637  70.2933201  20.6530184  49.7777025  70.5204674  21.5124650
  50.0699768  70.6251578  20.0307439  43.3167500  67.4009732  17.4376525
  43.9566880  67.2598491  16.7399489  42.4845031  67.1144245  17.0615127
  44.0927804  76.7012162  13.5511518  44.8868403  76.2062483  13.3494093
  43.3819497  76.1730026  13.1879223  48.9122649  79.0830258  17.9023885
  48.9659671  79.6521194  18.6701601  48.0437430  79.2532143  17.5377922
  40.4010568  70.8455244   9.6271270  39.4708156  70.7839700   9.8441232
  40.4968040  70.3231197   8.8307912  40.3196117  67.3710057  12.2149512
  40.5802934  68.2855390  12.1058672  41.1413289  66.9034500  12.3646125
  41.7921042  68.7847814  19.3848337  42.4644095  68.5765176  18.7360985
  40.9650829  68.5869900  18.9453569  56.0410303  75.5251865  18.9023670
  56.2346193  76.4297675  19.1482945  55.9410921  75.0659284  19.7362255
  47.6946614  65.4109755  21.4013997  47.0474529  66.1099705  21.3078474
  48.4647629  65.8445899  21.7690246  51.1025412  75.6758607  24.4764551
  50.9510918  75.4469159  23.5594634  51.0930091  76.6329209  24.4895896
  47.8710748  73.2490520  19.4610817  48.8002808  73.4001680  19.2879784
  47.4501778  73.3374541  18.6059464  46.6699080  77.2741184  17.2309355
  46.5310166  76.9059969  18.1035293  45.8813676  77.7888824  17.0593313
  48.2204295  76.6522787  14.6198193  47.8854128  76.6123557  15.5155842
  47.7208241  75.9867503  14.1468603  42.1948539  72.0590417  20.1450774
  42.0568337  71.3270656  20.7462313  43.1053463  71.9699317  19.8634961
  44.8230840  71.7710376  19.6334453  45.5330458  71.1303569  19.5921072
  44.7800148  72.0223271  20.5560634  52.8117619  78.7077730  22.5541033
  52.7530165  78.0236950  21.8871616  53.2137137  79.4496720  22.1021659
  43.5359774  68.7575594  21.4530093  42.9997131  68.3066333  22.1051689
  42.9476482  68.8921503  20.7100557  34.4664173  73.0041406  14.1098064
  35.1535213  72.6903136  13.5219079  34.3112302  73.9082770  13.8365315
  39.2698895  67.8931602  18.5383087  39.1857084  67.2857272  17.8033497
  38.4481602  68.3840620  18.5392584  46.3436179  81.3318766  17.7516255
  46.2706351  82.1373738  18.2635560  45.9013572  81.5310732  16.9264277
  49.4422609  66.3785166  13.9053282  49.9391309  65.6255128  13.5854353
  48.6709591  66.4149482  13.3396492  57.2952366  72.0825531  15.5471574
  57.2842243  72.9650247  15.1765507  56.4269746  71.7297082  15.3526111
  48.8034863  81.2305600  19.9074414  49.5162835  81.8653065  19.8350316
  48.3124891  81.3269466  19.0914416  46.0257578  68.5202549  13.6324967
  45.6555365  67.9673589  14.3205873  46.5216670  67.9160682  13.0799967
  43.8546776  78.9800044  20.7279985  44.5556236  79.6136527  20.8809379
  43.3841891  79.3214775  19.9675624  51.8841604  63.3454759  16.0532641
  50.9704684  63.5758986  16.2214848  52.3134705  63.4293203  16.9046674
  51.6548062  71.5344651  18.5532535  51.0019513  71.7820559  17.8984988
  52.0328442  70.7208789  18.2195013  47.7035635  72.2764462  25.0398572
  47.0276272  72.1758591  25.7100948  48.5263269  72.1203676  25.5034570
  39.4514494  78.5136399  17.6611088  40.0367931  77.7680087  17.7938992
  39.2539333  78.8240355  18.5447751  34.0432149  71.0841999  16.3815531
  34.0816249  70.5505590  17.1752649  33.5372442  70.5577204  15.7626508
  46.4458418  83.5831390  19.2756188  46.9976726  83.7463011  20.0405274
  46.7864612  84.1735827  18.6036213  41.4222911  65.9306539  19.8778073
  41.4864238  66.7921370  19.4655471  41.3590032  65.3180541  19.1450432
  40.8975184  68.0029672  23.5251107  41.5247223  67.6206749  24.1388632
  40.0403103  67.7843874  23.8906800  51.2969293  78.4092647  25.1304843
  51.8409197  79.0222605  24.6359798  50.7156137  78.9672225  25.6471856
  37.6740727  69.8106101   9.4569462  37.9694168  68.9016779   9.4036516
  36.7728762  69.7893840   9.1350464  41.2034974  67.8862098  15.4397011
  40.4821559  68.4998065  15.3004484  41.9928229  68.4219862  15.3613657
  51.6461714  79.3322385  17.8899421  50.6992049  79.2127736  17.8177747
  51.9944487  78.4444883  17.9725682  44.0061287  65.2216524  21.7137662
  44.5295689  65.4678821  22.4763972  43.7873621  66.0536559  21.2940800
  39.4028568  67.4920199   9.5808787  39.0741274  66.6117578   9.3983893
  39.7567939  67.4367867  10.4685177  42.5170391  67.7793168   9.9484265
  42.8566464  68.3079090   9.2262873  42.9642512  68.1173575  10.7242831
  45.2113832  66.1630219  19.3987333  44.8710653  65.3638032  19.8008013
  44.5052839  66.4631930  18.8264166  45.8630304  63.2479532  17.8514656
  46.6856373  62.7740010  17.7293546  46.1068368  64.0270015  18.3513342
  44.5038539  66.2767790   8.1477558  45.2246901  66.6549043   7.6441275
  43.8803843  66.9956667   8.2512536  48.6469661  66.9812939   9.0835890
  48.8633276  67.8637577   8.7824718  48.1663729  66.5899152   8.3541532
  43.3868883  69.9398652  15.6606635  43.2413464  70.2538955  16.5530916
  42.9094086  70.5583553  15.1077533  45.2465266  66.9301200  15.7087524
  45.2326835  66.0342294  15.3719822  45.9637694  66.9371864  16.3425810
  47.0991396  67.3638540  17.7540652  46.8409174  68.2855611  17.7524982
  46.5676437  66.9668975  18.4441116  37.8614545  72.4803997  18.5994296
  37.3168013  73.2563805  18.7314570  38.7393895  72.8274801  18.4413417
  44.6502162  65.8115581  10.9775094  44.7718073  64.8832227  11.1765982
  44.3604204  65.8254266  10.0653410  47.5193352  63.4970491  14.1141814
  47.5415049  63.5609824  13.1593794  47.9361411  62.6575000  14.3082320
  38.6480567  71.6073893  21.4924453  37.9062303  71.7556528  22.0789083
  38.3273311  71.8682159  20.6291202  46.5924230  81.1489871  21.2904843
  46.9011356  80.9039018  22.1627542  47.3899712  81.3536510  20.8023713
  39.0937181  79.4939322  13.5234847  39.9195200  79.1943094  13.1433491
  38.7431233  78.7246944  13.9724636  44.0618714  78.8465790  15.5932521
  43.4398723  78.1836495  15.2934749  44.7323581  78.8726922  14.9106169
  37.2945786  77.4125648  14.4823781  36.4577694  76.9847822  14.3007782
  37.2669431  77.6058091  15.4194572  44.1343241  67.3247578  25.1865027
  44.1831397  68.2009701  24.8042797  44.6765755  66.7824971  24.6136670
  54.6198087  77.8688701  24.4666164  53.8293631  77.8512840  23.9270663
  54.3831441  78.4076995  25.2215201  54.7395962  74.7181168  21.7798893
  54.7893967  74.5531175  22.7214415  54.6309885  73.8508427  21.3896773
  52.0299724  70.7012096  23.0958199  52.9309587  70.5618560  22.8042197
  52.1047699  70.8666550  24.0356377  46.3642530  68.0778950  21.9411386
  45.4945839  68.3712516  21.6693974  46.6002010  68.6619395  22.6618649
  56.2414159  77.1378109  22.0240914  55.9498967  77.5008090  22.8604375
  55.6286290  76.4245117  21.8454246  54.4901347  72.2610724  20.4920972
  54.9655469  72.4538370  19.6839823  53.5666912  72.3169909  20.2464356
  41.3784854  73.4234891  10.0752050  41.1330896  72.5197221  10.2732261
  41.5480768  73.4252041   9.1331528  49.0681564  64.2958567  19.4576806
  49.5863507  65.0319594  19.1323295  48.7136696  64.6022561  20.2923565
  40.6480501  69.1563248   7.5738212  39.9549746  69.2307603   6.9178248
  40.4032253  68.3923592   8.0959729  49.3194158  60.7158850  14.9777703
  49.5995911  60.0482039  15.6038129  50.1044765  60.9087945  14.4652366
  53.1903016  69.1376484  18.7249278  54.1420439  69.2374581  18.7461502
  53.0206466  68.3454752  19.2347362  51.2117395  66.2232067  18.9108679
  50.6167328  66.5037080  18.2155167  50.9267092  66.7125968  19.6825420
  55.6691094  72.3582603  17.8391577  55.6367414  71.4198604  18.0251261
  56.2791717  72.4366640  17.1057402  55.8185582  69.1493647  17.8849861
  55.3024631  68.3652104  17.6979789  56.7025531  68.8212363  18.0496380
  53.4796309  62.8934662  13.8445673  53.2821130  62.5849751  14.7289005
  54.0896015  63.6196301  13.9743603  61.4867644  73.4198610  16.9797614
  62.2171032  73.1583898  17.5405317  60.8774589  72.6827332  17.0199682
  59.5682941  71.5606473  17.5772065  58.8416104  71.4262438  16.9688557
  59.1530228  71.8683301  18.3828783  47.3913117  75.2796403  25.3419438
  48.3116127  75.4575002  25.5359485  47.3562700  74.3352448  25.1899138
  36.6095282  70.4734996  14.2672713  36.2898067  69.6200304  13.9747087
  36.0628710  70.6883574  15.0230680  40.3875190  73.1897437  17.9842220
  40.6061200  74.1214545  18.0030253  40.8000964  72.8305412  18.7697023
  47.3079408  63.6965523   9.9717908  46.4980136  63.3512607  10.3473154
  47.9963824  63.3873066  10.5605519  49.2369956  62.7743569  11.5942205
  49.7900994  63.1939023  12.2532228  49.4740042  61.8479317  11.6365161
  45.2603055  68.7630643  27.3744968  45.1599782  69.7125000  27.3057060
  45.0424597  68.4348882  26.5021039  36.4783542  74.0937908  16.2365835
  35.7847014  73.6791860  15.7235789  37.2256533  74.1358444  15.6399253
  52.6148763  64.8844094  11.1020869  52.0347432  65.5428899  10.7198921
  52.3484696  64.0621439  10.6908286  51.0652329  64.2849152  13.3042189
  51.5652108  64.3965687  12.4956508  51.7087937  63.9810205  13.9442998
  45.1234325  72.1927782  26.1910030  44.6401407  72.9928142  26.3973919
  45.2095264  72.2035727  25.2377474  38.3920285  74.0256161  14.1131849
  38.3690973  74.1243849  13.1613733  38.7020921  74.8721312  14.4349016
  41.0507663  76.0832317  18.2278464  42.0050916  76.0516259  18.1608395
  40.8520186  75.6222940  19.0428690  41.6407045  74.6533433  20.7949262
  42.4599934  75.1477511  20.8184099  41.9143852  73.7365401  20.7666829
  51.3973641  67.0444185  10.1577217  50.5099496  67.3293835   9.9397412
  51.8127630  66.8837948   9.3104494  54.7488177  67.0690706  13.8731556
  55.5248567  67.5587158  14.1456173  54.0236311  67.4948760  14.3303426
  57.1860736  67.7818325  14.9305497  57.7805227  67.5414061  14.2198805
  57.2587319  67.0625456  15.5579033  42.5627017  82.5221253  15.4567104
  42.4459401  83.4666686  15.3545795  41.7419464  82.2194815  15.8452904
  36.8941959  68.9871566  21.4941459  37.5400823  68.4770520  21.9828684
  36.6859110  69.7240248  22.0684884  49.4195351  76.0552414  26.9933599
  50.2886511  76.2293066  26.6320234  48.9402103  76.8746831  26.8709329
  45.4145569  63.2511611   7.2465355  45.4024239  64.1953451   7.4033626
  46.3068991  63.0681756   6.9524816  43.5881531  83.1749515  18.6723033
  44.4908778  83.2073125  18.9889528  43.3618901  82.2449966  18.6869369
  49.2297689  59.8454388  11.5011292  48.4630085  59.2912874  11.6467974
  49.6408394  59.9176256  12.3625443  41.2339450  66.1339183  25.5916473
  42.0970912  65.7775988  25.8019797  40.6604861  65.7953078  26.2791877
  57.5232472  85.2774033  23.8587916  56.7465806  85.8367953  23.8490781
  58.1623035  85.7630816  24.3802786  54.5140208  85.2399134  24.2221193
  53.8838869  85.9215415  24.4556590  54.4076296  85.1282216  23.2774332
  53.7920951  79.5419900  26.5846444  53.3987896  78.9886099  27.2594089
  54.6087091  79.8530479  26.9752962  56.7088912  80.9577779  24.1766701
  57.4498625  81.5584932  24.0971163  56.9406835  80.2155417  23.6184744
  51.8530250  86.1434147  22.4544931  51.7383765  85.2419404  22.7552030
  50.9974767  86.3897843  22.1029747  58.5340369  80.7401673  21.4013997
  57.8868284  81.4391622  21.3078474  59.3041384  81.1737817  21.7690246
  54.3753528  84.0867512  21.4530093  53.8390885  83.6358251  22.1051689
  53.7870237  84.2213421  20.7100557  50.1092650  83.2223520  18.5383087
  50.0250838  82.6149189  17.8033497  49.2875356  83.7132538  18.5392584
  58.5429390  87.6056380  25.0398572  57.8670027  87.5050509  25.7100948
  59.3657024  87.4495594  25.5034570  52.2616666  81.2598457  19.8778073
  52.3257992  82.1213288  19.4655471  52.1983786  80.6472459  19.1450432
  51.7368938  83.3321590  23.5251107  52.3640977  82.9498667  24.1388632
  50.8796857  83.1135792  23.8906800  54.8455042  80.5508442  21.7137662
  55.3689444  80.7970738  22.4763972  54.6267375  81.3828477  21.2940800
  49.4874321  86.9365811  21.4924453  48.7456057  87.0848446  22.0789083
  49.1667066  87.1974076  20.6291202  54.9736996  82.6539496  25.1865027
  55.0225151  83.5301618  24.8042797  55.5159510  82.1116889  24.6136670
  57.2036284  83.4070868  21.9411386  56.3339594  83.7004434  21.6693974
  57.4395765  83.9911313  22.6618649  56.0996810  84.0922561  27.3744968
  55.9993536  85.0416918  27.3057060  55.8818352  83.7640800  26.5021039
  55.9628080  87.5219699  26.1910030  55.4795161  88.3220060  26.3973919
  56.0489019  87.5327644  25.2377474  47.7335713  84.3163484  21.4941459
  48.3794577  83.8062438  21.9828684  47.5252865  85.0532166  22.0684884
  52.0733204  81.4631101  25.5916473  52.9364666  81.1067906  25.8019797
  51.4998615  81.1244996  26.2791877  26.4140825  25.1038256  10.7777738
  25.9704679  24.3174635  10.4598642  27.0758039  25.2917407  10.1121629
  28.5122063  25.3841056   8.8059139  28.4940539  26.2049937   8.3139408
  29.4341983  25.2595132   9.0309280  24.9695118  22.8985186   9.6482648
  25.5023454  22.1373474   9.4181955  24.4409199  22.6058838  10.3906802
  34.3622796  21.8730152   5.6268977  34.5558686  22.7775962   5.8728252
  34.2623414  21.4137571   6.4607562  29.4237904  22.0236895  11.2009857
  29.2723411  21.7947446  10.2839941  29.4142584  22.9807496  11.2141202
  31.1330111  25.0556017   9.2786339  31.0742657  24.3715237   8.6116922
  31.5349629  25.7975007   8.8266965  31.1347518  23.0195601   7.5100319
  30.2474297  22.6821523   7.6326718  31.7046069  22.2878632   7.7469084
  27.1247355  27.5783887   6.6319721  27.8375327  28.2131352   6.5595622
  26.6337384  27.6747753   5.8159723  26.0248128  18.6242749  11.7643879
  25.3488765  18.5236879  12.4346254  26.8475761  18.4681963  12.2279876
  24.7670910  29.9309677   6.0001495  25.3189219  30.0941298   6.7650580
  25.1077104  30.5214115   5.3281520  29.6181785  24.7570934  11.8550149
  30.1621689  25.3700893  11.3605104  29.0368630  25.3150513  12.3717162
  24.9136722  27.4968158   8.0150149  25.2223848  27.2517305   8.8872849
  25.7112204  27.7014797   7.5269020  32.9410579  24.2166988  11.1911471
  32.1506123  24.1991127  10.6515970  32.7043934  24.7555282  11.9460507
  33.0608454  21.0659455   8.5044199  33.1106459  20.9009462   9.4459722
  32.9522378  20.1986714   8.1142080  30.3512217  17.0490383   9.8203506
  31.2522079  16.9096848   9.5287504  30.4260191  17.2144838  10.7601683
  34.5626651  23.4856396   8.7486221  34.2711459  23.8486377   9.5849682
  33.9498782  22.7723405   8.5699553  25.7125609  21.6274690  12.0664745
  26.6328619  21.8053289  12.2604792  25.6775193  20.6830735  11.9144444
  23.4446817  18.5406069  12.9155337  22.9613899  19.3406429  13.1219226
  23.5307756  18.5514014  11.9622781  27.7407843  22.4030701  13.7178906
  28.6099003  22.5771353  13.3565541  27.2614595  23.2225118  13.5954635
  39.4000319  34.1119327   3.1224180  40.0378729  33.9926074   2.4187521
  39.2821162  35.0600171   3.1812133  36.2090025  34.0646755   3.0585705
  35.8708537  33.9487820   2.1706240  37.0779794  33.6637920   3.0386711
  36.6909808  35.2181607   9.0171911  36.6798449  34.8234405   8.1452414
  36.8530448  34.4847680   9.6105682  29.6141273  37.4133423   1.8866817
  30.4062565  37.0724248   1.4713116  29.8537923  37.5228398   2.8068970
  37.6476400  39.5853199  -5.6402939  36.9964380  40.1707280  -6.0268925
  38.4420763  40.1159394  -5.5807901  33.4117070  38.0018719   7.9651095
  33.1206936  38.9064350   7.8497761  34.0474054  38.0435246   8.6795164
  34.3373276  35.3795567   4.5552454  34.9336849  35.1551590   3.8409417
  34.3948248  34.6380313   5.1577902  38.9541588  31.8370781   0.1977389
  39.7404677  31.4190204  -0.1532194  39.2180292  32.7416873   0.3659037
  44.3550015  31.7746014   1.1010367  45.0875187  31.2045231   1.3348197
  43.5989370  31.3867615   1.5416873  35.9726135  34.1973256  -1.7026291
  35.6084342  33.6703877  -0.9913369  36.8293250  33.8071725  -1.8759805
  41.8775435  25.4867588   5.5604976  41.5458760  26.3562999   5.3366191
  41.2821049  25.1703872   6.2399006  38.3706955  37.6880134   4.9600888
  38.0707678  38.5905173   4.8516696  38.0258014  37.4212317   5.8122041
  31.8219436  34.1393931   0.9937593  30.8969933  34.0070145   1.2015285
  32.0703849  34.9188150   1.4907535  41.7704098  30.2062674   2.6398326
  40.8620976  30.1378083   2.3457087  41.7191694  30.6834619   3.4680151
  29.1828247  33.7827205   1.8281382  29.3120628  34.0361684   2.7420794
  28.5025699  34.3754913   1.5086037  33.3527734  44.4524455  -2.0728144
  33.2751764  45.4032280  -1.9939663  32.7489378  44.1070327  -1.4153218
  35.8444964  31.6252320  10.5833223  35.0678298  32.1846240  10.5736088
  36.4835527  32.1109103  11.1048093  43.6365745  28.4079113   4.4176200
  42.9940125  28.7011646   3.7715994  43.1320673  28.2932033   5.2229396
  34.0991337  34.4337773  10.1451190  34.8406021  34.9722817   9.8686014
  33.3928322  35.0604062  10.3022742  39.5746676  36.5766914   8.7423351
  39.9830032  36.1349324   7.9977984  38.8523938  36.0019541   8.9957544
  35.9277746  31.5139521   6.1156908  36.7738941  31.9378934   6.2591557
  35.8676384  30.8573145   6.8095472  39.8975491  37.1368104   2.4975640
  39.2684353  37.3013819   1.7951708  39.5101153  37.5509714   3.2686604
  43.7764723  38.0722542  -0.1479996  43.0915761  38.4521444  -0.6982963
  43.8608572  38.6817869   0.5851952  39.0777192  29.1743889   7.7738082
  38.8338123  29.9285950   7.2372358  39.3537122  29.5529237   8.6085329
  41.0315654  35.7182501   6.4515348  41.2432550  36.3614261   5.7749729
  40.9845403  34.8844818   5.9837278  38.6341883  28.3300322   3.3551920
  37.7726362  28.6281576   3.6468657  38.6604318  28.5470721   2.4232952
  35.4503453  36.8742513  -0.2374275  35.9141798  37.1530216  -1.0269652
  35.1860251  35.9725957  -0.4201184  32.3427534  36.4213994   2.7005489
  32.9128891  36.8501262   2.0622973  32.9335646  36.1396579   3.3989674
  32.8352700  31.5877422  10.9466500  32.2051361  32.2693702  11.1801897
  32.7288788  31.4760503  10.0019638  42.1461482  38.5954457   4.6237705
  42.9678926  38.1934644   4.3420387  42.1423885  38.4922691   5.5753821
  35.9118086  38.1438500   6.7798415  35.9762518  38.6058907   7.6156587
  35.2029010  37.5135865   6.9080725  26.4135376  31.5079708   4.3047415
  26.6643414  32.3926718   4.5704991  26.9494924  31.3284310   3.5322507
  50.2367475  34.9393205   0.9722676  49.4831184  34.3700603   0.8166681
  50.3715017  34.9055870   1.9193311  35.6266103  39.8106608  -3.3522604
  35.4911778  40.6558143  -2.9237756  36.1675916  40.0125885  -4.1156670
  32.1133443  25.8898187  13.3091751  31.7200389  25.3364386  13.9839395
  32.9299583  26.2008766  13.6998269  30.8890385  40.4447802  -0.6971926
  31.0657014  41.3665767  -0.8850942  31.6847219  40.1306221  -0.2677546
  35.0301404  27.3056066  10.9012008  35.7711117  27.9063220  10.8216470
  35.2619327  26.5633704  10.3430050  30.1742742  32.4912434   9.1790237
  30.0596257  31.5897691   9.4797336  29.3187260  32.7376131   8.8275054
  37.2534580  40.4330174  10.7777738  36.8098434  39.6466553  10.4598642
  37.9151793  40.6209325  10.1121629  32.0121701  41.9625976   5.3038416
  32.5629126  41.8343039   4.5315410  31.1733177  42.2620865   4.9533309
  39.3515818  40.7132974   8.8059139  39.3334293  41.5341855   8.3139408
  40.2735738  40.5887049   9.0309280  35.8088872  38.2277103   9.6482648
  36.3417209  37.4665392   9.4181955  35.2802953  37.9350755  10.3906802
  38.9758567  23.3337169   5.1776289  38.6322836  24.2238811   5.1015400
  39.3437530  23.1438827   4.3145874  38.0555107  25.7041825   3.1425523
  37.5519903  25.6671960   2.3293328  38.3485714  26.6134567   3.2022179
  43.9143124  36.0778135  -4.3798102  43.1372567  35.7389295  -4.8242940
  44.5934605  36.0830758  -5.0543137  37.1741585  37.3563096  -2.8398540
  36.6462946  36.6215856  -3.1525303  36.6729087  38.1337772  -3.0858572
  42.1534431  35.5512116   2.2768506  41.4958105  36.2411378   2.3648634
  42.9574830  35.9408548   2.6202492  40.9639890  33.9056489   0.3272448
  41.4771771  34.5386481   0.8294157  41.6141113  33.3057685  -0.0384192
  38.2262264  43.8840813  -6.9166881  37.5523963  44.1872510  -6.3081923
  38.6128086  44.6869894  -7.2661424  37.4420720  31.3805945   2.5730788
  36.5243282  31.6020892   2.4152476  37.8580864  31.4552255   1.7142495
  38.2255768  32.7797360  -2.2966532  38.9727587  33.2918758  -2.6059410
  38.4947358  32.4581413  -1.4362138  41.7301686  38.8862491  -1.5448410
  41.2764013  38.0453400  -1.4883219  41.0995652  39.5223889  -1.2073630
  40.6734605  29.8154477  -0.3147742  39.9357362  29.3031863   0.0162500
  40.9261379  29.3754858  -1.1264465  40.1734625  40.7238987  -0.6098592
  40.4657599  41.2844044  -1.3286226  40.6833246  41.0167548   0.1454567
  35.0467312  32.8884522   0.7870218  35.1015922  31.9358358   0.7112695
  34.2358514  33.0443961   1.2711516  35.1368250  41.5019338   0.4794862
  35.0944429  41.7280185  -0.4496606  36.0530949  41.2682713   0.6280663
  38.5833884  31.9703406   7.3775491  38.9383272  32.1974879   8.2369957
  39.2306015  32.3021783   6.7552746  44.3131621  35.0921842  -1.9175180
  44.1749519  35.2823438  -2.8453991  43.9567840  35.8541225  -1.4607129
  32.4773747  29.0779937   4.1621832  33.1173126  28.9368696   3.4644795
  31.6451278  28.7914450   3.7860434  44.3401001  37.1598369   3.0936091
  44.7737507  37.0673658   3.9419145  45.0532581  37.1355869   2.4556107
  33.2534051  38.3782367   0.2756824  34.0474649  37.8832688   0.0739399
  32.5425743  37.8500231  -0.0875470  38.0728895  40.7600463   4.6269192
  38.1265918  41.3291399   5.3946908  37.2043677  40.9302348   4.2623229
  30.9527289  30.4618019   6.1093643  31.6250342  30.2535381   5.4606292
  30.1257075  30.2640105   5.6698875  45.2016550  37.2022069   5.6268977
  45.3952440  38.1067880   5.8728252  45.1017168  36.7429489   6.4607562
  36.8552861  27.0879960   8.1259304  36.2080776  27.7869910   8.0323780
  37.6253876  27.5216104   8.4935552  40.2631659  37.3528812  11.2009857
  40.1117165  37.1239364  10.2839941  40.2536338  38.3099414  11.2141202
  37.0316995  34.9260725   6.1856124  37.9609055  35.0771885   6.0125091
  36.6108025  35.0144746   5.3304770  35.8305327  38.9511389   3.9554661
  35.6916413  38.5830174   4.8280599  35.0419923  39.4659029   3.7838619
  36.4253479  44.0520486  -4.7019802  36.6005235  43.5808529  -3.8874179
  35.7386267  44.6786252  -4.4738541  37.3810542  38.3292992   1.3443499
  37.0460375  38.2893762   2.2401149  36.8814488  37.6637708   0.8713909
  31.3554786  33.7360622   6.8696080  31.2174584  33.0040861   7.4707619
  32.2659710  33.6469522   6.5880268  33.9837087  33.4480581   6.3579760
  34.6936705  32.8073774   6.3166378  33.9406395  33.6993476   7.2805941
  41.9723865  40.3847935   9.2786339  41.9136412  39.7007155   8.6116922
  42.3743384  41.1266925   8.8266965  32.6966021  30.4345799   8.1775399
  32.1603378  29.9836538   8.8296996  32.1082729  30.5691708   7.4345864
  30.9914564  47.2009849   2.0720058  31.2311162  47.8328373   2.7499077
  30.1483761  46.8497889   2.3585417  41.9741273  38.3487519   7.5100319
  41.0868051  38.0113440   7.6326718  42.5439824  37.6170550   7.7469084
  28.4305142  29.5701807   5.2628394  28.3463331  28.9627477   4.5278804
  27.6087848  30.0610825   5.2637890  35.5042426  43.0088971   4.4761562
  35.4312598  43.8143943   4.9880867  35.0619819  43.2080937   3.6509583
  35.2932206  42.2460741  -2.0135616  34.5099728  42.7882421  -1.9197392
  35.9924951  42.7634721  -1.6141375  46.4558613  33.7595736   2.2716880
  46.4448489  34.6420451   1.9010814  45.5875993  33.4067287   2.0771418
  37.9641110  42.9075805   6.6319721  38.6769082  43.5423270   6.5595622
  37.4731138  43.0039671   5.8159723  39.6858636  36.8127058  -1.7962988
  38.7514915  36.9328520  -1.9658283  39.8635305  35.9099525  -2.0602978
  43.0731188  32.6544377  -1.2612953  43.5391640  33.4872369  -1.3352651
  43.5238688  32.1889359  -0.5567695  33.0153023  40.6570249   7.4525292
  33.7162483  41.2906731   7.6054686  32.5448138  40.9984980   6.6920931
  41.1407419  38.9988198  -4.2626801  41.4167263  38.8844793  -3.3532927
  40.2711918  38.6005683  -4.3014628  41.0447851  25.0224964   2.7777948
  40.1310930  25.2529191   2.9460155  41.4740952  25.1063408   3.6291980
  40.8154309  33.2114856   5.2777842  40.1625759  33.4590763   4.6230295
  41.1934689  32.3978994   4.9440319  37.7761483  43.2474549  -0.6193988
  37.9583877  42.4296205  -0.1566235  38.5994469  43.4642241  -1.0569098
  38.1103648  42.1742734  -3.3578939  38.6391415  41.6635189  -3.9708777
  38.3731868  41.8585264  -2.4933406  36.8641882  33.9534667  11.7643879
  36.1882519  33.8528796  12.4346254  37.6869516  33.7973881  12.2279876
  28.6120741  40.1906604   4.3856394  29.1974178  39.4450291   4.5184298
  28.4145580  40.5010560   5.2693058  31.4659396  43.2257851  -0.5981163
  30.7969772  43.7103979  -1.0817123  31.3272266  43.4727071   0.3162215
  35.6064665  45.2601594   6.0001495  36.1582973  45.4233216   6.7650580
  35.9470858  45.8506032   5.3281520  30.5829158  27.6076744   6.6023380
  30.6470485  28.4691575   6.1900777  30.5196278  26.9950746   5.8695738
  30.0581431  29.6799877  10.2496414  30.6853470  29.2976954  10.8633938
  29.2009350  29.4614079  10.6152106  40.4575539  40.0862852  11.8550149
  41.0015443  40.6992810  11.3605104  39.8762384  40.6442430  12.3717162
  38.7433052  43.2083570   2.9865177  38.6184192  42.4073310   2.4776123
  39.4012143  43.7029763   2.4979147  40.8067961  41.0092590   4.6144727
  39.8598296  40.8897941   4.5423054  41.1550734  40.1215088   4.6970989
  33.1667534  26.8986729   8.4382969  33.6901936  27.1449026   9.2009278
  32.9479867  27.7306764   8.0186106  37.8114394  40.8045306   0.8149079
  37.6639356  39.8762014   0.9956649  38.6367887  40.8265397   0.3306155
  41.4148516  41.6273865   1.9013952  42.3395063  41.4216726   1.7638403
  41.2463819  41.3790266   2.8103294  34.3720079  27.8400424   6.1232640
  34.0316899  27.0408237   6.5253320  33.6659085  28.1402135   5.5509473
  35.0236551  24.9249737   4.5759963  35.8462620  24.4510215   4.4538853
  35.2674614  25.7040220   5.0758649  32.5475130  31.6168857   2.3851941
  32.4019710  31.9309160   3.2776223  32.0700333  32.2353758   1.8322840
  34.4071513  28.6071405   2.4332831  34.3933081  27.7112498   2.0965129
  35.1243941  28.6142069   3.0671117  36.2597643  29.0408745   4.4785958
  36.0015421  29.9625816   4.4770289  35.7282684  28.6439180   5.1686422
  41.2043832  42.1459532  -2.7423956  41.3780710  41.5805955  -3.4950104
  41.6972723  42.9460427  -2.9244466  27.0220792  34.1574202   5.3239602
  26.4774260  34.9334010   5.4559877  27.9000142  34.5045006   5.1658724
  47.0583223  34.9095955  -1.1233657  47.5014369  34.1603281  -1.5214533
  46.1809733  34.9006092  -1.5059925  42.1919004  41.4626297  -5.6427058
  42.8869909  42.0832990  -5.4239743  42.5342155  40.6121648  -5.3674680
  27.8086814  33.2844098   8.2169759  27.0668550  33.4326733   8.8034390
  27.4879558  33.5452363   7.3536509  44.0910428  38.9126002  -4.1139727
  44.6161752  39.2513275  -4.8390407  44.0032780  37.9773018  -4.2976593
  35.7530476  42.8260076   8.0150149  36.0617603  42.5809223   8.8872849
  36.5505958  43.0306715   7.5269020  35.7751088  44.9797986   0.2455526
  35.3356079  44.4874364   0.9388383  36.5259205  44.4370953   0.0047601
  28.2543427  41.1709527   0.2480154  29.0801447  40.8713298  -0.1321203
  27.9037479  40.4017149   0.6969943  33.2224961  40.5235995   2.3177828
  32.6004970  39.8606700   2.0180055  33.8929827  40.5497127   1.6351475
  26.4552032  39.0895853   1.2069088  25.6183941  38.6618027   1.0253089
  26.4275678  39.2828296   2.1439879  33.2949488  29.0017783  11.9110334
  33.3437643  29.8779906  11.5288103  33.8372002  28.4595176  11.3381977
  43.7804334  39.5458906  11.1911471  42.9899877  39.5283045  10.6515970
  43.5437688  40.0847200  11.9460507  43.9002209  36.3951372   8.5044199
  43.9500214  36.2301380   9.4459722  43.7916132  35.5278631   8.1142080
  41.1905971  32.3782300   9.8203506  42.0915834  32.2388765   9.5287504
  41.2653946  32.5436755  10.7601683  35.5248776  29.7549155   8.6656692
  34.6552086  30.0482721   8.3939281  35.7608257  30.3389600   9.3863956
  45.4020406  38.8148314   8.7486221  45.1105214  39.1778295   9.5849682
  44.7892537  38.1015322   8.5699553  46.6016088  36.3801194   1.2688791
  47.4362979  36.8190998   1.4326351  46.7375217  35.9039847   0.4497037
  43.6507594  33.9380929   7.2166279  44.1261715  34.1308575   6.4085130
  42.7273159  33.9940114   6.9709662  38.2287810  25.9728772   6.1822113
  38.7469754  26.7089799   5.8568601  37.8742943  26.2792765   7.0168872
  42.3509263  30.8146689   5.4494584  43.3026686  30.9144786   5.4706808
  42.1812713  30.0224957   5.9592669  40.3723642  27.9002272   5.6353985
  39.7773574  28.1807285   4.9400474  40.0873339  28.3896173   6.4070726
  39.5031133  41.8525199  -5.6043382  40.4361806  41.7870760  -5.4010507
  39.4154346  42.6881466  -6.0628850  42.1319149  41.1691069  -8.6439435
  42.0532781  40.8350933  -7.7503677  42.9528816  41.6612837  -8.6447962
  44.8297341  34.0352808   4.5636884  44.7973661  33.0968809   4.7496568
  45.4397964  34.1136845   3.8302709  44.9791829  30.8263852   4.6095167
  44.4630878  30.0422308   4.4225096  45.8631778  30.4982568   4.7741687
  42.6402556  24.5704867   0.5690980  42.4427377  24.2619956   1.4534312
  43.2502262  25.2966506   0.6988910  50.6473890  35.0968815   3.7042921
  51.3777279  34.8354103   4.2650624  50.0380836  34.3597537   3.7444989
  48.7289188  33.2376678   4.3017372  48.0022351  33.1032643   3.6933864
  48.3136474  33.5453506   5.1074090  36.5519364  36.9566607  12.0664745
  37.4722373  37.1345206  12.2604792  36.5168947  36.0122653  11.9144444
  29.5481437  34.8667642   4.7087526  29.7667446  35.7984750   4.7275560
  29.9607210  34.5075617   5.4942330  34.4209302  30.4400848  14.0990275
  34.3206029  31.3895205  14.0302366  34.2030844  30.1119087  13.2266345
  25.6389789  35.7708113   2.9611141  24.9453260  35.3562065   2.4481096
  26.3862780  35.8128649   2.3644560  34.2840572  33.8697987  12.9155337
  33.8007654  34.6698347  13.1219226  34.3701511  33.8805932  11.9622781
  30.2113909  37.7602521   4.9523771  31.1657163  37.7286464   4.8853702
  30.0126433  37.2993145   5.7673996  30.8013291  36.3303637   7.5194568
  31.6206180  36.8247716   7.5429405  31.0750099  35.4135606   7.4912136
  43.9094424  28.7460911   0.5976863  44.6854814  29.2357363   0.8701480
  43.1842558  29.1718965   1.0548732  46.3466982  29.4588530   1.6550804
  46.9411473  29.2184266   0.9444112  46.4193566  28.7395661   2.2824340
  28.5664138  43.3022141   1.9693968  28.4318606  42.5422542   1.4031966
  28.1496200  44.0263041   1.5022757  40.5320911  34.2368926  -2.9027186
  40.4756113  34.6937477  -3.7419554  41.0849254  33.4759610  -3.0804343
  44.3425717  30.0258658  -2.0777067  44.0862652  29.6255293  -1.2468859
  43.7178585  30.7402452  -2.2026927  48.6538055  32.7654731   0.4294225
  48.0937613  32.8347920   1.2025787  48.0481559  32.5895715  -0.2906279
  31.7233264  44.1991458   2.1812411  31.6065648  45.1436890   2.0791101
  30.9025710  43.8965019   2.5698210  41.6109799  38.9241594  -6.9730996
  42.4455403  38.4922792  -7.1553521  41.4494141  38.7523607  -6.0454102
  26.0548206  30.6641771   8.2186765  26.7007069  30.1540725   8.7073990
  25.8465357  31.4010453   8.7930191  38.5801598  37.7322619  13.7178906
  39.4492758  37.9063271  13.3565541  38.1008349  38.5517036  13.5954635
  32.7487778  44.8519720   5.3968339  33.6515025  44.8843330   5.7134834
  32.5225148  43.9220171   5.4114675  34.5041380  43.6050706   2.0578418
  33.5537011  43.6052568   1.9442790  34.8073866  42.8583441   1.5414453
  30.3945697  27.8109388  12.3161779  31.2577158  27.4546193  12.5265104
  29.8211107  27.4723283  13.0037184  50.2394074  49.4411245   3.1224180
  50.8772484  49.3217992   2.4187521  50.1214917  50.3892089   3.1812133
  47.0483780  49.3938673   3.0585705  46.7102291  49.2779738   2.1706240
  47.9173548  48.9929838   3.0386711  42.9070596  51.2474149  -0.9517404
  42.3435461  51.1564086  -1.7201116  42.7922991  50.4274054  -0.4714911
  47.5303563  50.5473525   9.0171911  47.5192204  50.1526323   8.1452414
  47.6924202  49.8139597   9.6105682  40.4535028  52.7425341   1.8866817
  41.2456319  52.4016166   1.4713116  40.6931678  52.8520316   2.8068970
  44.2510824  53.3310636   7.9651095  43.9600690  54.2356267   7.8497761
  44.8867808  53.3727164   8.6795164  45.1767031  50.7087485   4.5552454
  45.7730603  50.4843507   3.8409417  45.2342002  49.9672230   5.1577902
  49.7935342  47.1662699   0.1977389  50.5798431  46.7482122  -0.1532194
  50.0574046  48.0708791   0.3659037  55.1943769  47.1037932   1.1010367
  55.9268941  46.5337149   1.3348197  54.4383125  46.7159532   1.5416873
  46.8119889  49.5265173  -1.7026291  46.4478096  48.9995794  -0.9913369
  47.6687005  49.1363642  -1.8759805  52.7169190  40.8159506   5.5604976
  52.3852514  41.6854917   5.3366191  52.1214803  40.4995790   6.2399006
  49.2100709  53.0172052   4.9600888  48.9101432  53.9197091   4.8516696
  48.8651769  52.7504235   5.8122041  42.6613191  49.4685849   0.9937593
  41.7363687  49.3362063   1.2015285  42.9097604  50.2480068   1.4907535
  52.6097853  45.5354592   2.6398326  51.7014730  45.4670001   2.3457087
  52.5585449  46.0126537   3.4680151  40.0222002  49.1119122   1.8281382
  40.1514383  49.3653601   2.7420794  39.3419453  49.7046830   1.5086037
  46.6838719  46.9544238  10.5833223  45.9072053  47.5138158  10.5736088
  47.3229282  47.4401021  11.1048093  54.4759499  43.7371030   4.4176200
  53.8333880  44.0303564   3.7715994  53.9714428  43.6223951   5.2229396
  44.9385091  49.7629691  10.1451190  45.6799775  50.3014735   9.8686014
  44.2322077  50.3895980  10.3022742  50.4140431  51.9058832   8.7423351
  50.8223787  51.4641242   7.9977984  49.6917692  51.3311459   8.9957544
  46.7671501  46.8431438   6.1156908  47.6132696  47.2670852   6.2591557
  46.7070138  46.1865063   6.8095472  50.7369245  52.4660022   2.4975640
  50.1078108  52.6305736   1.7951708  50.3494907  52.8801632   3.2686604
  49.9170946  44.5035807   7.7738082  49.6731878  45.2577867   7.2372358
  50.1930877  44.8821154   8.6085329  51.8709409  51.0474419   6.4515348
  52.0826304  51.6906179   5.7749729  51.8239157  50.2136736   5.9837278
  49.4735638  43.6592240   3.3551920  48.6120117  43.9573493   3.6468657
  49.4998072  43.8762639   2.4232952  46.2897207  52.2034430  -0.2374275
  46.7535553  52.4822133  -1.0269652  46.0254005  51.3017875  -0.4201184
  43.1821288  51.7505912   2.7005489  43.7522645  52.1793180   2.0622973
  43.7729400  51.4688496   3.3989674  45.2266093  48.3257583  -3.4284709
  45.9290137  48.7778626  -2.9610783  44.8946722  47.6841401  -2.8004816
  43.6746455  46.9169339  10.9466500  43.0445115  47.5985620  11.1801897
  43.5682543  46.8052421  10.0019638  38.9691427  46.5841135   1.8732424
  38.1790481  46.8398664   1.3972535  39.4602675  47.3989473   1.9784465
  52.9855237  53.9246374   4.6237705  53.8072681  53.5226562   4.3420387
  52.9817640  53.8214609   5.5753821  40.9206173  46.9485715  -1.1684099
  40.1237336  47.0604409  -0.6500603  40.6931765  47.2872367  -2.0343209
  46.7511840  53.4730418   6.7798415  46.8156273  53.9350825   7.6156587
  46.0422764  52.8427783   6.9080725  37.2529130  46.8371626   4.3047415
  37.5037169  47.7218636   4.5704991  37.7888679  46.6576227   3.5322507
  42.9527198  41.2190105  13.3091751  42.5594143  40.6656304  13.9839395
  43.7693338  41.5300684  13.6998269  39.9189255  52.6573963  -2.7794679
  40.4313776  53.4517214  -2.6289114  40.5711968  51.9600254  -2.8461078
  45.8695159  42.6347984  10.9012008  46.6104872  43.2355137  10.8216470
  46.1013081  41.8925622  10.3430050  41.0136497  47.8204351   9.1790237
  40.8990012  46.9189609   9.4797336  40.1581014  48.0668048   8.8275054
  48.0928334  55.7622092  10.7777738  47.6492188  54.9758470  10.4598642
  48.7545548  55.9501242  10.1121629  42.8515455  57.2917893   5.3038416
  43.4022881  57.1634957   4.5315410  42.0126931  57.5912782   4.9533309
  50.1909572  56.0424892   8.8059139  50.1728048  56.8633773   8.3139408
  51.1129492  55.9178967   9.0309280  46.6482626  53.5569021   9.6482648
  47.1810963  52.7957309   9.4181955  46.1196708  53.2642673  10.3906802
  49.8152321  38.6629087   5.1776289  49.4716591  39.5530729   5.1015400
  50.1831284  38.4730745   4.3145874  37.8838172  50.9862618  -2.0035109
  38.7213394  51.3959626  -2.2201401  38.0616440  50.0462060  -2.0334915
  47.3649715  43.4987399  -1.2566037  46.5091312  43.1094249  -1.4360399
  47.7776667  43.5779360  -2.1166252  48.8948862  41.0333742   3.1425523
  48.3913657  40.9963877   2.3293328  49.1879469  41.9426485   3.2022179
  45.1391748  41.1172472   2.1491704  46.0044744  40.9215281   1.7897594
  45.2069257  40.8882824   3.0761061  52.9928185  50.8804034   2.2768506
  52.3351860  51.5703296   2.3648634  53.7968584  51.2700466   2.6202492
  42.7454067  43.3474680  -0.4791929  43.3197819  43.1249861  -1.2118736
  43.3325049  43.4163374   0.2736672  51.8033644  49.2348407   0.3272448
  52.3165526  49.8678399   0.8294157  52.4534868  48.6349602  -0.0384192
  45.0476735  40.2215929  -1.7516860  44.3941147  39.9064946  -2.3760245
  45.0057209  39.5991669  -1.0257037  48.2814475  46.7097862   2.5730788
  47.3637036  46.9312809   2.4152476  48.6974618  46.7844173   1.7142495
  51.5128360  45.1446394  -0.3147742  50.7751117  44.6323780   0.0162500
  51.7655133  44.7046776  -1.1264465  51.6139987  37.9222646   0.2794027
  51.9198864  37.0620010  -0.0080058  52.3392592  38.5140266   0.0793021
  37.9064343  48.3253333  -1.3324375  37.7088743  47.7322694  -2.0573309
  37.3511007  48.0205543  -0.6148436  45.8861067  48.2176439   0.7870218
  45.9409677  47.2650276   0.7112695  45.0752269  48.3735878   1.2711516
  43.8253427  46.8353499  -1.4539403  43.0121292  47.1347670  -1.0474211
  44.3212421  46.4409188  -0.7364921  49.4227638  47.2995324   7.3775491
  49.7777026  47.5266797   8.2369957  50.0699770  47.6313700   6.7552746
  43.3167502  44.4071855   4.1621832  43.9566881  44.2660614   3.4644795
  42.4845032  44.1206368   3.7860434  44.0927805  53.7074285   0.2756824
  44.8868404  53.2124605   0.0739399  43.3819498  53.1792148  -0.0875470
  48.9122650  56.0892381   4.6269192  48.9659672  56.6583317   5.3946908
  48.0437431  56.2594266   4.2623229  40.4010569  47.8517367  -3.6483423
  39.4708157  47.7901822  -3.4313461  40.4968041  47.3293320  -4.4446782
  40.3196118  44.3772180  -1.0605181  40.5802935  45.2917513  -1.1696021
  41.1413290  43.9096622  -0.9108569  41.7921043  45.7909937   6.1093643
  42.4644097  45.5827299   5.4606292  40.9650830  45.5932023   5.6698875
  56.0410305  52.5313987   5.6268977  56.2346195  53.4359798   5.8728252
  55.9410923  52.0721406   6.4607562  47.6946615  42.4171878   8.1259304
  47.0474530  43.1161827   8.0323780  48.4647631  42.8508022   8.4935552
  51.1025413  52.6820730  11.2009857  50.9510920  52.4531282  10.2839941
  51.0930093  53.6391331  11.2141202  47.8710750  50.2552643   6.1856124
  48.8002810  50.4063802   6.0125091  47.4501780  50.3436663   5.3304770
  46.6699081  54.2803307   3.9554661  46.5310167  53.9122091   4.8280599
  45.8813678  54.7950946   3.7838619  48.2204297  53.6584910   1.3443499
  47.8854129  53.6185680   2.2401149  47.7208242  52.9929626   0.8713909
  42.1948541  49.0652540   6.8696080  42.0568338  48.3332779   7.4707619
  43.1053464  48.9761440   6.5880268  44.8230841  48.7772499   6.3579760
  45.5330460  48.1365691   6.3166378  44.7800149  49.0285394   7.2805941
  52.8117620  55.7139852   9.2786339  52.7530166  55.0299073   8.6116922
  53.2137138  56.4558842   8.8266965  43.5359775  45.7637717   8.1775399
  42.9997132  45.3128455   8.8296996  42.9476484  45.8983626   7.4345864
  52.8135027  53.6779436   7.5100319  51.9261806  53.3405358   7.6326718
  53.3833578  52.9462468   7.7469084  34.4664174  50.0103528   0.8343370
  35.1535214  49.6965258   0.2464386  34.3112303  50.9144893   0.5610622
  39.2698896  44.8993725   5.2628394  39.1857085  44.2919394   4.5278804
  38.4481603  45.3902743   5.2637890  46.3436181  58.3380889   4.4761562
  46.2706352  59.1435860   4.9880867  45.9013574  58.5372855   3.6509583
  49.4422610  43.3847288   0.6298589  49.9391310  42.6317251   0.3099659
  48.6709592  43.4211605   0.0641798  57.2952368  49.0887654   2.2716880
  57.2842244  49.9712369   1.9010814  56.4269747  48.7359205   2.0771418
  48.8034864  58.2367723   6.6319721  49.5162836  58.8715188   6.5595622
  48.3124893  58.3331589   5.8159723  46.0257579  45.5264671   0.3570274
  45.6555367  44.9735712   1.0451179  46.5216671  44.9222805  -0.1954726
  43.8546778  55.9862166   7.4525292  44.5556237  56.6198649   7.6054686
  43.3841893  56.3276898   6.6920931  51.8841605  40.3516882   2.7777948
  50.9704685  40.5821109   2.9460155  52.3134707  40.4355326   3.6291980
  51.6548064  48.5406774   5.2777842  51.0019514  48.7882681   4.6230295
  52.0328443  47.7270912   4.9440319  47.7035637  49.2826585  11.7643879
  47.0276274  49.1820714  12.4346254  48.5263270  49.1265798  12.2279876
  39.4514496  55.5198521   4.3856394  40.0367932  54.7742209   4.5184298
  39.2539334  55.8302478   5.2693058  34.0432150  48.0904121   3.1060837
  34.0816250  47.5567712   3.8997955  33.5372443  47.5639327   2.4871815
  46.4458419  60.5893512   6.0001495  46.9976727  60.7525134   6.7650580
  46.7864613  61.1797950   5.3281520  41.4222913  42.9368662   6.6023380
  41.4864239  43.7983493   6.1900777  41.3590033  42.3242664   5.8695738
  40.8975185  45.0091795  10.2496414  41.5247224  44.6268872  10.8633938
  40.0403104  44.7905996  10.6152106  51.2969294  55.4154770  11.8550149
  51.8409198  56.0284728  11.3605104  50.7156139  55.9734348  12.3717162
  37.6740728  46.8168224  -3.8185231  37.9694169  45.9078902  -3.8718178
  36.7728764  46.7955963  -4.1404229  41.2034975  44.8924220   2.1642317
  40.4821561  45.5060188   2.0249791  41.9928231  45.4281985   2.0858963
  51.6461715  56.3384508   4.6144727  50.6992051  56.2189859   4.5423054
  51.9944488  55.4507006   4.6970989  44.0061289  42.2278647   8.4382969
  44.5295690  42.4740943   9.2009278  43.7873622  43.0598681   8.0186106
  39.4028570  44.4982321  -3.6945906  39.0741276  43.6179700  -3.8770800
  39.7567940  44.4429990  -2.8069517  42.5170393  44.7855291  -3.3270428
  42.8566465  45.3141212  -4.0491820  42.9642513  45.1235697  -2.5511862
  45.2113834  43.1692342   6.1232640  44.8710654  42.3700155   6.5253320
  44.5052840  43.4694053   5.5509473  45.8630305  40.2541654   4.5759963
  46.6856375  39.7802132   4.4538853  46.1068369  41.0332138   5.0758649
  44.5038540  43.2829913  -5.1277136  45.2246902  43.6611165  -5.6313419
  43.8803844  44.0018789  -5.0242158  48.6469663  43.9875062  -4.1918803
  48.8633277  44.8699700  -4.4929975  48.1663730  43.5961275  -4.9213161
  43.3868884  46.9460775   2.3851941  43.2413465  47.2601078   3.2776223
  42.9094088  47.5645675   1.8322840  45.2465267  43.9363323   2.4332831
  45.2326836  43.0404416   2.0965129  45.9637695  43.9433987   3.0671117
  47.0991398  44.3700663   4.4785958  46.8409176  45.2917734   4.4770289
  46.5676438  43.9731098   5.1686422  37.8614546  49.4866119   5.3239602
  37.3168014  50.2625927   5.4559877  38.7393896  49.8336924   5.1658724
  44.6502163  42.8177703  -2.2979599  44.7718074  41.8894349  -2.0988712
  44.3604205  42.8316389  -3.2101284  47.5193353  40.5032614   0.8387121
  47.5415050  40.5671947  -0.1160900  47.9361412  39.6637122   1.0327627
  38.6480568  48.6136016   8.2169759  37.9062304  48.7618651   8.8034390
  38.3273312  48.8744281   7.3536509  46.5924231  58.1551994   8.0150149
  46.9011357  57.9101141   8.8872849  47.3899713  58.3598632   7.5269020
  39.0937182  56.5001444   0.2480154  39.9195202  56.2005216  -0.1321203
  38.7431234  55.7309067   0.6969943  44.0618715  55.8527912   2.3177828
  43.4398724  55.1898617   2.0180055  44.7323582  55.8789044   1.6351475
  37.2945787  54.4187771   1.2069088  36.4577695  53.9909945   1.0253089
  37.2669432  54.6120214   2.1439879  44.1343242  44.3309700  11.9110334
  44.1831398  45.2071823  11.5288103  44.6765757  43.7887094  11.3381977
  54.6198088  54.8750824  11.1911471  53.8293632  54.8574963  10.6515970
  54.3831443  55.4139117  11.9460507  54.7395963  51.7243290   8.5044199
  54.7893968  51.5593298   9.4459722  54.6309887  50.8570549   8.1142080
  52.0299726  47.7074218   9.8203506  52.9309588  47.5680683   9.5287504
  52.1047700  47.8728673  10.7601683  46.3642531  45.0841073   8.6656692
  45.4945840  45.3774639   8.3939281  46.6002011  45.6681518   9.3863956
  56.2414160  54.1440232   8.7486221  55.9498968  54.5070212   9.5849682
  55.6286291  53.4307240   8.5699553  54.4901348  49.2672846   7.2166279
  54.9655470  49.4600493   6.4085130  53.5666914  49.3232032   6.9709662
  41.3784855  50.4297013  -3.2002643  41.1330897  49.5259343  -3.0022433
  41.5480769  50.4314164  -4.1423165  49.0681565  41.3020690   6.1822113
  49.5863509  42.0381717   5.8568601  48.7136698  41.6084683   7.0168872
  40.6480502  46.1625371  -5.7016482  39.9549747  46.2369726  -6.3576446
  40.4032254  45.3985715  -5.1794965  49.3194159  37.7220972   1.7023009
  49.5995913  37.0544161   2.3283436  50.1044766  37.9150068   1.1897673
  53.1903017  46.1438606   5.4494584  54.1420440  46.2436704   5.4706808
  53.0206468  45.3516875   5.9592669  51.2117397  43.2294190   5.6353985
  50.6167329  43.5099202   4.9400474  50.9267093  43.7188090   6.4070726
  55.6691095  49.3644726   4.5636884  55.6367415  48.4260727   4.7496568
  56.2791719  49.4428763   3.8302709  55.8185584  46.1555769   4.6095167
  55.3024632  45.3714226   4.4225096  56.7025532  45.8274486   4.7741687
  53.4796310  39.8996785   0.5690980  53.2821132  39.5911873   1.4534312
  54.0896016  40.6258424   0.6988910  61.4867645  50.4260733   3.7042921
  62.2171033  50.1646021   4.2650624  60.8774590  49.6889455   3.7444989
  59.5682942  48.5668595   4.3017372  58.8416106  48.4324560   3.6933864
  59.1530229  48.8745424   5.1074090  47.3913118  52.2858525  12.0664745
  48.3116128  52.4637124  12.2604792  47.3562701  51.3414570  11.9144444
  36.6095283  47.4797119   0.9918020  36.2898068  46.6262427   0.6992394
  36.0628712  47.6945697   1.7475987  40.3875191  50.1959560   4.7087526
  40.6061201  51.1276668   4.7275560  40.8000965  49.8367534   5.4942330
  47.3079409  40.7027645  -3.3036785  46.4980137  40.3574730  -2.9281539
  47.9963826  40.3935189  -2.7149174  49.2369957  39.7805692  -1.6812489
  49.7900996  40.2001145  -1.0222466  49.4740043  38.8541440  -1.6389533
  45.2603056  45.7692766  14.0990275  45.1599783  46.7187123  14.0302366
  45.0424598  45.4411004  13.2266345  36.4783543  51.1000030   2.9611141
  35.7847015  50.6853983   2.4481096  37.2256534  51.1420567   2.3644560
  52.6148764  41.8906217  -2.1733825  52.0347433  42.5491021  -2.5555772
  52.3484697  41.0683562  -2.5846407  51.0652331  41.2911275   0.0287496
  51.5652109  41.4027809  -0.7798185  51.7087938  40.9872328   0.6688304
  45.1234326  49.1989904  12.9155337  44.6401408  49.9990265  13.1219226
  45.2095265  49.2097849  11.9622781  38.3920286  51.0318284   0.8377156
  38.3690974  51.1305971  -0.1140961  38.7020922  51.8783435   1.1594322
  41.0507664  53.0894439   4.9523771  42.0050917  53.0578381   4.8853702
  40.8520187  52.6285063   5.7673996  41.6407046  51.6595555   7.5194568
  42.4599935  52.1539634   7.5429405  41.9143854  50.7427523   7.4912136
  51.3973642  44.0506307  -3.1177476  50.5099497  44.3355958  -3.3357282
  51.8127631  43.8900071  -3.9650199  54.7488178  44.0752828   0.5976863
  55.5248568  44.5649281   0.8701480  54.0236312  44.5010883   1.0548732
  57.1860737  44.7880448   1.6550804  57.7805228  44.5476184   0.9444112
  57.2587321  44.0687578   2.2824340  39.4057893  58.6314059   1.9693968
  39.2712361  57.8714459   1.4031966  38.9889955  59.3554958   1.5022757
  42.5627019  59.5283376   2.1812411  42.4459403  60.4728808   2.0791101
  41.7419465  59.2256937   2.5698210  36.8941960  45.9933689   8.2186765
  37.5400824  45.4832643   8.7073990  36.6859111  46.7302371   8.7930191
  49.4195352  53.0614536  13.7178906  50.2886512  53.2355189  13.3565541
  48.9402104  53.8808953  13.5954635  45.4145571  40.2573734  -6.0289339
  45.4024241  41.2015574  -5.8721068  46.3068993  40.0743879  -6.3229877
  43.5881533  60.1811638   5.3968339  44.4908779  60.2135248   5.7134834
  43.3618903  59.2512088   5.4114675  49.2297690  36.8516510  -1.7743402
  48.4630086  36.2974997  -1.6286719  49.6408395  36.9238379  -0.9129250
  41.2339451  43.1401306  12.3161779  42.0970913  42.7838111  12.5265104
  40.6604862  42.8015201  13.0037184  57.5232473  62.2836155  10.5833223
  56.7465807  62.8430076  10.5736088  58.1623036  62.7692938  11.1048093
  54.5140209  62.2461257  10.9466500  53.8838870  62.9277538  11.1801897
  54.4076297  62.1344339  10.0019638  53.7920952  56.5482023  13.3091751
  53.3987898  55.9948221  13.9839395  54.6087092  56.8592601  13.6998269
  56.7088913  57.9639902  10.9012008  57.4498626  58.5647055  10.8216470
  56.9406836  57.2217540  10.3430050  51.8530251  63.1496269   9.1790237
  51.7383766  62.2481526   9.4797336  50.9974769  63.3959966   8.8275054
  58.5340370  57.7463795   8.1259304  57.8868285  58.4453745   8.0323780
  59.3041385  58.1799939   8.4935552  54.3753530  61.0929635   8.1775399
  53.8390887  60.6420373   8.8296996  53.7870238  61.2275543   7.4345864
  50.1092651  60.2285642   5.2628394  50.0250840  59.6211312   4.5278804
  49.2875357  60.7194661   5.2637890  58.5429391  64.6118502  11.7643879
  57.8670028  64.5112632  12.4346254  59.3657025  64.4557716  12.2279876
  52.2616667  58.2660580   6.6023380  52.3257994  59.1275411   6.1900777
  52.1983787  57.6534581   5.8695738  51.7368940  60.3383712  10.2496414
  52.3640979  59.9560790  10.8633938  50.8796859  60.1197914  10.6152106
  54.8455043  57.5570564   8.4382969  55.3689445  57.8032861   9.2009278
  54.6267376  58.3890599   8.0186106  49.4874323  63.9427933   8.2169759
  48.7456059  64.0910569   8.8034390  49.1667067  64.2036199   7.3536509
  54.9736997  59.6601618  11.9110334  55.0225152  60.5363741  11.5288103
  55.5159511  59.1179011  11.3381977  57.2036285  60.4132991   8.6656692
  56.3339595  60.7066557   8.3939281  57.4395766  60.9973436   9.3863956
  56.0996811  61.0984683  14.0990275  55.9993538  62.0479040  14.0302366
  55.8818353  60.7702922  13.2266345  55.9628081  64.5281822  12.9155337
  55.4795163  65.3282182  13.1219226  56.0489020  64.5389767  11.9622781
  47.7335715  61.3225607   8.2186765  48.3794578  60.8124561   8.7073990
  47.5252866  62.0594288   8.7930191  52.0733206  58.4693224  12.3161779
  52.9364667  58.1130029  12.5265104  51.4998616  58.1307119  13.0037184
  48.0928336  32.7684214  -2.4976955  47.6492190  31.9820593  -2.8156051
  48.7545549  32.9563365  -3.1633065  50.1909574  33.0487014  -4.4695554
  50.1728049  33.8695895  -4.9615285  51.1129494  32.9241089  -4.2445413
  46.6482628  30.5631144  -3.6272046  47.1810965  29.8019432  -3.8572738
  46.1196709  30.2704796  -2.8847891  51.1025414  29.6882852  -2.0744836
  50.9510921  29.4593404  -2.9914752  51.0930094  30.6453454  -2.0613491
  52.8117621  32.7201975  -3.9968354  52.7530167  32.0361195  -4.6637771
  53.2137140  33.4620965  -4.4487728  52.8135028  30.6841559  -5.7654375
  51.9261807  30.3467481  -5.6427976  53.3833579  29.9524590  -5.5285609
  48.8034865  35.2429845  -6.6434973  49.5162838  35.8777310  -6.7159071
  48.3124894  35.3393711  -7.4594971  47.7035638  26.2888707  -1.5110814
  47.0276275  26.1882837  -0.8408439  48.5263272  26.1327921  -1.0474817
  46.4458421  37.5955635  -7.2753198  46.9976729  37.7587256  -6.5104113
  46.7864614  38.1860073  -7.9473174  51.2969295  32.4216892  -1.4204544
  51.8409199  33.0346851  -1.9149589  50.7156140  32.9796471  -0.9037531
  46.5924232  35.1614116  -5.2604544  46.9011358  34.9163263  -4.3881844
  47.3899714  35.3660755  -5.7485674  54.6198089  31.8812946  -2.0843223
  53.8293633  31.8637085  -2.6238723  54.3831444  32.4201240  -1.3294186
  54.7395964  28.7305413  -4.7710494  54.7893969  28.5655420  -3.8294971
  54.6309888  27.8632672  -5.1612613  52.0299727  24.7136341  -3.4551187
  52.9309590  24.5742806  -3.7467190  52.1047701  24.8790796  -2.5153010
  56.2414161  31.1502354  -4.5268473  55.9498970  31.5132335  -3.6905012
  55.6286293  30.4369363  -4.7055141  47.3913120  29.2920648  -1.2089948
  48.3116129  29.4699247  -1.0149902  47.3562703  28.3476693  -1.3610249
  45.1234328  26.2052027  -0.3599357  44.6401409  27.0052387  -0.1535468
  45.2095267  26.2159972  -1.3131913  49.4195354  30.0676659   0.4424212
  50.2886513  30.2417311   0.0810847  48.9402105  30.8871076   0.3199942
  57.5232474  39.2898278  -2.6921470  56.7465809  39.8492198  -2.7018606
  58.1623038  39.7755061  -2.1706600  54.5140211  39.2523380  -2.3288193
  53.8838871  39.9339660  -2.0952797  54.4076298  39.1406461  -3.2735055
  53.7920953  33.5544145   0.0337058  53.3987899  33.0010344   0.7084702
  54.6087094  33.8654724   0.4243575  56.7088914  34.9702024  -2.3742686
  57.4498628  35.5709178  -2.4538223  56.9406837  34.2279662  -2.9324643
  51.8530252  40.1558392  -4.0964456  51.7383767  39.2543649  -3.7957357
  50.9974770  40.4022088  -4.4479640  58.5340371  34.7525918  -5.1495389
  57.8868286  35.4515868  -5.2430913  59.3041386  35.1862062  -4.7819141
  54.3753531  38.0991757  -5.0979294  53.8390888  37.6482496  -4.4457698
  53.7870239  38.2337666  -5.8408830  50.1092652  37.2347765  -8.0126299
  50.0250841  36.6273434  -8.7475889  49.2875359  37.7256783  -8.0116803
  58.5429392  41.6180625  -1.5110814  57.8670029  41.5174754  -0.8408439
  59.3657026  41.4619839  -1.0474817  52.2616668  35.2722702  -6.6731314
  52.3257995  36.1337533  -7.0853916  52.1983789  34.6596704  -7.4058955
  51.7368941  37.3445835  -3.0258279  52.3640980  36.9622912  -2.4120755
  50.8796860  37.1260037  -2.6602587  54.8455044  34.5632687  -4.8371724
  55.3689446  34.8094984  -4.0745415  54.6267378  35.3952722  -5.2568587
  49.4874324  40.9490056  -5.0584934  48.7456060  41.0972691  -4.4720304
  49.1667068  41.2098321  -5.9218185  54.9736998  36.6663741  -1.3644360
  55.0225154  37.5425864  -1.7466590  55.5159512  36.1241134  -1.9372717
  57.2036287  37.4195113  -4.6098001  56.3339596  37.7128679  -4.8815413
  57.4395767  38.0035558  -3.8890738  56.0996812  38.1046806   0.8235582
  55.9993539  39.0541163   0.7547673  55.8818354  37.7765045  -0.0488348
  55.9628082  41.5343945  -0.3599357  55.4795164  42.3344305  -0.1535468
  56.0489021  41.5451890  -1.3131913  47.7335716  38.3287729  -5.0567928
  48.3794580  37.8186683  -4.5680703  47.5252867  39.0656411  -4.4824503
  52.0733207  35.4755346  -0.9592914  52.9364669  35.1192151  -0.7489589
  51.4998618  35.1369241  -0.2717510   6.8792455  65.5977042  27.5232060
   6.1256163  65.0284440  27.3676065   7.0139996  65.5639707  28.4702695
   0.9556600  65.7505679  24.6334203   0.8174499  65.9407275  23.7055393
   0.5992819  66.5125062  25.0902255   0.9825980  67.8182206  29.6445475
   1.4162487  67.7257495  30.4928529   1.6957561  67.7939706  29.0065491
   1.8441530  67.8605907  32.1778360   2.0377420  68.7651717  32.4237635
   1.7442148  67.4013326  33.0116945   3.0983593  64.4179573  28.8226264
   3.0873469  65.3004289  28.4520197   2.2300972  64.0651124  28.6280801
   3.7008203  65.5679793  25.4275727   4.1439349  64.8187118  25.0294850
   2.8234713  65.5589929  25.0449459   0.5427188  67.0535210  35.0553583
   0.5925193  66.8885217  35.9969106   0.4341112  66.1862469  34.6651464
   2.0445385  69.4732151  35.2995604   1.7530193  69.8362132  36.1359065
   1.4317516  68.7599159  35.1208936   3.2441067  67.0385031  27.8198175
   4.0787959  67.4774835  27.9835735   3.3800196  66.5623684  27.0006420
   1.4722320  64.6936645  31.1146268   1.4398640  63.7552646  31.3005951
   2.0822944  64.7720682  30.3812092   1.6216809  61.4847689  31.1604551
   1.1055857  60.7006146  30.9734480   2.5056757  61.1566406  31.3251070
   7.2898870  65.7552652  30.2552304   8.0202258  65.4937940  30.8160008
   6.6805815  65.0181374  30.2954372   5.3714167  63.8960515  30.8526756
   4.6447331  63.7616480  30.2443247   4.9561454  64.2037344  31.6583474
   2.9891962  60.1172367  28.2060187   3.5836453  59.8768103  27.4953495
   3.0618546  59.3979498  28.8333723   0.9850697  60.6842495  24.4732317
   0.7287631  60.2839130  25.3040525   0.3603565  61.3986289  24.3482456
   5.2963035  63.4238568  26.9803608   4.7362593  63.4931757  27.7535170
   4.6906538  63.2479553  26.2603105   9.3594169  71.4743343  32.1114359
   9.0277494  72.3438754  31.8875574   8.7639783  71.1579627  32.7908390
  11.1184479  74.3954868  30.9685583  10.4758859  74.6887401  30.3225378
  10.6139407  74.2807788  31.7738780   6.4577301  69.3212924  31.7285673
   6.1141570  70.2114566  31.6524783   6.8256264  69.1314582  30.8655258
   5.5373841  71.6917579  29.6934906   5.0338637  71.6547715  28.8802711
   5.8304448  72.6010322  29.7531563   1.6901714  70.8799766  24.7992524
   1.0366126  70.5648783  24.1749139   1.6482188  70.2575506  25.5252347
   8.2564967  68.5806483  26.8303411   8.5623843  67.7203847  26.5429326
   8.9817571  69.1724104  26.6302404   8.5266585  71.0100719  29.3287331
   7.6129664  71.2404946  29.4969538   8.9559686  71.0939163  30.1801364
   2.5055285  70.9125491  31.1269346   3.3281354  70.4385970  31.0048237
   2.7493348  71.6915975  31.6268033   4.1618333  71.1616451  27.3896504
   4.1840030  71.2255784  26.4348484   4.5786392  70.3220959  27.5837011
   5.7106544  71.9604527  32.7331496   6.2288488  72.6965554  32.4077985
   5.3561677  72.2668520  33.5678255   5.9619138  68.3804809  28.2532393
   6.2420892  67.7127999  28.8792819   6.7469745  68.5733905  27.7407057
  10.1221290  70.5580622  27.1200363   9.9246111  70.2495710  28.0043695
  10.7320996  71.2842261  27.2498293   3.9504388  71.3611482  23.2472598
   3.1405117  71.0158567  23.6227844   4.6388805  71.0519026  23.8360210
   5.8794937  70.4389529  24.8696895   6.4325975  70.8584982  25.5286918
   6.1165023  69.5125277  24.9119851   9.2573744  72.5490054  24.3775559
   8.6772413  73.2074858  23.9953611   8.9909676  71.7267399  23.9662977
   7.7077310  71.9495112  26.5796879   8.2077088  72.0611646  25.7711198
   8.3512918  71.6456165  27.2197688  13.8285716  75.4464285  28.2060187
  14.4230207  75.2060021  27.4953495  13.9012300  74.7271415  28.8333723
   5.8722670  67.5100347  24.7765982   5.1055065  66.9558834  24.9222664
   6.2833375  67.5822216  25.6380133   6.8792456  42.6039165  14.2477367
   6.1256165  42.0346563  14.0921371   7.0139997  42.5701829  15.1948001
   0.9556602  42.7567802  11.3579510   0.8174500  42.9469397  10.4300699
   0.5992820  43.5187184  11.8147561   0.9825981  44.8244329  16.3690782
   1.4162488  44.7319618  17.2173836   1.6957562  44.8001829  15.7310798
   1.8441531  44.8668029  18.9023667   2.0377421  45.7713840  19.1482942
   1.7442149  44.4075448  19.7362252   3.0983594  41.4241696  15.5471571
   3.0873470  42.3066411  15.1765504   2.2300973  41.0713247  15.3526108
   3.7008204  42.5741915  12.1521034   4.1439350  41.8249240  11.7540157
   2.8234714  42.5652052  11.7694766   0.5427189  44.0597332  21.7798889
   0.5925194  43.8947340  22.7214412   0.4341113  43.1924591  21.3896770
   2.0445386  46.4794274  22.0240911   1.7530195  46.8424254  22.8604372
   1.4317518  45.7661282  21.8454243   3.2441069  44.0447153  14.5443481
   4.0787960  44.4836958  14.7081042   3.3800197  43.5685807  13.7251727
   1.4722321  41.6998768  17.8391574   1.4398641  40.7614769  18.0251258
   2.0822945  41.7782805  17.1057399   1.6216810  38.4909812  17.8849857
   1.1055858  37.7068268  17.6979786   2.5056758  38.1628528  18.0496377
   7.2898871  42.7614775  16.9797611   8.0202260  42.5000063  17.5405314
   6.6805817  42.0243497  17.0199679   5.3714168  40.9022638  17.5772062
   4.6447332  40.7678602  16.9688554   4.9561455  41.2099466  18.3828780
   2.9891963  37.1234490  14.9305494   3.5836454  36.8830226  14.2198802
   3.0618547  36.4041620  15.5579030   0.9850698  37.6904617  11.1977624
   0.7287632  37.2901253  12.0285831   0.3603566  38.4048411  11.0727763
   5.2963036  40.4300691  13.7048915   4.7362594  40.4993880  14.4780477
   4.6906539  40.2541675  12.9848411   6.8819054  57.1057204  16.3978871
   7.5197464  56.9863952  15.6942211   6.7639897  58.0538048  16.4566823
   3.6908761  57.0584633  16.3340395   3.3527272  56.9425697  15.4460930
   4.5598529  56.6575798  16.3141402   4.1728544  58.2119484  22.2926601
   4.1617184  57.8172283  21.4207105   4.3349183  57.4785557  22.8860372
   0.8935805  60.9956596  21.2405785   0.6025671  61.9002227  21.1252451
   1.5292789  61.0373124  21.9549855   1.8192012  58.3733445  17.8307145
   2.4155584  58.1489467  17.1164108   1.8766983  57.6318190  18.4332592
   6.4360323  54.8308658  13.4732079   7.2223412  54.4128082  13.1222496
   6.6999027  55.7354751  13.6413727  11.8368750  54.7683892  14.3765057
  12.5693922  54.1983108  14.6102887  11.0808106  54.3805492  14.8171563
   9.3594170  48.4805466  18.8359666   9.0277495  49.3500877  18.6120881
   8.7639784  48.1641750  19.5153696   5.8525690  60.6818012  18.2355579
   5.5526413  61.5843050  18.1271386   5.5076749  60.4150195  19.0876732
   9.2522834  53.2000552  15.9153016   8.3439711  53.1315960  15.6211777
   9.2010430  53.6772497  16.7434841   3.3263700  54.6190197  23.8587913
   2.5497034  55.1784118  23.8490778   3.9654263  55.1046980  24.3802783
  11.1184480  51.4016990  17.6930890  10.4758860  51.6949523  17.0470684
  10.6139409  51.2869911  18.4984087   1.5810072  57.4275651  23.4205880
   2.3224756  57.9660695  23.1440704   0.8747057  58.0541940  23.5777432
   7.0565411  59.5704791  22.0178042   7.4648767  59.1287202  21.2732674
   6.3342673  58.9957419  22.2712235   3.4096482  54.5077398  19.3911599
   4.2557677  54.9316812  19.5346248   3.3495119  53.8511022  20.0850162
   7.3794226  60.1305982  15.7730331   6.7503089  60.2951696  15.0706398
   6.9919888  60.5447591  16.5441295  11.2583458  61.0660420  13.1274694
  10.5734496  61.4459321  12.5771728  11.3427307  61.6755746  13.8606642
   6.5595927  52.1681766  21.0492772   6.3156859  52.9223827  20.5127048
   6.8355857  52.5467114  21.8840019   8.5134390  58.7120379  19.7270038
   8.7251285  59.3552139  19.0504419   8.4664138  57.8782695  19.2591968
   6.1160619  51.3238199  16.6306610   5.2545098  51.6219453  16.9223348
   6.1423053  51.5408598  15.6987643   9.6280218  61.5892334  17.8992395
  10.4497661  61.1872521  17.6175077   9.6242620  61.4860568  18.8508511
   3.3936821  61.1376377  20.0553106   3.4581254  61.5996785  20.8911278
   2.6847745  60.5073742  20.1835416  17.7186211  57.9331083  14.2477367
  16.9649919  57.3638481  14.0921371  17.8533752  57.8993747  15.1948001
   2.5120139  50.2993944  24.1766698   3.2529853  50.9001097  24.0971160
   2.7438062  49.5571582  23.6184740   4.7353315  63.4268051  24.0532428
   4.2917169  62.6404430  23.7353333   5.3970529  63.6147202  23.3876319
   6.8334553  63.7070851  22.0813829   6.8153028  64.5279732  21.5894099
   7.7554473  63.5824927  22.3063971   3.2907607  61.2214981  22.9237338
   3.8235944  60.4603269  22.6936646   2.7621688  60.9288633  23.6661492
   6.4577302  46.3275047  18.4530980   6.1141572  47.2176689  18.3770090
   6.8256265  46.1376704  17.5900565   4.0074696  51.1633359  12.0188653
   3.1516292  50.7740209  11.8394292   4.4201648  51.2425320  11.1588439
   5.5373843  48.6979702  16.4180213   5.0338638  48.6609837  15.6048018
   5.8304449  49.6072445  16.4776869   1.7816728  48.7818432  15.4246395
   2.6469725  48.5861240  15.0652284   1.8494237  48.5528783  16.3515751
   9.6353166  58.5449994  15.5523196   8.9776840  59.2349255  15.6403325
  10.4393565  58.9346426  15.8957182   8.4458625  56.8994367  13.6027138
   8.9590507  57.5324358  14.1048848   9.0959849  56.2995562  13.2370498
   1.6901715  47.8861889  11.5237831   1.0366128  47.5710906  10.8994446
   1.6482189  47.2637629  12.2497654   4.9239456  54.3743822  15.8485478
   4.0062017  54.5958769  15.6907166   5.3399599  54.4490133  14.9897186
   8.1553341  52.8092354  12.9606948   7.4176097  52.2969740  13.2917191
   8.4080114  52.3692736  12.1490225   8.2564968  45.5868606  13.5548717
   8.5623845  44.7265969  13.2674632   8.9817573  46.1786226  13.3547711
   6.0652619  54.9641283  20.6530181   6.4202007  55.1912756  21.5124647
   6.7124750  55.2959660  20.0307436  11.7950356  58.0859719  11.3579510
  11.6568255  58.2761315  10.4300699  11.4386575  58.8479102  11.8147561
  11.8219736  60.1536246  16.3690782  12.2556242  60.0611535  17.2173836
  12.5351316  60.1293747  15.7310798   5.5547631  63.7538340  17.9023882
   5.6084653  64.3229277  18.6701598   4.6862412  63.9240225  17.5377919
  12.6835285  60.1959947  18.9023667  12.8771175  61.1005757  19.1482942
  12.5835903  59.7367366  19.7362252   4.3371596  50.0817837  21.4013994
   3.6899511  50.7807787  21.3078471   5.1072611  50.5153981  21.7690243
   7.7450394  60.3466690  24.4764548   7.5935900  60.1177241  23.5594631
   7.7355073  61.3037291  24.4895893   4.5135730  57.9198602  19.4610814
   5.4427790  58.0709762  19.2879781   4.0926760  58.0082623  18.6059461
   1.4655822  56.4418459  19.6334450   2.1755441  55.8011651  19.5921069
   1.4225130  56.6931354  20.5560631   9.4542601  63.3785812  22.5541029
   9.3955147  62.6945032  21.8871612   9.8562119  64.1204802  22.1021655
   9.4560008  61.3425396  20.7855009   8.5686787  61.0051318  20.9081408
  10.0258559  60.6108427  21.0223775   6.0847591  51.0493248  13.9053279
   6.5816291  50.2963210  13.5854350   5.3134573  51.0857565  13.3396489
  13.9377348  56.7533613  15.5471571  13.9267225  57.6358329  15.1765504
  13.0694728  56.4005164  15.3526108   5.4459845  65.9013682  19.9074411
   6.1587817  66.5361147  19.8350312   4.9549873  65.9977548  19.0914413
   2.6682560  53.1910631  13.6324964   2.2980347  52.6381671  14.3205869
   3.1641652  52.5868764  13.0799964  10.5549923  55.6482254  12.0141737
  11.0210375  56.4810246  11.9402039  11.0057424  55.1827236  12.7186995
   8.5266586  48.0162841  16.0532638   7.6129666  48.2467068  16.2214845
   8.9559687  48.1001285  16.9046671   8.2973044  56.2052733  18.5532532
   7.6444495  56.4528641  17.8984985   8.6753424  55.3916872  18.2195009
   4.3460617  56.9472544  25.0398569   3.6701254  56.8466674  25.7100944
   5.1688251  56.7911758  25.5034566   7.9394275  63.0800729  25.1304840
   8.4834179  63.6930688  24.6359794   7.3581119  63.6380308  25.6471853
   8.2886696  64.0030467  17.8899417   7.3417031  63.8835819  17.8177744
   8.6369469  63.1152966  17.9725679   0.6486269  49.8924606  21.7137659
   1.1720671  50.1386903  22.4763969   0.4298603  50.7244641  21.2940797
   8.8967251  64.6211742  15.1768642   9.8213799  64.4154604  15.0393094
   8.7282554  64.3728144  16.0857984   1.8538814  50.8338302  19.3987330
   1.5135635  50.0346115  19.8008010   1.1477821  51.1340012  18.8264163
   2.5055286  47.9187614  17.8514653   3.3281355  47.4448092  17.7293543
   2.7493350  48.6978098  18.3513339   1.8890248  51.6009283  15.7087521
   1.8751817  50.7050376  15.3719819   2.6062676  51.6079946  16.3425807
   3.7416379  52.0346623  17.7540649   3.4834156  52.9563693  17.7524979
   3.2101419  51.6377057  18.4441113   4.1618334  48.1678573  14.1141811
   4.1840031  48.2317906  13.1593791   4.5786393  47.3283082  14.3082317
  14.5401958  57.9033833  12.1521034  14.9833104  57.1541158  11.7540157
  13.6628469  57.8943969  11.7694766   3.2349212  65.8197953  21.2904840
   3.5436338  65.5747100  22.1627539   4.0324694  66.0244592  20.8023710
   0.7768223  51.9955660  25.1865024   0.8256379  52.8717783  24.8042793
   1.3190737  51.4533053  24.6136667  11.2623069  62.5396783  24.4666161
  10.4718613  62.5220922  23.9270660  11.0256424  63.0785077  25.2215198
  11.3820944  59.3889250  21.7798889  11.4318949  59.2239257  22.7214412
  11.2734867  58.5216509  21.3896770   8.6724706  55.3720178  23.0958196
   9.5734569  55.2326643  22.8042194   8.7472681  55.5374633  24.0356374
   3.0067512  52.7487033  21.9411382   2.1370821  53.0420599  21.6693971
   3.2426992  53.3327478  22.6618646  12.8839141  61.8086191  22.0240911
  12.5923949  62.1716172  22.8604372  12.2711272  61.0953200  21.8454243
  14.0834823  59.3739071  14.5443481  14.9181715  59.8128875  14.7081042
  14.2193952  58.8977724  13.7251727  11.1326329  56.9318806  20.4920969
  11.6080451  57.1246452  19.6839820  10.2091894  56.9877992  20.2464353
   5.7106546  48.9666650  19.4576803   6.2288489  49.7027676  19.1323291
   5.3561678  49.2730643  20.2923562   5.9619140  45.3866932  14.9777699
   6.2420893  44.7190121  15.6038126   6.7469747  45.5796028  14.4652363
   9.8327998  53.8084566  18.7249275  10.7845421  53.9082664  18.7461499
   9.6631448  53.0162835  19.2347359   7.8542378  50.8940149  18.9108676
   7.2592310  51.1745162  18.2155164   7.5692074  51.3834050  19.6825417
  12.3116076  57.0290686  17.8391574  12.2792396  56.0906686  18.0251258
  12.9216699  57.1074722  17.1057399  12.4610564  53.8201729  17.8849857
  11.9449613  53.0360186  17.6979786  13.3450513  53.4920446  18.0496377
  10.1221291  47.5642745  13.8445670   9.9246112  47.2557833  14.7289002
  10.7320997  48.2904384  13.9743600  18.1292626  58.0906693  16.9797611
  18.8596014  57.8291981  17.5405314  17.5199571  57.3535415  17.0199679
  16.2107923  56.2314555  17.5772062  15.4841086  56.0970520  16.9688554
  15.7955210  56.5391384  18.3828780   4.0338099  59.9504485  25.3419435
   4.9541109  60.1283084  25.5359482   3.9987682  59.0060530  25.1899135
   3.9504390  48.3673605   9.9717905   3.1405118  48.0220690  10.3473151
   4.6388807  48.0581149  10.5605516   5.8794938  47.4451652  11.5942201
   6.4325976  47.8647105  12.2532225   6.1165024  46.5187400  11.6365157
   1.9028037  53.4338725  27.3744965   1.8024764  54.3833082  27.3057056
   1.6849579  53.1056964  26.5021035   9.2573745  49.5552177  11.1020866
   8.6772414  50.2136981  10.7198918   8.9909678  48.7329521  10.6908283
   7.7077311  48.9557235  13.3042186   8.2077090  49.0673769  12.4956505
   8.3512919  48.6518287  13.9442994   1.7659307  56.8635864  26.1910027
   1.2826389  57.6636224  26.3973916   1.8520246  56.8743809  25.2377471
   8.0398623  51.7152267  10.1577214   7.1524478  52.0001918   9.9397409
   8.4552612  51.5546031   9.3104491  11.3913159  51.7398788  13.8731553
  12.1673549  52.2295241  14.1456170  10.6661293  52.1656842  14.3303423
  13.8285718  52.4526407  14.9305494  14.4230209  52.2122143  14.2198802
  13.9012301  51.7333538  15.5579030  11.8244453  53.0196535  11.1977624
  11.5681387  52.6193171  12.0285831  11.1997321  53.7340329  11.0727763
  16.1356790  55.7592608  13.7048915  15.5756348  55.8285798  14.4780477
  15.5300294  55.5833593  12.9848411   6.0620333  60.7260496  26.9933596
   6.9311493  60.9001149  26.6320231   5.5827085  61.5454913  26.8709325
   5.8722671  44.5162470  11.5011289   5.1055067  43.9620957  11.6467971
   6.2833376  44.5884339  12.3625440  17.7212809  72.4349122  16.3978871
  18.3591219  72.3155870  15.6942211  17.6033652  73.3829966  16.4566823
  14.5302515  72.3876550  16.3340395  14.1921027  72.2717615  15.4460930
  15.3992283  71.9867715  16.3141402  15.0122298  73.5411402  22.2926601
  15.0010939  73.1464200  21.4207105  15.1742938  72.8077475  22.8860372
  12.6585766  73.7025362  17.8307145  13.2549338  73.4781385  17.1164108
  12.7160738  72.9610108  18.4332592  17.2754077  70.1600576  13.4732079
  18.0617167  69.7419999  13.1222496  17.5392782  71.0646668  13.6413727
  22.6762505  70.0975809  14.3765057  23.4087676  69.5275026  14.6102887
  21.9201860  69.7097410  14.8171563  20.1987925  63.8097383  18.8359666
  19.8671250  64.6792794  18.6120881  19.6033538  63.4933667  19.5153696
  16.6919444  76.0109929  18.2355579  16.3920168  76.9134968  18.1271386
  16.3470504  75.7442113  19.0876732  20.0916588  68.5292470  15.9153016
  19.1833466  68.4607878  15.6211777  20.0404184  69.0064414  16.7434841
  14.1657454  69.9482115  23.8587913  13.3890788  70.5076035  23.8490778
  14.8048017  70.4338898  24.3802783  21.9578235  66.7308908  17.6930890
  21.3152615  67.0241441  17.0470684  21.4533163  66.6161828  18.4984087
  12.4203826  72.7567568  23.4205880  13.1618511  73.2952612  23.1440704
  11.7140812  73.3833857  23.5777432  17.8959166  74.8996709  22.0178042
  18.3042522  74.4579119  21.2732674  17.1736427  74.3249336  22.2712235
  14.2490236  69.8369316  19.3911599  15.0951431  70.2608729  19.5346248
  14.1888874  69.1802940  20.0850162  18.2187981  75.4597900  15.7730331
  17.5896843  75.6243614  15.0706398  17.8313643  75.8739509  16.5441295
  22.0977212  76.3952337  13.1274694  21.4128251  76.7751239  12.5771728
  22.1821062  77.0047664  13.8606642  17.3989681  67.4973684  21.0492772
  17.1550613  68.2515745  20.5127048  17.6749612  67.8759032  21.8840019
  19.3528144  74.0412296  19.7270038  19.5645039  74.6844056  19.0504419
  19.3057892  73.2074613  19.2591968  16.9554373  66.6530117  16.6306610
  16.0938852  66.9511371  16.9223348  16.9816808  66.8700516  15.6987643
  11.1565190  69.9107217  24.2221190  10.5263851  70.5923497  24.4556587
  11.0501278  69.7990298  23.2774328  20.4673972  76.9184252  17.8992395
  21.2891416  76.5164439  17.6175077  20.4636375  76.8152486  18.8508511
  28.5579965  73.2623000  14.2477367  27.8043673  72.6930398  14.0921371
  28.6927506  73.2285665  15.1948001  10.4345933  64.2127982  26.5846441
  10.0412878  63.6594181  27.2594086  11.2512073  64.5238561  26.9752959
  13.3513894  65.6285862  24.1766698  14.0923607  66.2293015  24.0971160
  13.5831817  64.8863499  23.6184740   8.4955232  70.8142229  22.4544928
   8.3808747  69.9127486  22.7552026   7.6399750  71.0605926  22.1029744
  17.2971057  61.6566965  18.4530980  16.9535326  62.5468606  18.3770090
  17.6650019  61.4668622  17.5900565  14.8468450  66.4925276  12.0188653
  13.9910047  66.1032127  11.8394292  15.2595402  66.5717237  11.1588439
  16.3767597  64.0271620  16.4180213  15.8732393  63.9901755  15.6048018
  16.6698204  64.9364362  16.4776869  12.6210483  64.1110349  15.4246395
  13.4863480  63.9153158  15.0652284  12.6887992  63.8820701  16.3515751
  20.4746920  73.8741912  15.5523196  19.8170595  74.5641173  15.6403325
  21.2787320  74.2638343  15.8957182  19.2852379  72.2286284  13.6027138
  19.7984261  72.8616276  14.1048848  19.9353603  71.6287480  13.2370498
  12.5295470  63.2153806  11.5237831  11.8759882  62.9002823  10.8994446
  12.4875944  62.5929547  12.2497654  15.7633210  69.7035740  15.8485478
  14.8455772  69.9250687  15.6907166  16.1793354  69.7782050  14.9897186
  18.9947095  68.1384272  12.9606948  18.2569852  67.6261658  13.2917191
  19.2473869  67.6984653  12.1490225  19.0958722  60.9160524  13.5548717
  19.4017599  60.0557887  13.2674632  19.8211327  61.5078144  13.3547711
  16.9046374  70.2933201  20.6530181  17.2595761  70.5204674  21.5124647
  17.5518505  70.6251578  20.0307436  22.6344111  73.4151637  11.3579510
  22.4962009  73.6053233  10.4300699  22.2780329  74.1771020  11.8147561
  10.7986237  67.4009732  17.4376522  11.4385616  67.2598491  16.7399485
   9.9663767  67.1144245  17.0615124  22.6613490  75.4828164  16.3690782
  23.0949997  75.3903453  17.2173836  23.3745071  75.4585664  15.7310798
   9.2739779  68.7847814  19.3848333   9.9462832  68.5765176  18.7360982
   8.4469565  68.5869900  18.9453566  23.5229040  75.5251865  18.9023667
  23.7164930  76.4297675  19.1482942  23.4229658  75.0659284  19.7362252
  15.1765351  65.4109755  21.4013994  14.5293266  66.1099705  21.3078471
  15.9466366  65.8445899  21.7690243  18.5844149  75.6758607  24.4764548
  18.4329655  75.4469159  23.5594631  18.5748828  76.6329209  24.4895893
  15.3529485  73.2490520  19.4610814  16.2821545  73.4001680  19.2879781
  14.9320515  73.3374541  18.6059461   9.6767276  72.0590417  20.1450771
   9.5387074  71.3270656  20.7462310  10.5872199  71.9699317  19.8634958
  12.3049576  71.7710376  19.6334450  13.0149195  71.1303569  19.5921069
  12.2618885  72.0223271  20.5560631  11.0178510  68.7575594  21.4530090
  10.4815867  68.3066333  22.1051686  10.4295219  68.8921503  20.7100554
  20.2953762  76.6717314  20.7855009  19.4080541  76.3343236  20.9081408
  20.8652313  75.9400345  21.0223775   6.7517632  67.8931602  18.5383084
   6.6675820  67.2857272  17.8033494   5.9300338  68.3840620  18.5392581
  16.9241346  66.3785166  13.9053279  17.4210045  65.6255128  13.5854350
  16.1528327  66.4149482  13.3396489  24.7771103  72.0825531  15.5471571
  24.7660979  72.9650247  15.1765504  23.9088482  71.7297082  15.3526108
  13.5076314  68.5202549  13.6324964  13.1374102  67.9673589  14.3205869
  14.0035407  67.9160682  13.0799964  21.3943678  70.9774172  12.0141737
  21.8604130  71.8102164  11.9402039  21.8451178  70.5119154  12.7186995
  19.3660340  63.3454759  16.0532638  18.4523420  63.5758986  16.2214845
  19.7953442  63.4293203  16.9046671  19.1366799  71.5344651  18.5532532
  18.4838249  71.7820559  17.8984985  19.5147179  70.7208789  18.2195009
  15.1854372  72.2764462  25.0398569  14.5095009  72.1758591  25.7100944
  16.0082006  72.1203676  25.5034566   8.9041648  65.9306539  19.8778070
   8.9682974  66.7921370  19.4655468   8.8408768  65.3180541  19.1450428
   8.3793920  68.0029672  23.5251104   9.0065959  67.6206749  24.1388629
   7.5221839  67.7843874  23.8906797  11.4880024  65.2216524  21.7137659
  12.0114426  65.4678821  22.4763969  11.2692357  66.0536559  21.2940797
  12.6932569  66.1630219  19.3987330  12.3529389  65.3638032  19.8008010
  11.9871575  66.4631930  18.8264163  13.3449041  63.2479532  17.8514653
  14.1675110  62.7740010  17.7293543  13.5887104  64.0270015  18.3513339
  12.7284002  66.9301200  15.7087521  12.7145571  66.0342294  15.3719819
  13.4456430  66.9371864  16.3425807  14.5810133  67.3638540  17.7540649
  14.3227911  68.2855611  17.7524979  14.0495173  66.9668975  18.4441113
  15.0012089  63.4970491  14.1141811  15.0233785  63.5609824  13.1593791
  15.4180148  62.6575000  14.3082317  25.3795713  73.2325751  12.1521034
  25.8226859  72.4833076  11.7540157  24.5022223  73.2235887  11.7694766
   6.1299303  71.6073893  21.4924450   5.3881039  71.7556528  22.0789080
   5.8092048  71.8682159  20.6291199  11.6161978  67.3247578  25.1865024
  11.6650133  68.2009701  24.8042793  12.1584492  66.7824971  24.6136667
  22.1016823  77.8688701  24.4666161  21.3112367  77.8512840  23.9270660
  21.8650178  78.4076995  25.2215198  22.2214698  74.7181168  21.7798889
  22.2712703  74.5531175  22.7214412  22.1128622  73.8508427  21.3896770
  19.5118461  70.7012096  23.0958196  20.4128324  70.5618560  22.8042194
  19.5866435  70.8666550  24.0356374  13.8461266  68.0778950  21.9411382
  12.9764576  68.3712516  21.6693971  14.0820747  68.6619395  22.6618646
  23.7232895  77.1378109  22.0240911  23.4317704  77.5008090  22.8604372
  23.1105027  76.4245117  21.8454243  24.9228578  74.7030989  14.5443481
  25.7575469  75.1420793  14.7081042  25.0587706  74.2269642  13.7251727
  21.9720084  72.2610724  20.4920969  22.4474205  72.4538370  19.6839820
  21.0485649  72.3169909  20.2464353  16.5500300  64.2958567  19.4576803
  17.0682244  65.0319594  19.1323291  16.1955433  64.6022561  20.2923562
  16.8012894  60.7158850  14.9777699  17.0814648  60.0482039  15.6038126
  17.5863501  60.9087945  14.4652363  20.6721753  69.1376484  18.7249275
  21.6239175  69.2374581  18.7461499  20.5025203  68.3454752  19.2347359
  18.6936132  66.2232067  18.9108676  18.0986064  66.5037080  18.2155164
  18.4085829  66.7125968  19.6825417  23.1509830  72.3582603  17.8391574
  23.1186150  71.4198604  18.0251258  23.7610454  72.4366640  17.1057399
  23.3004319  69.1493647  17.8849857  22.7843367  68.3652104  17.6979786
  24.1844267  68.8212363  18.0496377  20.9615046  62.8934662  13.8445670
  20.7639867  62.5849751  14.7289002  21.5714751  63.6196301  13.9743600
  28.9686380  73.4198610  16.9797611  29.6989769  73.1583898  17.5405314
  28.3593326  72.6827332  17.0199679  27.0501677  71.5606473  17.5772062
  26.3234841  71.4262438  16.9688554  26.6348964  71.8683301  18.3828780
  14.8731854  75.2796403  25.3419435  15.7934863  75.4575002  25.5359482
  14.8381437  74.3352448  25.1899135  14.7898144  63.6965523   9.9717905
  13.9798872  63.3512607  10.3473151  15.4782561  63.3873066  10.5605516
  16.7188692  62.7743569  11.5942201  17.2719731  63.1939023  12.2532225
  16.9558779  61.8479317  11.6365157  12.7421792  68.7630643  27.3744965
  12.6418518  69.7125000  27.3057056  12.5243334  68.4348882  26.5021035
  20.0967499  64.8844094  11.1020866  19.5166168  65.5428899  10.7198918
  19.8303432  64.0621439  10.6908283  18.5471066  64.2849152  13.3042186
  19.0470844  64.3965687  12.4956505  19.1906674  63.9810205  13.9442994
  12.6053062  72.1927782  26.1910027  12.1220143  72.9928142  26.3973916
  12.6914001  72.2035727  25.2377471  18.8792377  67.0444185  10.1577214
  17.9918232  67.3293835   9.9397409  19.2946367  66.8837948   9.3104491
  22.2306914  67.0690706  13.8731553  23.0067304  67.5587158  14.1456170
  21.5055048  67.4948760  14.3303423  24.6679472  67.7818325  14.9305494
  25.2623963  67.5414061  14.2198802  24.7406056  67.0625456  15.5579030
  22.6638207  68.3488453  11.1977624  22.4075141  67.9485088  12.0285831
  22.0391075  69.0632247  11.0727763  26.9750545  71.0884526  13.7048915
  26.4150103  71.1577715  14.4780477  26.3694048  70.9125511  12.9848411
   4.3760696  68.9871566  21.4941456   5.0219559  68.4770520  21.9828681
   4.1677847  69.7240248  22.0684881  16.9014088  76.0552414  26.9933596
  17.7705247  76.2293066  26.6320231  16.4220839  76.8746831  26.8709325
  16.7116425  59.8454388  11.5011289  15.9448821  59.2912874  11.6467971
  17.1227130  59.9176256  12.3625440   8.7158187  66.1339183  25.5916470
   9.5789648  65.7775988  25.8019794   8.1423597  65.7953078  26.2791874
  31.0381679  79.1389301  18.8359666  30.7065004  80.0084712  18.6120881
  30.4427293  78.8225585  19.5153696  32.7971989  82.0600826  17.6930890
  32.1546369  82.3533359  17.0470684  32.2926918  81.9453746  18.4984087
  28.1364811  76.9858882  18.4530980  27.7929081  77.8760524  18.3770090
  28.5043774  76.7960540  17.5900565  27.2161352  79.3563537  16.4180213
  26.7126147  79.3193673  15.6048018  27.5091958  80.2656280  16.4776869
  23.3689224  78.5445724  11.5237831  22.7153637  78.2294741  10.8994446
  23.3269698  77.9221464  12.2497654  29.9352477  76.2452441  13.5548717
  30.2411354  75.3849805  13.2674632  30.6605082  76.8370062  13.3547711
  30.2054095  78.6746677  16.0532638  29.2917175  78.9050904  16.2214845
  30.6347196  78.7585121  16.9046671  24.1842795  78.5771449  17.8514653
  25.0068864  78.1031927  17.7293543  24.4280859  79.3561933  18.3513339
  25.8405843  78.8262409  14.1141811  25.8627540  78.8901742  13.1593791
  26.2573902  77.9866917  14.3082317  27.3894055  79.6250485  19.4576803
  27.9075998  80.3611512  19.1323291  27.0349187  79.9314478  20.2923562
  27.6406649  76.0450767  14.9777699  27.9208402  75.3773957  15.6038126
  28.4257256  76.2379863  14.4652363  31.8008800  78.2226580  13.8445670
  31.6033621  77.9141668  14.7289002  32.4108506  78.9488219  13.9743600
  25.6291899  79.0257440   9.9717905  24.8192627  78.6804525  10.3473151
  26.3176315  78.7164984  10.5605516  27.5582447  78.1035487  11.5942201
  28.1113485  78.5230940  12.2532225  27.7952533  77.1771235  11.6365157
  30.9361254  80.2136012  11.1020866  30.3559923  80.8720816  10.7198918
  30.6697187  79.3913357  10.6908283  29.3864820  79.6141070  13.3042186
  29.8864599  79.7257604  12.4956505  30.0300428  79.3102123  13.9442994
  35.5073227  83.1110243  14.9305494  36.1017718  82.8705979  14.2198802
  35.5799810  82.3917373  15.5579030  27.5510180  75.1746305  11.5011289
  26.7842576  74.6204792  11.6467971  27.9620885  75.2468174  12.3625440
   4.7353316  40.4330174  10.7777735   4.2917170  39.6466553  10.4598639
   5.3970530  40.6209325  10.1121626   6.8334554  40.7132974   8.8059136
   6.8153030  41.5341855   8.3139405   7.7554474  40.5887049   9.0309277
   3.2907609  38.2277103   9.6482644   3.8235945  37.4665392   9.4181952
   2.7621690  37.9350755  10.3906799  12.6835287  37.2022069   5.6268974
  12.8771177  38.1067880   5.8728249  12.5835905  36.7429489   6.4607559
   7.7450395  37.3528812  11.2009854   7.5935902  37.1239364  10.2839938
   7.7355075  38.3099414  11.2141199   9.4542602  40.3847935   9.2786336
   9.3955148  39.7007155   8.6116919   9.8562120  41.1266925   8.8266962
   9.4560009  38.3487519   7.5100316   8.5686788  38.0113440   7.6326715
  10.0258560  37.6170550   7.7469081   5.4459846  42.9075805   6.6319718
   6.1587818  43.5423270   6.5595619   4.9549875  43.0039671   5.8159719
   4.3460619  33.9534667  11.7643876   3.6701256  33.8528796  12.4346251
   5.1688253  33.7973881  12.2279873   7.9394276  40.0862852  11.8550146
   8.4834180  40.6992810  11.3605101   7.3581121  40.6442430  12.3717159
   3.2349213  42.8260076   8.0150146   3.5436339  42.5809223   8.8872846
   4.0324695  43.0306715   7.5269016  11.2623070  39.5458906  11.1911468
  10.4718614  39.5283045  10.6515967  11.0256425  40.0847200  11.9460504
  11.3820945  36.3951372   8.5044196  11.4318950  36.2301380   9.4459719
  11.2734869  35.5278631   8.1142077   8.6724708  32.3782300   9.8203503
   9.5734570  32.2388765   9.5287501   8.7472682  32.5436755  10.7601680
  12.8839142  38.8148314   8.7486218  12.5923950  39.1778295   9.5849679
  12.2711273  38.1015322   8.5699550   4.0338100  36.9566607  12.0664742
   4.9541110  37.1345206  12.2604788   3.9987684  36.0122653  11.9144441
   1.7659308  33.8697987  12.9155334   1.2826390  34.6698347  13.1219223
   1.8520247  33.8805932  11.9622778   6.0620334  37.7322619  13.7178903
   6.9311494  37.9063271  13.3565538   5.5827086  38.5517036  13.5954632
  17.7212810  49.4411245   3.1224177  18.3591220  49.3217992   2.4187517
  17.6033653  50.3892089   3.1812130  14.5302516  49.3938673   3.0585702
  14.1921028  49.2779738   2.1706237  15.3992285  48.9929838   3.0386708
  15.0122299  50.5473525   9.0171908  15.0010940  50.1526323   8.1452411
  15.1742939  49.8139597   9.6105679  11.7329561  53.3310636   7.9651092
  11.4419427  54.2356267   7.8497758  12.3686545  53.3727164   8.6795161
  12.6585767  50.7087485   4.5552451  13.2549340  50.4843507   3.8409414
  12.7160739  49.9672230   5.1577899  17.2754079  47.1662699   0.1977385
  18.0617168  46.7482122  -0.1532198  17.5392783  48.0708791   0.3659034
  22.6762506  47.1037932   1.1010364  23.4087678  46.5337149   1.3348193
  21.9201862  46.7159532   1.5416870  20.1987926  40.8159506   5.5604973
  19.8671251  41.6854917   5.3366188  19.6033540  40.4995790   6.2399003
  16.6919446  53.0172052   4.9600885  16.3920169  53.9197091   4.8516693
  16.3470505  52.7504235   5.8122038  20.0916589  45.5354592   2.6398323
  19.1833467  45.4670001   2.3457084  20.0404185  46.0126537   3.4680148
  14.1657455  46.9544238  10.5833220  13.3890789  47.5138158  10.5736085
  14.8048018  47.4401021  11.1048090  21.9578236  43.7371030   4.4176197
  21.3152616  44.0303564   3.7715991  21.4533164  43.6223951   5.2229393
  12.4203828  49.7629691  10.1451187  13.1618512  50.3014735   9.8686010
  11.7140813  50.3895980  10.3022739  17.8959167  51.9058832   8.7423348
  18.3042523  51.4641242   7.9977981  17.1736429  51.3311459   8.9957541
  14.2490237  46.8431438   6.1156905  15.0951432  47.2670852   6.2591554
  14.1888875  46.1865063   6.8095468  18.2187982  52.4660022   2.4975637
  17.5896844  52.6305736   1.7951705  17.8313644  52.8801632   3.2686601
  22.0977214  53.4014460  -0.1479999  21.4128252  53.7813361  -0.6982966
  22.1821063  54.0109787   0.5851949  17.3989683  44.5035807   7.7738079
  17.1550614  45.2577867   7.2372355  17.6749613  44.8821154   8.6085326
  19.3528145  51.0474419   6.4515345  19.5645041  51.6906179   5.7749726
  19.3057894  50.2136736   5.9837275  16.9554374  43.6592240   3.3551917
  16.0938853  43.9573493   3.6468654  16.9816809  43.8762639   2.4232949
  11.1565191  46.9169339  10.9466497  10.5263852  47.5985620  11.1801894
  11.0501279  46.8052421  10.0019635  20.4673973  53.9246374   4.6237702
  21.2891417  53.5226562   4.3420384  20.4636376  53.8214609   5.5753818
  14.2330577  53.4730418   6.7798412  14.2975009  53.9350825   7.6156584
  13.5241501  52.8427783   6.9080722  28.5579966  50.2685123   0.9722673
  27.8043675  49.6992521   0.8166678  28.6927508  50.2347787   1.9193308
  10.4345934  41.2190105  13.3091748  10.0412880  40.6656304  13.9839392
  11.2512074  41.5300684  13.6998265  13.3513895  42.6347984  10.9012004
  14.0923608  43.2355137  10.8216467  13.5831818  41.8925622  10.3430047
   8.4955233  47.8204351   9.1790234   8.3808748  46.9189609   9.4797333
   7.6399751  48.0668048   8.8275051  15.5747071  55.7622092  10.7777735
  15.1310925  54.9758470  10.4598639  16.2364284  55.9501242  10.1121626
  17.6728309  56.0424892   8.8059136  17.6546784  56.8633773   8.3139405
  18.5948229  55.9178967   9.0309277  14.1301363  53.5569021   9.6482644
  14.6629700  52.7957309   9.4181952  13.6015444  53.2642673  10.3906799
  17.2971058  38.6629087   5.1776286  16.9535327  39.5530729   5.1015397
  17.6650021  38.4730745   4.3145871  16.3767598  41.0333742   3.1425519
  15.8732394  40.9963877   2.3293325  16.6698205  41.9426485   3.2022176
  20.4746922  50.8804034   2.2768503  19.8170596  51.5703296   2.3648631
  21.2787321  51.2700466   2.6202489  19.2852381  49.2348407   0.3272444
  19.7984262  49.8678399   0.8294154  19.9353604  48.6349602  -0.0384195
  15.7633211  46.7097862   2.5730785  14.8455773  46.9312809   2.4152473
  16.1793355  46.7844173   1.7142492  18.9947096  45.1446394  -0.3147745
  18.2569853  44.6323780   0.0162497  19.2473870  44.7046776  -1.1264469
  16.9046375  47.2995324   7.3775488  17.2595763  47.5266797   8.2369953
  17.5518506  47.6313700   6.7552743  22.6344112  50.4213759  -1.9175183
  22.4962011  50.6115355  -2.8453994  22.2780331  51.1833142  -1.4607132
  10.7986238  44.4071855   4.1621829  11.4385617  44.2660614   3.4644792
   9.9663769  44.1206368   3.7860431  22.6613492  52.4890286   3.0936088
  23.0949998  52.3965576   3.9419142  23.3745072  52.4647787   2.4556104
  16.3941386  56.0892381   4.6269189  16.4478409  56.6583317   5.3946905
  15.5256168  56.2594266   4.2623226   9.2739780  45.7909937   6.1093640
   9.9462833  45.5827299   5.4606289   8.4469566  45.5932023   5.6698872
  23.5229041  52.5313987   5.6268974  23.7164931  53.4359798   5.8728249
  23.4229659  52.0721406   6.4607559  15.1765352  42.4171878   8.1259301
  14.5293267  43.1161827   8.0323777  15.9466367  42.8508022   8.4935549
  18.5844150  52.6820730  11.2009854  18.4329656  52.4531282  10.2839938
  18.5748829  53.6391331  11.2141199  15.3529486  50.2552643   6.1856121
  16.2821546  50.4063802   6.0125088  14.9320516  50.3436663   5.3304767
   9.6767277  49.0652540   6.8696077   9.5387075  48.3332779   7.4707616
  10.5872201  48.9761440   6.5880265  12.3049578  48.7772499   6.3579757
  13.0149196  48.1365691   6.3166375  12.2618886  49.0285394   7.2805938
  20.2936356  55.7139852   9.2786336  20.2348903  55.0299073   8.6116919
  20.6955875  56.4558842   8.8266962  11.0178512  45.7637717   8.1775396
  10.4815869  45.3128455   8.8296993  10.4295220  45.8983626   7.4345861
  20.2953764  53.6779436   7.5100316  19.4080542  53.3405358   7.6326715
  20.8652315  52.9462468   7.7469081   6.7517633  44.8993725   5.2628391
   6.6675822  44.2919394   4.5278801   5.9300339  45.3902743   5.2637887
  24.7771104  49.0887654   2.2716877  24.7660980  49.9712369   1.9010811
  23.9088484  48.7359205   2.0771414  16.2853601  58.2367723   6.6319718
  16.9981573  58.8715188   6.5595619  15.7943629  58.3331589   5.8159719
  21.3943679  47.9836295  -1.2612957  21.8604131  48.8164286  -1.3352654
  21.8451179  47.5181276  -0.5567698  19.3660342  40.3516882   2.7777945
  18.4523421  40.5821109   2.9460152  19.7953443  40.4355326   3.6291977
  19.1366800  48.5406774   5.2777839  18.4838250  48.7882681   4.6230292
  19.5147180  47.7270912   4.9440316  15.1854373  49.2826585  11.7643876
  14.5095010  49.1820714  12.4346251  16.0082007  49.1265798  12.2279873
   8.9041649  42.9368662   6.6023377   8.9682976  43.7983493   6.1900774
   8.8408769  42.3242664   5.8695735   8.3793922  45.0091795  10.2496411
   9.0065961  44.6268872  10.8633935   7.5221841  44.7905996  10.6152103
  18.7788030  55.4154770  11.8550146  19.3227934  56.0284728  11.3605101
  18.1974875  55.9734348  12.3717159  19.1280452  56.3384508   4.6144724
  18.1810787  56.2189859   4.5423051  19.4763225  55.4507006   4.6970986
  11.4880025  42.2278647   8.4382966  12.0114427  42.4740943   9.2009275
  11.2692358  43.0598681   8.0186103  19.7361007  56.9565783   1.9013949
  20.6607554  56.7508644   1.7638400  19.5676310  56.7082184   2.8103291
  12.6932570  43.1692342   6.1232637  12.3529390  42.3700155   6.5253316
  11.9871576  43.4694053   5.5509470  13.3449042  40.2541654   4.5759960
  14.1675111  39.7802132   4.4538850  13.5887105  41.0332138   5.0758646
  12.7284004  43.9363323   2.4332828  12.7145572  43.0404416   2.0965126
  13.4456432  43.9433987   3.0671114  14.5810134  44.3700663   4.4785955
  14.3227912  45.2917734   4.4770286  14.0495175  43.9731098   5.1686419
  25.3795714  50.2387873  -1.1233660  25.8226860  49.4895198  -1.5214536
  24.5022224  50.2298009  -1.5059928   6.1299305  48.6136016   8.2169756
   5.3881041  48.7618651   8.8034387   5.8092049  48.8744281   7.3536506
  14.0742967  58.1551994   8.0150146  14.3830094  57.9101141   8.8872846
  14.8718449  58.3598632   7.5269016  11.6161979  44.3309700  11.9110331
  11.6650134  45.2071823  11.5288100  12.1584493  43.7887094  11.3381974
  22.1016825  54.8750824  11.1911468  21.3112368  54.8574963  10.6515967
  21.8650179  55.4139117  11.9460504  22.2214700  51.7243290   8.5044196
  22.2712705  51.5593298   9.4459719  22.1128623  50.8570549   8.1142077
  19.5118462  47.7074218   9.8203503  20.4128325  47.5680683   9.5287501
  19.5866437  47.8728673  10.7601680  13.8461267  45.0841073   8.6656689
  12.9764577  45.3774639   8.3939278  14.0820748  45.6681518   9.3863953
  23.7232897  54.1440232   8.7486218  23.4317705  54.5070212   9.5849679
  23.1105028  53.4307240   8.5699550  24.9228579  51.7093111   1.2688788
  25.7575470  52.1482915   1.4326348  25.0587708  51.2331765   0.4497034
  21.9720085  49.2672846   7.2166276  22.4474206  49.4600493   6.4085127
  21.0485650  49.3232032   6.9709659  16.5500301  41.3020690   6.1822110
  17.0682245  42.0381717   5.8568598  16.1955434  41.6084683   7.0168869
  20.6721754  46.1438606   5.4494581  21.6239177  46.2436704   5.4706805
  20.5025204  45.3516875   5.9592666  18.6936133  43.2294190   5.6353982
  18.0986065  43.5099202   4.9400471  18.4085830  43.7188090   6.4070723
  23.1509832  49.3644726   4.5636881  23.1186152  48.4260727   4.7496565
  23.7610455  49.4428763   3.8302706  23.3004320  46.1555769   4.6095164
  22.7843369  45.3714226   4.4225093  24.1844269  45.8274486   4.7741684
  20.9615047  39.8996785   0.5690977  20.7639868  39.5911873   1.4534309
  21.5714753  40.6258424   0.6988907  27.0501679  48.5668595   4.3017369
  26.3234842  48.4324560   3.6933860  26.6348965  48.8745424   5.1074087
  14.8731855  52.2858525  12.0664742  15.7934864  52.4637124  12.2604788
  14.8381438  51.3414570  11.9144441  12.7421793  45.7692766  14.0990272
  12.6418520  46.7187123  14.0302363  12.5243335  45.4411004  13.2266342
  12.6053063  49.1989904  12.9155334  12.1220145  49.9990265  13.1219223
  12.6914002  49.2097849  11.9622778   9.1225783  51.6595555   7.5194565
   9.9418672  52.1539634   7.5429402   9.3962590  50.7427523   7.4912133
  22.2306915  44.0752828   0.5976860  23.0067305  44.5649281   0.8701477
  21.5055049  44.5010883   1.0548729  24.6679473  44.7880448   1.6550800
  25.2623964  44.5476184   0.9444109  24.7406057  44.0687578   2.2824337
  22.6638208  45.3550575  -2.0777070  22.4075143  44.9547211  -1.2468862
  22.0391076  46.0694369  -2.2026931  26.9750546  48.0946649   0.4294222
  26.4150104  48.1639838   1.2025784  26.3694050  47.9187633  -0.2906282
   4.3760697  45.9933689   8.2186762   5.0219560  45.4832643   8.7073987
   4.1677848  46.7302371   8.7930187  16.9014089  53.0614536  13.7178903
  17.7705249  53.2355189  13.3565538  16.4220840  53.8808953  13.5954632
   8.7158188  43.1401306  12.3161776   9.5789649  42.7838111  12.5265101
   8.1423598  42.8015201  13.0037181  28.5606565  64.7703162   3.1224177
  29.1984975  64.6509910   2.4187517  28.4427408  65.7184006   3.1812130
  25.3696271  64.7230591   3.0585702  25.0314782  64.6071655   2.1706237
  26.2386039  64.3221756   3.0386708  25.8516054  65.8765442   9.0171908
  25.8404695  65.4818241   8.1452411  26.0136693  65.1431515   9.6105679
  22.5723315  68.6602554   7.9651092  22.2813181  69.5648185   7.8497758
  23.2080299  68.7019082   8.6795161  23.4979522  66.0379403   4.5552451
  24.0943094  65.8135425   3.8409414  23.5554493  65.2964148   5.1577899
  28.1147833  62.4954616   0.1977385  28.9010922  62.0774039  -0.1532198
  28.3786538  63.4000708   0.3659034  33.5156260  62.4329849   1.1010364
  34.2481432  61.8629066   1.3348193  32.7595616  62.0451450   1.5416870
  31.0381681  56.1451424   5.5604973  30.7065005  57.0146835   5.3366188
  30.4427294  55.8287708   6.2399003  27.5313200  68.3463970   4.9600885
  27.2313923  69.2489008   4.8516693  27.1864260  68.0796153   5.8122038
  30.9310344  60.8646510   2.6398323  30.0227221  60.7961918   2.3457084
  30.8797940  61.3418455   3.4680148  25.0051210  62.2836155  10.5833220
  24.2284544  62.8430076  10.5736085  25.6441773  62.7692938  11.1048090
  32.7971990  59.0662948   4.4176197  32.1546371  59.3595481   3.7715991
  32.2926919  58.9515869   5.2229393  23.2597582  65.0921609  10.1451187
  24.0012266  65.6306653   9.8686010  22.5534568  65.7187897  10.3022739
  28.7352922  67.2350749   8.7423348  29.1436278  66.7933160   7.9977981
  28.0130183  66.6603377   8.9957541  25.0883992  62.1723356   6.1156905
  25.9345187  62.5962770   6.2591554  25.0282629  61.5156980   6.8095468
  29.0581736  67.7951940   2.4975637  28.4290599  67.9597654   1.7951705
  28.6707398  68.2093549   3.2686601  28.2383437  59.8327724   7.7738079
  27.9944369  60.5869785   7.2372355  28.5143368  60.2113072   8.6085326
  30.1921900  66.3766337   6.4515345  30.4038795  67.0198097   5.7749726
  30.1451648  65.5428653   5.9837275  27.7948129  58.9884157   3.3551917
  26.9332608  59.2865411   3.6468654  27.8210563  59.2054556   2.4232949
  21.9958946  62.2461257  10.9466497  21.3657606  62.9277538  11.1801894
  21.8895034  62.1344339  10.0019635  31.3067728  69.2538292   4.6237702
  32.1285172  68.8518479   4.3420384  31.3030131  69.1506526   5.5753818
  25.0724331  68.8022335   6.7798412  25.1368764  69.2642743   7.6156584
  24.3635255  68.1719700   6.9080722  21.2739689  56.5482023  13.3091748
  20.8806634  55.9948221  13.9839392  22.0905829  56.8592601  13.6998265
  24.1907650  57.9639902  10.9012004  24.9317363  58.5647055  10.8216467
  24.4225572  57.2217540  10.3430047  19.3348988  63.1496269   9.1790234
  19.2202503  62.2481526   9.4797333  18.4793505  63.3959966   8.8275051
  26.4140825  71.0914009  10.7777735  25.9704679  70.3050388  10.4598639
  27.0758039  71.2793160  10.1121626  28.5122063  71.3716809   8.8059136
  28.4940539  72.1925690   8.3139405  29.4341983  71.2470885   9.0309277
  24.9695118  68.8860939   9.6482644  25.5023454  68.1249227   9.4181952
  24.4409199  68.5934591  10.3906799  28.1364812  53.9921005   5.1776286
  27.7929082  54.8822646   5.1015397  28.5043775  53.8022662   4.3145871
  25.6862206  58.8279317  -1.2566040  24.8303803  58.4386167  -1.4360402
  26.0989158  58.9071277  -2.1166255  27.2161353  56.3625660   3.1425519
  26.7126148  56.3255795   2.3293325  27.5091960  57.2718403   3.2022176
  23.4604239  56.4464390   2.1491701  24.3257236  56.2507198   1.7897591
  23.5281748  56.2174741   3.0761058  31.3140676  66.2095952   2.2768503
  30.6564351  66.8995213   2.3648631  32.1181075  66.5992384   2.6202489
  30.1246135  64.5640324   0.3272444  30.6378017  65.1970316   0.8294154
  30.7747359  63.9641520  -0.0384195  23.3689226  55.5507846  -1.7516863
  22.7153638  55.2356864  -2.3760248  23.3269700  54.9283587  -1.0257040
  26.6026966  62.0389780   2.5730785  25.6849527  62.2604727   2.4152473
  27.0187110  62.1136091   1.7142492  29.8340851  60.4738312  -0.3147745
  29.0963608  59.9615698   0.0162497  30.0867624  60.0338694  -1.1264469
  29.9352478  53.2514564   0.2794024  30.2411355  52.3911927  -0.0080061
  30.6605083  53.8432184   0.0793018  27.7440129  62.6287241   7.3775488
  28.0989517  62.8558714   8.2369953  28.3912261  62.9605618   6.7552743
  21.6379993  59.7363772   4.1621829  22.2779372  59.5952531   3.4644792
  20.8057523  59.4498286   3.7860431  27.2335141  71.4184298   4.6269189
  27.2872163  71.9875235   5.3946905  26.3649922  71.5886183   4.2623226
  20.1133534  61.1201854   6.1093640  20.7856588  60.9119217   5.4606289
  19.2863321  60.9223940   5.6698872  34.3622796  67.8605905   5.6268974
  34.5558686  68.7651715   5.8728249  34.2623414  67.4013324   6.4607559
  26.0159106  57.7463795   8.1259301  25.3687021  58.4453745   8.0323777
  26.7860122  58.1799939   8.4935549  29.4237904  68.0112648  11.2009854
  29.2723411  67.7823199  10.2839938  29.4142584  68.9683249  11.2141199
  26.1923241  65.5844560   6.1856121  27.1215301  65.7355720   6.0125088
  25.7714271  65.6728581   5.3304767  20.5161032  64.3944457   6.8696077
  20.3780829  63.6624696   7.4707616  21.4265955  64.3053358   6.5880265
  23.1443332  64.1064417   6.3579757  23.8542951  63.4657609   6.3166375
  23.1012640  64.3577312   7.2805938  31.1330111  71.0431770   9.2786336
  31.0742657  70.3590990   8.6116919  31.5349629  71.7850760   8.8266962
  21.8572266  61.0929635   8.1775396  21.3209623  60.6420373   8.8296993
  21.2688975  61.2275543   7.4345861  31.1347518  69.0071354   7.5100316
  30.2474297  68.6697276   7.6326715  31.7046069  68.2754385   7.7469081
  17.5911387  60.2285642   5.2628391  17.5069576  59.6211312   4.5278801
  16.7694094  60.7194661   5.2637887  27.7635101  58.7139206   0.6298586
  28.2603801  57.9609168   0.3099656  26.9922083  58.7503523   0.0641795
  35.6164859  64.4179571   2.2716877  35.6054735  65.3004287   1.9010811
  34.7482238  64.0651122   2.0771414  27.1247355  73.5659640   6.6319718
  27.8375327  74.2007105   6.5595619  26.6337384  73.6623506   5.8159719
  24.3470070  60.8556589   0.3570270  23.9767858  60.3027629   1.0451176
  24.8429163  60.2514722  -0.1954729  30.2054096  55.6808799   2.7777945
  29.2917176  55.9113026   2.9460152  30.6347198  55.7647243   3.6291977
  29.9760555  63.8698691   5.2777839  29.3232005  64.1174599   4.6230292
  30.3540934  63.0562830   4.9440316  26.0248128  64.6118502  11.7643876
  25.3488765  64.5112632  12.4346251  26.8475761  64.4557716  12.2279873
  19.7435404  58.2660580   6.6023377  19.8076730  59.1275411   6.1900774
  19.6802524  57.6534581   5.8695735  19.2187676  60.3383712  10.2496411
  19.8459715  59.9560790  10.8633935  18.3615595  60.1197914  10.6152103
  29.6181785  70.7446687  11.8550146  30.1621689  71.3576646  11.3605101
  29.0368630  71.3026266  12.3717159  29.9674206  71.6676425   4.6144724
  29.0204542  71.5481777   4.5423051  30.3156979  70.7798923   4.6970986
  22.3273780  57.5570564   8.4382966  22.8508181  57.8032861   9.2009275
  22.1086113  58.3890599   8.0186103  23.5326325  58.4984259   6.1232637
  23.1923145  57.6992073   6.5253316  22.8265331  58.7985970   5.5509470
  24.1842796  55.5833572   4.5759960  25.0068866  55.1094050   4.4538850
  24.4280860  56.3624056   5.0758646  23.5677758  59.2655241   2.4332828
  23.5539327  58.3696334   2.0965126  24.2850186  59.2725904   3.0671114
  25.4203889  59.6992581   4.4785955  25.1621667  60.6209651   4.4770286
  24.8888929  59.3023015   5.1686419  25.8405844  55.8324531   0.8387118
  25.8627541  55.8963864  -0.1160903  26.2573903  54.9929040   1.0327624
  16.9693059  63.9427933   8.2169756  16.2274795  64.0910569   8.8034387
  16.6485803  64.2036199   7.3536506  24.9136722  73.4843911   8.0150146
  25.2223848  73.2393058   8.8872846  25.7112204  73.6890550   7.5269016
  22.4555734  59.6601618  11.9110331  22.5043889  60.5363741  11.5288100
  22.9978248  59.1179011  11.3381974  32.9410579  70.2042741  11.1911468
  32.1506123  70.1866880  10.6515967  32.7043934  70.7431035  11.9460504
  33.0608454  67.0535208   8.5044196  33.1106459  66.8885215   9.4459719
  32.9522378  66.1862467   8.1142077  30.3512217  63.0366136   9.8203503
  31.2522079  62.8972601   9.5287501  30.4260191  63.2020591  10.7601680
  24.6855022  60.4132991   8.6656689  23.8158331  60.7066557   8.3939278
  24.9214502  60.9973436   9.3863953  34.5626651  69.4732149   8.7486218
  34.2711459  69.8362130   9.5849679  33.9498782  68.7599158   8.5699550
  32.8113839  64.5964764   7.2166276  33.2867961  64.7892410   6.4085127
  31.8879405  64.6523950   6.9709659  27.3894056  56.6312608   6.1822110
  27.9076000  57.3673634   5.8568598  27.0349189  56.9376601   7.0168869
  27.6406650  53.0512890   1.7023006  27.9208404  52.3836079   2.3283433
  28.4257257  53.2441986   1.1897670  31.5115508  61.4730524   5.4494581
  32.4632931  61.5728622   5.4706805  31.3418959  60.6808793   5.9592666
  29.5329888  58.5586107   5.6353982  28.9379820  58.8391120   4.9400471
  29.2479584  59.0480008   6.4070723  33.9903586  64.6936644   4.5636881
  33.9579906  63.7552644   4.7496565  34.6004210  64.7720680   3.8302706
  34.1398075  61.4847687   4.6095164  33.6237123  60.7006144   4.4225093
  35.0238023  61.1566404   4.7741684  31.8008801  55.2288703   0.5690977
  31.6033623  54.9203791   1.4534309  32.4108507  55.9550342   0.6988907
  39.8080136  65.7552651   3.7042918  40.5383524  65.4937939   4.2650621
  39.1987081  65.0181372   3.7444986  37.8895433  63.8960513   4.3017369
  37.1628597  63.7616478   3.6933860  37.4742720  64.2037342   5.1074087
  25.7125609  67.6150443  12.0664742  26.6328619  67.7929042  12.2604788
  25.6775193  66.6706488  11.9144441  25.6291900  56.0319563  -3.3036789
  24.8192628  55.6866648  -2.9281542  26.3176317  55.7227107  -2.7149177
  27.5582448  55.1097610  -1.6812492  28.1113487  55.5293063  -1.0222469
  27.7952534  54.1833358  -1.6389536  23.5815547  61.0984683  14.0990272
  23.4812274  62.0479040  14.0302363  23.3637089  60.7702922  13.2266342
  30.9361255  57.2198135  -2.1733828  30.3559924  57.8782939  -2.5555775
  30.6697188  56.3975479  -2.5846410  29.3864822  56.6203192   0.0287493
  29.8864600  56.7319727  -0.7798188  30.0300429  56.3164245   0.6688301
  23.4446817  64.5281822  12.9155334  22.9613899  65.3282182  13.1219223
  23.5307756  64.5389767  11.9622778  19.9619537  66.9887473   7.5194565
  20.7812426  67.4831552   7.5429402  20.2356345  66.0719441   7.4912133
  29.7186133  59.3798225  -3.1177479  28.8311988  59.6647876  -3.3357285
  30.1340122  59.2191989  -3.9650202  33.0700669  59.4044746   0.5976860
  33.8461059  59.8941199   0.8701477  32.3448804  59.8302800   1.0548729
  35.5073228  60.1172365   1.6550800  36.1017719  59.8768101   0.9444109
  35.5799812  59.3979496   2.2824337  15.2154451  61.3225607   8.2186762
  15.8613315  60.8124561   8.7073987  15.0071602  62.0594288   8.7930187
  27.7407843  68.3906454  13.7178903  28.6099003  68.5647106  13.3565538
  27.2614595  69.2100871  13.5954632  27.5510181  52.1808428  -1.7743405
  26.7842577  51.6266915  -1.6286722  27.9620886  52.2530297  -0.9129253
  19.5551942  58.4693224  12.3161776  20.4183404  58.1130029  12.5265101
  18.9817353  58.1307119  13.0037181  35.8444964  77.6128073  10.5833220
  35.0678298  78.1721993  10.5736085  36.4835527  78.0984856  11.1048090
  32.8352700  77.5753175  10.9466497  32.2051361  78.2569455  11.1801894
  32.7288788  77.4636256  10.0019635  32.1133443  71.8773940  13.3091748
  31.7200389  71.3240139  13.9839392  32.9299583  72.1884519  13.6998265
  35.0301404  73.2931820  10.9012004  35.7711117  73.8938973  10.8216467
  35.2619327  72.5509457  10.3430047  30.1742742  78.4788187   9.1790234
  30.0596257  77.5773444   9.4797333  29.3187260  78.7251884   8.8275051
  36.8552861  73.0755713   8.1259301  36.2080776  73.7745663   8.0323777
  37.6253876  73.5091857   8.4935549  32.6966021  76.4221552   8.1775396
  32.1603378  75.9712291   8.8296993  32.1082729  76.5567461   7.4345861
  28.4305142  75.5577560   5.2628391  28.3463331  74.9503230   4.5278801
  27.6087848  76.0486578   5.2637887  36.8641882  79.9410420  11.7643876
  36.1882519  79.8404549  12.4346251  37.6869516  79.7849634  12.2279873
  30.5829158  73.5952497   6.6023377  30.6470485  74.4567328   6.1900774
  30.5196278  72.9826499   5.8695735  30.0581431  75.6675630  10.2496411
  30.6853470  75.2852707  10.8633935  29.2009350  75.4489832  10.6152103
  33.1667534  72.8862482   8.4382966  33.6901936  73.1324779   9.2009275
  32.9479867  73.7182517   8.0186103  27.8086814  79.2719851   8.2169756
  27.0668550  79.4202486   8.8034387  27.4879558  79.5328116   7.3536506
  33.2949488  74.9893536  11.9110331  33.3437643  75.8655659  11.5288100
  33.8372002  74.4470929  11.3381974  35.5248776  75.7424908   8.6656689
  34.6552086  76.0358474   8.3939278  35.7608257  76.3265353   9.3863953
  34.4209302  76.4276601  14.0990272  34.3206029  77.3770958  14.0302363
  34.2030844  76.0994840  13.2266342  34.2840572  79.8573740  12.9155334
  33.8007654  80.6574100  13.1219223  34.3701511  79.8681685  11.9622778
  26.0548206  76.6517524   8.2186762  26.7007069  76.1416478   8.7073987
  25.8465357  77.3886206   8.7930187  30.3945697  73.7985141  12.3161776
  31.2577158  73.4421946  12.5265101  29.8211107  73.4599036  13.0037181
  26.4140827  48.0976132  -2.4976959  25.9704681  47.3112511  -2.8156054
  27.0758040  48.2855283  -3.1633068  28.5122065  48.3778932  -4.4695557
  28.4940540  49.1987813  -4.9615288  29.4341985  48.2533007  -4.2445416
  24.9695119  45.8923061  -3.6272049  25.5023456  45.1311350  -3.8572741
  24.4409200  45.5996713  -2.8847894  34.3622797  44.8668027  -7.6485720
  34.5558687  45.7713838  -7.4026445  34.2623415  44.4075446  -6.8147135
  29.4237906  45.0174770  -2.0744839  29.2723412  44.7885322  -2.9914755
  29.4142585  45.9745372  -2.0613494  31.1330112  48.0493893  -3.9968357
  31.0742658  47.3653113  -4.6637774  31.5349631  48.7912883  -4.4487731
  31.1347519  46.0133477  -5.7654378  30.2474298  45.6759398  -5.6427979
  31.7046070  45.2816508  -5.5285612  27.1247356  50.5721763  -6.6434976
  27.8375329  51.2069228  -6.7159074  26.6337385  50.6685629  -7.4594974
  26.0248129  41.6180625  -1.5110817  25.3488766  41.5174754  -0.8408442
  26.8475763  41.4619839  -1.0474820  29.6181786  47.7508810  -1.4204547
  30.1621690  48.3638768  -1.9149592  29.0368631  48.3088388  -0.9037534
  24.9136723  50.4906034  -5.2604547  25.2223850  50.2455181  -4.3881848
  25.7112205  50.6952672  -5.7485677  32.9410580  47.2104864  -2.0843226
  32.1506124  47.1929003  -2.6238726  32.7043935  47.7493158  -1.3294189
  33.0608455  44.0597330  -4.7710497  33.1106460  43.8947338  -3.8294974
  32.9522379  43.1924589  -5.1612616  30.3512218  40.0428258  -3.4551191
  31.2522081  39.9034723  -3.7467193  30.4260192  40.2082713  -2.5153013
  34.5626652  46.4794272  -4.5268476  34.2711461  46.8424252  -3.6905015
  33.9498784  45.7661280  -4.7055144  25.7125611  44.6212565  -1.2089951
  26.6328620  44.7991164  -1.0149905  25.6775194  43.6768611  -1.3610252
  23.4446819  41.5343945  -0.3599360  22.9613900  42.3344305  -0.1535471
  23.5307758  41.5451890  -1.3131916  27.7407845  45.3968577   0.4424209
  28.6099004  45.5709229   0.0810844  27.2614596  46.2162994   0.3199939
  35.8444965  54.6190196  -2.6921473  35.0678300  55.1784116  -2.7018609
  36.4835529  55.1046979  -2.1706603  32.8352702  54.5815297  -2.3288196
  32.2051362  55.2631578  -2.0952800  32.7288789  54.4698379  -3.2735058
  32.1133444  48.8836063   0.0337055  31.7200390  48.3302262   0.7084699
  32.9299585  49.1946641   0.4243572  35.0301405  50.2993942  -2.3742689
  35.7711119  50.9001095  -2.4538226  35.2619328  49.5571580  -2.9324646
  30.1742743  55.4850309  -4.0964459  30.0596258  54.5835567  -3.7957360
  29.3187261  55.7314006  -4.4479643  36.8552862  50.0817836  -5.1495392
  36.2080777  50.7807785  -5.2430916  37.6253877  50.5153980  -4.7819144
  32.6966022  53.4283675  -5.0979297  32.1603379  52.9774413  -4.4457701
  32.1082730  53.5629584  -5.8408833  28.4305143  52.5639683  -8.0126303
  28.3463332  51.9565352  -8.7475893  27.6087850  53.0548701  -8.0116806
  36.8641883  56.9472543  -1.5110817  36.1882520  56.8466672  -0.8408442
  37.6869517  56.7911756  -1.0474820  30.5829159  50.6014620  -6.6731317
  30.6470486  51.4629451  -7.0853919  30.5196280  49.9888622  -7.4058958
  30.0581432  52.6737752  -3.0258283  30.6853471  52.2914830  -2.4120758
  29.2009351  52.4551954  -2.6602590  33.1667535  49.8924605  -4.8371727
  33.6901937  50.1386901  -4.0745418  32.9479869  50.7244639  -5.2568590
  27.8086815  56.2781973  -5.0584937  27.0668551  56.4264609  -4.4720307
  27.4879559  56.5390239  -5.9218188  33.2949489  51.9955658  -1.3644363
  33.3437645  52.8717781  -1.7466593  33.8372003  51.4533051  -1.9372720
  35.5248778  52.7487031  -4.6098004  34.6552087  53.0420597  -4.8815416
  35.7608258  53.3327476  -3.8890741  34.4209303  53.4338724   0.8235579
  34.3206030  54.3833080   0.7547670  34.2030845  53.1056962  -0.0488351
  34.2840573  56.8635862  -0.3599360  33.8007655  57.6636222  -0.1535471
  34.3701512  56.8743807  -1.3131916  26.0548207  53.6579647  -5.0567931
  26.7007071  53.1478601  -4.5680706  25.8465358  54.3948329  -4.4824506
  30.3945698  50.8047264  -0.9592917  31.2577160  50.4484069  -0.7489592
  29.8211109  50.4661159  -0.2717513
  83.8589892  83.8589892  83.8589892 109.4712190 109.4712190 109.4712190
