default_name
    35
 177.9280000  19.1140000  46.2440000 178.4140000  20.3240000  46.9960000
 177.6120000  20.8610000  48.0210000 178.0190000  21.9800000  48.7630000
 177.1340000  22.5270000  49.8130000 176.0400000  23.2110000  49.2970000
 175.1370000  23.7700000  50.1640000 174.0610000  24.4590000  49.6040000
 173.1040000  25.0500000  50.4310000 173.2220000  24.9520000  51.8190000
 174.2960000  24.2620000  52.3770000 174.3500000  24.2030000  53.7420000
 175.2540000  23.6720000  51.5480000 176.3980000  22.9390000  52.0930000
 176.5670000  22.8020000  53.3030000 177.3610000  22.3570000  51.1300000
 178.4300000  21.6550000  51.6540000 179.2470000  22.5730000  48.4540000
 180.0560000  22.0510000  47.4410000 179.6580000  20.9240000  46.7030000
 180.5620000  20.3860000  45.6140000 179.9680000  20.3780000  44.3890000
 180.9730000  19.1030000  45.8310000 181.7050000  21.1160000  45.4730000
 177.6170000  18.3380000  46.9590000 177.0730000  19.3940000  45.6120000
 178.7400000  18.7250000  45.6120000 176.6430000  20.3920000  48.2450000
 173.9670000  24.5370000  48.5110000 172.2560000  25.5930000  49.9890000
 172.4690000  25.4190000  52.4710000 174.8880000  24.8070000  54.2160000
 179.2100000  21.5420000  51.1470000 179.5800000  23.4590000  49.0140000
 181.0200000  22.5310000  47.2180000
