; cand_003_GMX_OPLS.itp created by acpype (v: 2023.10.27) on Fri Aug 21 11:33:07 2026

; For OPLS atomtypes manual fine tuning
; AC_at:OPLS_at:OPLScode: Possible_Alternatives (see ffoplsaa.atp and ffoplsaanb.itp)
; c3:CT:opls_135: ['136', '137', '149', '157', '158', '206', '209', '210', '223B', '224B', '245', '246', '274', '283', '284', '285', '292', '292B', '293B', '296', '307', '308', '505']
; ca:CA:opls_145: ['166', '501', '502']
; cc:C*:opls_500: ['506', '507', '508', '514']
; os:x:opls_x: []
; oh:OH:opls_154: ['167']
; c:C:opls_235: ['271']
; o:O:opls_236: ['272']
; cd:C*:opls_500: ['506', '507', '508', '514']
; f:x:opls_x: []
; hc:HC:opls_140: []
; ha:HA:opls_146: []
; ho:HO:opls_155: ['168']

[ moleculetype ]
;name            nrexcl
 cand_003         3

[ atoms ]
;   nr  type  resi  res  atom  cgnr     charge      mass       ; qtot   bond_type
     1 opls_135     1   MOL    C1    1    -0.073800     12.01100 ; qtot -0.074  CT  
     2 opls_145     1   MOL    C2    2    -0.027300     12.01100 ; qtot -0.101  CA  
     3 opls_145     1   MOL    C3    3    -0.110000     12.01100 ; qtot -0.211  CA  
     4 opls_145     1   MOL    C4    4    -0.014800     12.01100 ; qtot -0.226  CA  
     5 opls_500     1   MOL    C5    5     0.115900     12.01100 ; qtot -0.110  C*  
     6 opls_x     1   MOL    O1    6    -0.213200      0.00000 ; qtot -0.323  x   
     7 opls_145     1   MOL    C6    7     0.189100     12.01100 ; qtot -0.134  CA  
     8 opls_145     1   MOL    C7    8    -0.203000     12.01100 ; qtot -0.337  CA  
     9 opls_145     1   MOL    C8    9    -0.027000     12.01100 ; qtot -0.364  CA  
    10 opls_145     1   MOL    C9   10    -0.264000     12.01100 ; qtot -0.628  CA  
    11 opls_145     1   MOL   C10   11     0.218100     12.01100 ; qtot -0.410  CA  
    12 opls_154     1   MOL    O2   12    -0.455100     15.99940 ; qtot -0.865  OH  
    13 opls_145     1   MOL   C11   13    -0.249600     12.01100 ; qtot -1.115  CA  
    14 opls_235     1   MOL   C12   14     0.578900     12.01100 ; qtot -0.536  C   
    15 opls_236     1   MOL    O3   15    -0.527100     15.99940 ; qtot -1.063  O   
    16 opls_500     1   MOL   C13   16    -0.050100     12.01100 ; qtot -1.113  C*  
    17 opls_154     1   MOL    O4   17    -0.489100     15.99940 ; qtot -1.602  OH  
    18 opls_145     1   MOL   C14   18    -0.103000     12.01100 ; qtot -1.705  CA  
    19 opls_145     1   MOL   C15   19    -0.088000     12.01100 ; qtot -1.793  CA  
    20 opls_145     1   MOL   C16   20    -0.159300     12.01100 ; qtot -1.952  CA  
    21 opls_135     1   MOL   C17   21     0.686201     12.01100 ; qtot -1.266  CT  
    22 opls_x     1   MOL    F1   22    -0.237967      0.00000 ; qtot -1.504  x   
    23 opls_x     1   MOL    F2   23    -0.237967      0.00000 ; qtot -1.742  x   
    24 opls_x     1   MOL    F3   24    -0.237967      0.00000 ; qtot -1.980  x   
    25 opls_140     1   MOL    H1   25     0.059700      1.00800 ; qtot -1.920  HC  
    26 opls_140     1   MOL    H2   26     0.059700      1.00800 ; qtot -1.861  HC  
    27 opls_140     1   MOL    H3   27     0.059700      1.00800 ; qtot -1.801  HC  
    28 opls_146     1   MOL    H4   28     0.153000      1.00800 ; qtot -1.648  HA  
    29 opls_146     1   MOL    H5   29     0.160000      1.00800 ; qtot -1.488  HA  
    30 opls_146     1   MOL    H6   30     0.145000      1.00800 ; qtot -1.343  HA  
    31 opls_146     1   MOL    H7   31     0.145000      1.00800 ; qtot -1.198  HA  
    32 opls_155     1   MOL    H8   32     0.426000      1.00800 ; qtot -0.772  HO  
    33 opls_155     1   MOL    H9   33     0.449000      1.00800 ; qtot -0.323  HO  
    34 opls_146     1   MOL   H10   34     0.167000      1.00800 ; qtot -0.156  HA  
    35 opls_146     1   MOL   H11   35     0.156000      1.00800 ; qtot  0.000  HA  

[ bonds ]
;   ai     aj funct   r             k
     1      2   1 ;    1.5147e-01    2.0410e+05 ;     C1 - C2         CT - CA    
     1     25   1 ;    1.0962e-01    2.8891e+05 ;     C1 - H1         CT - HC    
     1     26   1 ;    1.0962e-01    2.8891e+05 ;     C1 - H2         CT - HC    
     1     27   1 ;    1.0962e-01    2.8891e+05 ;     C1 - H3         CT - HC    
     2      3   1 ;    1.3986e-01    2.9644e+05 ;     C2 - C3         CA - CA    
     2     20   1 ;    1.3986e-01    2.9644e+05 ;     C2 - C16        CA - CA    
     3      4   1 ;    1.3986e-01    2.9644e+05 ;     C3 - C4         CA - CA    
     3     28   1 ;    1.0860e-01    3.0183e+05 ;     C3 - H4         CA - HA    
     4      5   1 ;    1.4528e-01    2.4811e+05 ;     C4 - C5         CA - C*    
     4     18   1 ;    1.3986e-01    2.9644e+05 ;     C4 - C14        CA - CA    
     5      6   1 ;    1.3622e-01    2.9388e+05 ;     C5 - O1         C* - x     
     5     16   1 ;    1.3730e-01    3.2321e+05 ;     C5 - C13        C* - C*    
     6      7   1 ;    1.3688e-01    2.8731e+05 ;     O1 - C6          x - CA    
     7      8   1 ;    1.3986e-01    2.9644e+05 ;     C6 - C7         CA - CA    
     7     13   1 ;    1.3986e-01    2.9644e+05 ;     C6 - C11        CA - CA    
     8      9   1 ;    1.3986e-01    2.9644e+05 ;     C7 - C8         CA - CA    
     8     29   1 ;    1.0860e-01    3.0183e+05 ;     C7 - H5         CA - HA    
     9     10   1 ;    1.3986e-01    2.9644e+05 ;     C8 - C9         CA - CA    
     9     30   1 ;    1.0860e-01    3.0183e+05 ;     C8 - H6         CA - HA    
    10     11   1 ;    1.3986e-01    2.9644e+05 ;     C9 - C10        CA - CA    
    10     31   1 ;    1.0860e-01    3.0183e+05 ;     C9 - H7         CA - HA    
    11     12   1 ;    1.3644e-01    2.9167e+05 ;    C10 - O2         CA - OH    
    11     13   1 ;    1.3986e-01    2.9644e+05 ;    C10 - C11        CA - CA    
    12     32   1 ;    9.7250e-02    4.4811e+05 ;     O2 - H8         OH - HO    
    13     14   1 ;    1.4907e-01    2.1994e+05 ;    C11 - C12        CA - C     
    14     15   1 ;    1.2190e-01    4.9421e+05 ;    C12 - O3          C - O     
    14     16   1 ;    1.4728e-01    2.3273e+05 ;    C12 - C13         C - C*    
    16     17   1 ;    1.3492e-01    3.0737e+05 ;    C13 - O4         C* - OH    
    17     33   1 ;    9.7250e-02    4.4811e+05 ;     O4 - H9         OH - HO    
    18     19   1 ;    1.3986e-01    2.9644e+05 ;    C14 - C15        CA - CA    
    18     34   1 ;    1.0860e-01    3.0183e+05 ;    C14 - H10        CA - HA    
    19     20   1 ;    1.3986e-01    2.9644e+05 ;    C15 - C16        CA - CA    
    19     35   1 ;    1.0860e-01    3.0183e+05 ;    C15 - H11        CA - HA    
    20     21   1 ;    1.5147e-01    2.0410e+05 ;    C16 - C17        CA - CT    
    21     22   1 ;    1.3512e-01    2.7973e+05 ;    C17 - F1         CT - x     
    21     23   1 ;    1.3512e-01    2.7973e+05 ;    C17 - F2         CT - x     
    21     24   1 ;    1.3512e-01    2.7973e+05 ;    C17 - F3         CT - x     

[ pairs ]
;   ai     aj    funct
     1      4      1 ;     C1 - C4    
     1     19      1 ;     C1 - C15   
     1     21      1 ;     C1 - C17   
     1     28      1 ;     C1 - H4    
     2      5      1 ;     C2 - C5    
     2     18      1 ;     C2 - C14   
     2     22      1 ;     C2 - F1    
     2     23      1 ;     C2 - F2    
     2     24      1 ;     C2 - F3    
     2     35      1 ;     C2 - H11   
     3      6      1 ;     C3 - O1    
     3     16      1 ;     C3 - C13   
     3     19      1 ;     C3 - C15   
     3     21      1 ;     C3 - C17   
     3     34      1 ;     C3 - H10   
     4      7      1 ;     C4 - C6    
     4     14      1 ;     C4 - C12   
     4     17      1 ;     C4 - O4    
     4     20      1 ;     C4 - C16   
     4     35      1 ;     C4 - H11   
     5      8      1 ;     C5 - C7    
     5     13      1 ;     C5 - C11   
     5     15      1 ;     C5 - O3    
     5     19      1 ;     C5 - C15   
     5     28      1 ;     C5 - H4    
     5     33      1 ;     C5 - H9    
     5     34      1 ;     C5 - H10   
     6      9      1 ;     O1 - C8    
     6     11      1 ;     O1 - C10   
     6     14      1 ;     O1 - C12   
     6     17      1 ;     O1 - O4    
     6     18      1 ;     O1 - C14   
     6     29      1 ;     O1 - H5    
     7     10      1 ;     C6 - C9    
     7     12      1 ;     C6 - O2    
     7     15      1 ;     C6 - O3    
     7     16      1 ;     C6 - C13   
     7     30      1 ;     C6 - H6    
     8     11      1 ;     C7 - C10   
     8     14      1 ;     C7 - C12   
     8     31      1 ;     C7 - H7    
     9     12      1 ;     C8 - O2    
     9     13      1 ;     C8 - C11   
    10     14      1 ;     C9 - C12   
    10     29      1 ;     C9 - H5    
    10     32      1 ;     C9 - H8    
    11     15      1 ;    C10 - O3    
    11     16      1 ;    C10 - C13   
    11     30      1 ;    C10 - H6    
    12     14      1 ;     O2 - C12   
    12     31      1 ;     O2 - H7    
    13     17      1 ;    C11 - O4    
    13     29      1 ;    C11 - H5    
    13     31      1 ;    C11 - H7    
    13     32      1 ;    C11 - H8    
    14     33      1 ;    C12 - H9    
    15     17      1 ;     O3 - O4    
    16     18      1 ;    C13 - C14   
    18     21      1 ;    C14 - C17   
    18     28      1 ;    C14 - H4    
    19     22      1 ;    C15 - F1    
    19     23      1 ;    C15 - F2    
    19     24      1 ;    C15 - F3    
    20     28      1 ;    C16 - H4    
    20     34      1 ;    C16 - H10   
    21     35      1 ;    C17 - H11   
    25      3      1 ;     H1 - C3    
    25     20      1 ;     H1 - C16   
    26      3      1 ;     H2 - C3    
    26     20      1 ;     H2 - C16   
    27      3      1 ;     H3 - C3    
    27     20      1 ;     H3 - C16   
    29     30      1 ;     H5 - H6    
    30     31      1 ;     H6 - H7    
    34     35      1 ;    H10 - H11   

[ angles ]
;   ai     aj     ak    funct   theta         cth
     1      2      3      1 ;    1.2083e+02    5.0827e+02 ;     C1 - C2   - C3       CT -   CA - CA  
     1      2     20      1 ;    1.2083e+02    5.0827e+02 ;     C1 - C2   - C16      CT -   CA - CA  
     2      1     25      1 ;    1.1063e+02    3.6493e+02 ;     C2 - C1   - H1       CA -   CT - HC  
     2      1     26      1 ;    1.1063e+02    3.6493e+02 ;     C2 - C1   - H2       CA -   CT - HC  
     2      1     27      1 ;    1.1063e+02    3.6493e+02 ;     C2 - C1   - H3       CA -   CT - HC  
     2      3      4      1 ;    1.2002e+02    5.3279e+02 ;     C2 - C3   - C4       CA -   CA - CA  
     2      3     28      1 ;    1.1988e+02    3.7572e+02 ;     C2 - C3   - H4       CA -   CA - HA  
     2     20     19      1 ;    1.2002e+02    5.3279e+02 ;     C2 - C16  - C15      CA -   CA - CA  
     2     20     21      1 ;    1.2083e+02    5.0827e+02 ;     C2 - C16  - C17      CA -   CA - CT  
     3      2     20      1 ;    1.2002e+02    5.3279e+02 ;     C3 - C2   - C16      CA -   CA - CA  
     3      4      5      1 ;    1.2091e+02    5.2041e+02 ;     C3 - C4   - C5       CA -   CA - C*  
     3      4     18      1 ;    1.2002e+02    5.3279e+02 ;     C3 - C4   - C14      CA -   CA - CA  
     4      3     28      1 ;    1.1988e+02    3.7572e+02 ;     C4 - C3   - H4       CA -   CA - HA  
     4      5      6      1 ;    1.1590e+02    6.5764e+02 ;     C4 - C5   - O1       CA -   C* - x   
     4      5     16      1 ;    1.1603e+02    5.3555e+02 ;     C4 - C5   - C13      CA -   C* - C*  
     4     18     19      1 ;    1.2002e+02    5.3279e+02 ;     C4 - C14  - C15      CA -   CA - CA  
     4     18     34      1 ;    1.1988e+02    3.7572e+02 ;     C4 - C14  - H10      CA -   CA - HA  
     5      4     18      1 ;    1.2091e+02    5.2041e+02 ;     C5 - C4   - C14      C* -   CA - CA  
     5      6      7      1 ;    1.0590e+02    8.0023e+02 ;     C5 - O1   - C6       C* -    x - CA  
     5     16     14      1 ;    1.2132e+02    5.1965e+02 ;     C5 - C13  - C12      C* -   C* - C   
     5     16     17      1 ;    1.2370e+02    6.5948e+02 ;     C5 - C13  - O4       C* -   C* - OH  
     6      5     16      1 ;    1.1153e+02    6.9136e+02 ;     O1 - C5   - C13       x -   C* - C*  
     6      7      8      1 ;    1.1911e+02    6.6107e+02 ;     O1 - C6   - C7        x -   CA - CA  
     6      7     13      1 ;    1.1911e+02    6.6107e+02 ;     O1 - C6   - C11       x -   CA - CA  
     7      8      9      1 ;    1.2002e+02    5.3279e+02 ;     C6 - C7   - C8       CA -   CA - CA  
     7      8     29      1 ;    1.1988e+02    3.7572e+02 ;     C6 - C7   - H5       CA -   CA - HA  
     7     13     11      1 ;    1.2002e+02    5.3279e+02 ;     C6 - C11  - C10      CA -   CA - CA  
     7     13     14      1 ;    1.2033e+02    5.1413e+02 ;     C6 - C11  - C12      CA -   CA - C   
     8      7     13      1 ;    1.2002e+02    5.3279e+02 ;     C7 - C6   - C11      CA -   CA - CA  
     8      9     10      1 ;    1.2002e+02    5.3279e+02 ;     C7 - C8   - C9       CA -   CA - CA  
     8      9     30      1 ;    1.1988e+02    3.7572e+02 ;     C7 - C8   - H6       CA -   CA - HA  
     9      8     29      1 ;    1.1988e+02    3.7572e+02 ;     C8 - C7   - H5       CA -   CA - HA  
     9     10     11      1 ;    1.2002e+02    5.3279e+02 ;     C8 - C9   - C10      CA -   CA - CA  
     9     10     31      1 ;    1.1988e+02    3.7572e+02 ;     C8 - C9   - H7       CA -   CA - HA  
    10      9     30      1 ;    1.1988e+02    3.7572e+02 ;     C9 - C8   - H6       CA -   CA - HA  
    10     11     12      1 ;    1.1990e+02    6.5990e+02 ;     C9 - C10  - O2       CA -   CA - OH  
    10     11     13      1 ;    1.2002e+02    5.3279e+02 ;     C9 - C10  - C11      CA -   CA - CA  
    11     10     31      1 ;    1.1988e+02    3.7572e+02 ;    C10 - C9   - H7       CA -   CA - HA  
    11     12     32      1 ;    1.0858e+02    5.6409e+02 ;    C10 - O2   - H8       CA -   OH - HO  
    11     13     14      1 ;    1.2033e+02    5.1413e+02 ;    C10 - C11  - C12      CA -   CA - C   
    12     11     13      1 ;    1.1990e+02    6.5990e+02 ;     O2 - C10  - C11      OH -   CA - CA  
    13     14     15      1 ;    1.2260e+02    6.5237e+02 ;    C11 - C12  - O3       CA -    C - O   
    13     14     16      1 ;    1.1749e+02    5.0827e+02 ;    C11 - C12  - C13      CA -    C - C*  
    14     16     17      1 ;    1.1373e+02    6.6107e+02 ;    C12 - C13  - O4        C -   C* - OH  
    15     14     16      1 ;    1.2371e+02    6.5530e+02 ;     O3 - C12  - C13       O -    C - C*  
    16     17     33      1 ;    1.0720e+02    5.7354e+02 ;    C13 - O4   - H9       C* -   OH - HO  
    18     19     20      1 ;    1.2002e+02    5.3279e+02 ;    C14 - C15  - C16      CA -   CA - CA  
    18     19     35      1 ;    1.1988e+02    3.7572e+02 ;    C14 - C15  - H11      CA -   CA - HA  
    19     18     34      1 ;    1.1988e+02    3.7572e+02 ;    C15 - C14  - H10      CA -   CA - HA  
    19     20     21      1 ;    1.2083e+02    5.0827e+02 ;    C15 - C16  - C17      CA -   CA - CT  
    20     19     35      1 ;    1.1988e+02    3.7572e+02 ;    C16 - C15  - H11      CA -   CA - HA  
    20     21     22      1 ;    1.1178e+02    6.6308e+02 ;    C16 - C17  - F1       CA -   CT - x   
    20     21     23      1 ;    1.1178e+02    6.6308e+02 ;    C16 - C17  - F2       CA -   CT - x   
    20     21     24      1 ;    1.1178e+02    6.6308e+02 ;    C16 - C17  - F3       CA -   CT - x   
    22     21     23      1 ;    1.0737e+02    8.9437e+02 ;     F1 - C17  - F2        x -   CT - x   
    22     21     24      1 ;    1.0737e+02    8.9437e+02 ;     F1 - C17  - F3        x -   CT - x   
    23     21     24      1 ;    1.0737e+02    8.9437e+02 ;     F2 - C17  - F3        x -   CT - x   
    25      1     26      1 ;    1.0773e+02    2.9957e+02 ;     H1 - C1   - H2       HC -   CT - HC  
    25      1     27      1 ;    1.0773e+02    2.9957e+02 ;     H1 - C1   - H3       HC -   CT - HC  
    26      1     27      1 ;    1.0773e+02    2.9957e+02 ;     H2 - C1   - H3       HC -   CT - HC  

[ dihedrals ] ; propers
; for gromacs 4.5 or higher, using funct 9
;    i      j      k      l   func   phase     kd      pn
     1      2      3      4      9 ;   180.00  15.16700   2 ;     C1-    C2-    C3-    C4
     1      2      3     28      9 ;   180.00  15.16700   2 ;     C1-    C2-    C3-    H4
     1      2     20     19      9 ;   180.00  15.16700   2 ;     C1-    C2-   C16-   C15
     1      2     20     21      9 ;   180.00  15.16700   2 ;     C1-    C2-   C16-   C17
     2      3      4      5      9 ;   180.00  15.16700   2 ;     C2-    C3-    C4-    C5
     2      3      4     18      9 ;   180.00  15.16700   2 ;     C2-    C3-    C4-   C14
     2     20     19     18      9 ;   180.00  15.16700   2 ;     C2-   C16-   C15-   C14
     2     20     19     35      9 ;   180.00  15.16700   2 ;     C2-   C16-   C15-   H11
     2     20     21     22      9 ;     0.00   0.00000   0 ;     C2-   C16-   C17-    F1
     2     20     21     23      9 ;     0.00   0.00000   0 ;     C2-   C16-   C17-    F2
     2     20     21     24      9 ;     0.00   0.00000   0 ;     C2-   C16-   C17-    F3
     3      2     20     19      9 ;   180.00  15.16700   2 ;     C3-    C2-   C16-   C15
     3      2     20     21      9 ;   180.00  15.16700   2 ;     C3-    C2-   C16-   C17
     3      4      5      6      9 ;   180.00   2.92880   2 ;     C3-    C4-    C5-    O1
     3      4      5     16      9 ;   180.00   2.44764   2 ;     C3-    C4-    C5-   C13
     3      4     18     19      9 ;   180.00  15.16700   2 ;     C3-    C4-   C14-   C15
     3      4     18     34      9 ;   180.00  15.16700   2 ;     C3-    C4-   C14-   H10
     4      3      2     20      9 ;   180.00  15.16700   2 ;     C4-    C3-    C2-   C16
     4      5      6      7      9 ;   180.00   2.71960   1 ;     C4-    C5-    O1-    C6
     4      5     16     14      9 ;   180.00  16.73600   2 ;     C4-    C5-   C13-   C12
     4      5     16     17      9 ;   180.00  16.73600   2 ;     C4-    C5-   C13-    O4
     4     18     19     20      9 ;   180.00  15.16700   2 ;     C4-   C14-   C15-   C16
     4     18     19     35      9 ;   180.00  15.16700   2 ;     C4-   C14-   C15-   H11
     5      4      3     28      9 ;   180.00  15.16700   2 ;     C5-    C4-    C3-    H4
     5      4     18     19      9 ;   180.00  15.16700   2 ;     C5-    C4-   C14-   C15
     5      4     18     34      9 ;   180.00  15.16700   2 ;     C5-    C4-   C14-   H10
     5      6      7      8      9 ;   180.00   7.63580   2 ;     C5-    O1-    C6-    C7
     5      6      7     13      9 ;   180.00   7.63580   2 ;     C5-    O1-    C6-   C11
     5     16     14     13      9 ;   180.00  12.02900   2 ;     C5-   C13-   C12-   C11
     5     16     14     15      9 ;   180.00  12.02900   2 ;     C5-   C13-   C12-    O3
     5     16     17     33      9 ;   180.00   5.35552   2 ;     C5-   C13-    O4-    H9
     6      5      4     18      9 ;   180.00   2.92880   2 ;     O1-    C5-    C4-   C14
     6      5     16     14      9 ;   180.00  16.73600   2 ;     O1-    C5-   C13-   C12
     6      5     16     17      9 ;   180.00  16.73600   2 ;     O1-    C5-   C13-    O4
     6      7      8      9      9 ;   180.00  15.16700   2 ;     O1-    C6-    C7-    C8
     6      7      8     29      9 ;   180.00  15.16700   2 ;     O1-    C6-    C7-    H5
     6      7     13     11      9 ;   180.00  15.16700   2 ;     O1-    C6-   C11-   C10
     6      7     13     14      9 ;   180.00  15.16700   2 ;     O1-    C6-   C11-   C12
     7      6      5     16      9 ;   180.00   2.71960   1 ;     C6-    O1-    C5-   C13
     7      8      9     10      9 ;   180.00  15.16700   2 ;     C6-    C7-    C8-    C9
     7      8      9     30      9 ;   180.00  15.16700   2 ;     C6-    C7-    C8-    H6
     7     13     11     10      9 ;   180.00  15.16700   2 ;     C6-   C11-   C10-    C9
     7     13     11     12      9 ;   180.00  15.16700   2 ;     C6-   C11-   C10-    O2
     7     13     14     15      9 ;   180.00   2.42672   2 ;     C6-   C11-   C12-    O3
     7     13     14     16      9 ;   180.00   4.18400   2 ;     C6-   C11-   C12-   C13
     8      7     13     11      9 ;   180.00  15.16700   2 ;     C7-    C6-   C11-   C10
     8      7     13     14      9 ;   180.00  15.16700   2 ;     C7-    C6-   C11-   C12
     8      9     10     11      9 ;   180.00  15.16700   2 ;     C7-    C8-    C9-   C10
     8      9     10     31      9 ;   180.00  15.16700   2 ;     C7-    C8-    C9-    H7
     9      8      7     13      9 ;   180.00  15.16700   2 ;     C8-    C7-    C6-   C11
     9     10     11     12      9 ;   180.00  15.16700   2 ;     C8-    C9-   C10-    O2
     9     10     11     13      9 ;   180.00  15.16700   2 ;     C8-    C9-   C10-   C11
    10      9      8     29      9 ;   180.00  15.16700   2 ;     C9-    C8-    C7-    H5
    10     11     12     32      9 ;   180.00   3.57732   2 ;     C9-   C10-    O2-    H8
    10     11     13     14      9 ;   180.00  15.16700   2 ;     C9-   C10-   C11-   C12
    11     10      9     30      9 ;   180.00  15.16700   2 ;    C10-    C9-    C8-    H6
    11     13     14     15      9 ;   180.00   2.42672   2 ;    C10-   C11-   C12-    O3
    11     13     14     16      9 ;   180.00   4.18400   2 ;    C10-   C11-   C12-   C13
    12     11     10     31      9 ;   180.00  15.16700   2 ;     O2-   C10-    C9-    H7
    12     11     13     14      9 ;   180.00  15.16700   2 ;     O2-   C10-   C11-   C12
    13      7      8     29      9 ;   180.00  15.16700   2 ;    C11-    C6-    C7-    H5
    13     11     10     31      9 ;   180.00  15.16700   2 ;    C11-   C10-    C9-    H7
    13     11     12     32      9 ;   180.00   3.57732   2 ;    C11-   C10-    O2-    H8
    13     14     16     17      9 ;   180.00  12.02900   2 ;    C11-   C12-   C13-    O4
    14     16     17     33      9 ;   180.00   5.35552   2 ;    C12-   C13-    O4-    H9
    15     14     16     17      9 ;   180.00  12.02900   2 ;     O3-   C12-   C13-    O4
    16      5      4     18      9 ;   180.00   2.44764   2 ;    C13-    C5-    C4-   C14
    18      4      3     28      9 ;   180.00  15.16700   2 ;    C14-    C4-    C3-    H4
    18     19     20     21      9 ;   180.00  15.16700   2 ;    C14-   C15-   C16-   C17
    19     20     21     22      9 ;     0.00   0.00000   0 ;    C15-   C16-   C17-    F1
    19     20     21     23      9 ;     0.00   0.00000   0 ;    C15-   C16-   C17-    F2
    19     20     21     24      9 ;     0.00   0.00000   0 ;    C15-   C16-   C17-    F3
    20      2      3     28      9 ;   180.00  15.16700   2 ;    C16-    C2-    C3-    H4
    20     19     18     34      9 ;   180.00  15.16700   2 ;    C16-   C15-   C14-   H10
    21     20     19     35      9 ;   180.00  15.16700   2 ;    C17-   C16-   C15-   H11
    25      1      2      3      9 ;     0.00   0.00000   0 ;     H1-    C1-    C2-    C3
    25      1      2     20      9 ;     0.00   0.00000   0 ;     H1-    C1-    C2-   C16
    26      1      2      3      9 ;     0.00   0.00000   0 ;     H2-    C1-    C2-    C3
    26      1      2     20      9 ;     0.00   0.00000   0 ;     H2-    C1-    C2-   C16
    27      1      2      3      9 ;     0.00   0.00000   0 ;     H3-    C1-    C2-    C3
    27      1      2     20      9 ;     0.00   0.00000   0 ;     H3-    C1-    C2-   C16
    29      8      9     30      9 ;   180.00  15.16700   2 ;     H5-    C7-    C8-    H6
    30      9     10     31      9 ;   180.00  15.16700   2 ;     H6-    C8-    C9-    H7
    34     18     19     35      9 ;   180.00  15.16700   2 ;    H10-   C14-   C15-   H11

[ dihedrals ] ; impropers
; treated as propers in GROMACS to use correct AMBER analytical function
;    i      j      k      l   func   phase     kd      pn
     1      2     20      3      4 ;   180.00   4.60240   2 ;     C1-    C2-   C16-    C3
     2      4      3     28      4 ;   180.00   4.60240   2 ;     C2-    C4-    C3-    H4
     3     18      4      5      4 ;   180.00   4.60240   2 ;     C3-   C14-    C4-    C5
     4     16      5      6      4 ;   180.00  43.93200   2 ;     C4-   C13-    C5-    O1
     4     19     18     34      4 ;   180.00   4.60240   2 ;     C4-   C15-   C14-   H10
     7      9      8     29      4 ;   180.00   4.60240   2 ;     C6-    C8-    C7-    H5
     8     10      9     30      4 ;   180.00   4.60240   2 ;     C7-    C9-    C8-    H6
     8     13      7      6      4 ;   180.00  43.93200   2 ;     C7-   C11-    C6-    O1
     9     11     10     31      4 ;   180.00   4.60240   2 ;     C8-   C10-    C9-    H7
    10     13     11     12      4 ;   180.00  43.93200   2 ;     C9-   C11-   C10-    O2
    13     16     14     15      4 ;   180.00  43.93200   2 ;    C11-   C13-   C12-    O3
    14      5     16     17      4 ;   180.00  43.93200   2 ;    C12-    C5-   C13-    O4
    14      7     13     11      4 ;   180.00  43.93200   2 ;    C12-    C6-   C11-   C10
    18     20     19     35      4 ;   180.00   4.60240   2 ;    C14-   C16-   C15-   H11
    21      2     20     19      4 ;   180.00   4.60240   2 ;    C17-    C2-   C16-   C15
