cand_003_GMX.gro created by acpype (v: 2023.10.27) on Fri Aug 21 11:33:07 2026
 35
    1  MOL   C1    1  -0.378  -0.063  -0.207
    1  MOL   C2    2  -0.306  -0.038  -0.077
    1  MOL   C3    3  -0.167  -0.014  -0.080
    1  MOL   C4    4  -0.095   0.012   0.038
    1  MOL   C5    5   0.051   0.034   0.031
    1  MOL   O1    6   0.116  -0.059  -0.049
    1  MOL   C6    7   0.252  -0.050  -0.064
    1  MOL   C7    8   0.314  -0.146  -0.144
    1  MOL   C8    9   0.452  -0.143  -0.164
    1  MOL   C9   10   0.529  -0.043  -0.104
    1  MOL  C10   11   0.467   0.053  -0.024
    1  MOL   O2   12   0.548   0.148   0.032
    1  MOL  C11   13   0.329   0.049  -0.004
    1  MOL  C12   14   0.260   0.148   0.079
    1  MOL   O3   15   0.321   0.240   0.135
    1  MOL  C13   16   0.113   0.135   0.094
    1  MOL   O4   17   0.049   0.230   0.172
    1  MOL  C14   18  -0.164   0.011   0.160
    1  MOL  C15   19  -0.301  -0.012   0.164
    1  MOL  C16   20  -0.374  -0.036   0.047
    1  MOL  C17   21  -0.523  -0.061   0.055
    1  MOL   F1   22  -0.596   0.027  -0.019
    1  MOL   F2   23  -0.573  -0.052   0.182
    1  MOL   F3   24  -0.559  -0.185   0.011
    1  MOL   H1   25  -0.309  -0.059  -0.288
    1  MOL   H2   26  -0.453   0.012  -0.221
    1  MOL   H3   27  -0.425  -0.159  -0.203
    1  MOL   H4   28  -0.118  -0.015  -0.170
    1  MOL   H5   29   0.257  -0.220  -0.189
    1  MOL   H6   30   0.497  -0.214  -0.223
    1  MOL   H7   31   0.631  -0.040  -0.118
    1  MOL   H8   32   0.640   0.147   0.016
    1  MOL   H9   33   0.099   0.298   0.213
    1  MOL  H10   34  -0.112   0.028   0.248
    1  MOL  H11   35  -0.350  -0.012   0.255
   24.72800    10.36600    10.85400
