MOL
    35
  -3.7830000  -0.6290000  -2.0660000  -3.0600000  -0.3760000  -0.7700000
  -1.6730000  -0.1360000  -0.7960000  -0.9490000   0.1180000   0.3790000
   0.5110000   0.3390000   0.3100000   1.1620000  -0.5920000  -0.4910000
   2.5220000  -0.5010000  -0.6420000   3.1370000  -1.4640000  -1.4430000
   4.5190000  -1.4280000  -1.6400000   5.2860000  -0.4290000  -1.0370000
   4.6700000   0.5320000  -0.2390000   5.4800000   1.4820000   0.3200000
   3.2870000   0.4940000  -0.0410000   2.6010000   1.4840000   0.7900000
   3.2050000   2.3980000   1.3480000   1.1330000   1.3520000   0.9420000
   0.4920000   2.3000000   1.7180000  -1.6350000   0.1130000   1.5980000
  -3.0120000  -0.1210000   1.6400000  -3.7430000  -0.3640000   0.4650000
  -5.2340000  -0.6120000   0.5510000  -5.9610000   0.2720000  -0.1880000
  -5.7290000  -0.5230000   1.8190000  -5.5870000  -1.8520000   0.1080000
  -3.0860000  -0.5950000  -2.8770000  -4.5330000   0.1210000  -2.2090000
  -4.2460000  -1.5940000  -2.0340000  -1.1770000  -0.1460000  -1.7010000
   2.5700000  -2.2030000  -1.8890000   4.9740000  -2.1400000  -2.2320000
   6.3070000  -0.4020000  -1.1830000   6.4030000   1.4650000   0.1580000
   0.9870000   2.9800000   2.1300000  -1.1190000   0.2840000   2.4750000
  -3.5000000  -0.1150000   2.5500000
