default_name
    35
  23.8110000 -28.8420000  42.2550000  22.6390000 -27.8970000  42.2520000
  21.9730000 -27.6380000  41.0390000  20.8670000 -26.7760000  40.9790000
  20.2120000 -26.5100000  39.6800000  20.0460000 -25.1540000  39.4260000
  19.4500000 -24.7670000  38.2520000  19.2900000 -23.3970000  38.0430000
  18.6930000 -22.9360000  36.8680000  18.2560000 -23.8450000  35.9020000
  18.4180000 -25.2120000  36.1120000  17.9700000 -26.0460000  35.1250000
  19.0150000 -25.6720000  37.2890000  19.2030000 -27.1000000  37.5490000
  18.8530000 -27.9610000  36.7440000  19.8400000 -27.4850000  38.8300000
  20.0260000 -28.8360000  39.0610000  20.4400000 -26.1560000  42.1580000
  21.0900000 -26.4050000  43.3700000  22.1900000 -27.2770000  43.4370000
  22.8670000 -27.5230000  44.7690000  22.4800000 -26.6380000  45.7300000
  24.2270000 -27.4320000  44.7140000  22.6040000 -28.7620000  45.2710000
  24.0950000 -29.0710000  43.2930000  23.5340000 -29.7720000  41.7370000
  24.6610000 -28.3740000  41.7370000  22.3280000 -28.1220000  40.1170000
  19.6340000 -22.6800000  38.8030000  18.5670000 -21.8560000  36.7030000
  17.7850000 -23.4820000  34.9770000  18.3380000 -25.9930000  34.2640000
  19.8400000 -29.1970000  39.9050000  19.5840000 -25.4660000  42.1310000
  20.7350000 -25.9100000  44.2860000
