default_name
118923
  34.6800797  83.0757255  22.9041877  34.3676891  83.9406105  23.3219042
  34.7203763  82.3651120  23.6207803  34.1494976  82.9125294  22.0604169
  36.1289512  83.2665528  22.4410449  36.7704693  82.5496935  22.9535548
  36.2626812  83.0506623  20.9310761  35.4802817  83.6321058  20.4433530
  37.2335259  83.3386065  20.5277787  36.0430236  81.6260252  20.5400063
  37.0803730  80.7694992  20.2312969  36.5878084  79.5703727  19.9648373
  37.2484394  78.7524698  19.6772604  35.2721553  79.6130405  20.1158922
  34.6343923  78.8399777  19.9904645  34.9046598  80.8880476  20.4742036
  33.8543622  81.1251757  20.6437507  37.0252277  84.4762175  22.8792910
  38.2798101  84.4070851  22.7438884  36.4202557  85.5648260  23.3700541
  35.4129235  85.6370264  23.3830293  37.2135983  86.7251809  23.8376115
  38.2713317  86.5362385  23.6543084  36.8067618  88.0264623  23.0969634
  36.4404058  87.7054074  22.1218705  35.9826363  88.4457736  23.6741075
  37.9625123  89.1606263  22.8968469  38.6554496  88.7370518  22.1698507
  37.4504263  90.0152834  22.4547708  38.9255686  89.7312376  24.4100126
  40.5513467  90.3706200  23.8994429  40.4144529  91.2124325  23.2206861
  41.1053203  90.6997695  24.7785758  41.1092973  89.5831129  23.3928612
  37.0208324  86.8438348  25.3737302  35.8865785  87.0140088  25.8281636
  38.0962300  86.7235448  26.1670217  38.9952421  86.5043852  25.7622432
  38.0011451  86.8517684  27.6453662  37.0381582  87.2885346  27.9099239
  38.1243808  85.4905052  28.3291479  39.1289654  85.1190826  28.1267760
  37.9592394  85.5217960  29.4061109  37.1755411  84.4764863  27.7807980
  37.3939669  83.9066030  26.5124005  38.2951530  84.1909991  25.9691856
  36.4933769  82.9990953  25.9461248  36.6924197  82.5743487  24.9622178
  35.3511468  82.6411196  26.6344285  34.6425492  81.9283562  26.2125784
  35.1048419  83.2186260  27.9154216  34.2055541  82.9441386  28.4668182
  36.0248012  84.1474745  28.4733064  35.8223520  84.5985194  29.4447346
  39.0687090  87.7896570  28.1830979  40.0989050  87.9594463  27.5188625
  38.8326837  88.3944086  29.3642861  37.9023797  88.4660908  29.7509325
  39.9459424  89.0347649  30.0945471  40.3804802  89.8066399  29.4593424
  39.5012133  89.6779280  31.4118721  39.1345914  88.8787887  32.0561268
  40.3697044  90.1470660  31.8741843  38.4094121  90.7137078  31.2203665
  38.5417610  91.4909604  30.2181713  37.4565989  90.7391506  32.0722142
  41.0834297  88.0497838  30.3900924  42.2383756  88.2881517  29.9854016
  40.7647397  86.9343643  31.0535869  39.8322075  86.7323610  31.3847630
  41.8243294  86.0326684  31.4104555  42.7699459  86.3753278  30.9903444
  41.9812121  85.9064668  32.9383492  41.0812443  85.4593047  33.3604905
  43.2000943  85.0119542  33.2599007  44.1005742  85.4587360  32.8384475
  43.3109600  84.9227609  34.3405736  43.0495006  84.0226761  32.8277525
  42.1611692  87.3135634  33.5827532  41.2874965  87.9278924  33.3650423
  42.2707288  87.2081362  34.6620962  43.0513568  87.7904506  33.1725758
  41.6376968  84.6616865  30.7622875  40.5237935  84.1564087  30.7933480
  42.6944949  84.0669502  30.1641582  43.2224849  84.5703297  29.4656347
  42.7048753  82.5769042  30.1201016  42.0275493  82.1287904  30.8470973
  42.4840807  81.8847395  28.7408816  41.7304136  81.1067122  28.8623666
  42.0210357  82.8796182  27.6818439  42.7744523  83.6577484  27.5594606
  41.8774349  82.3613147  26.7337718  41.0797935  83.3318796  27.9942928
  43.6178835  81.0762460  28.3205361  43.7996956  80.2936307  29.0571227
  43.4019736  80.6214826  27.3537513  44.5028049  81.7069207  28.2353044
  43.6344464  81.8159502  31.0223442  44.8300525  82.1555902  31.1482001
  43.0729252  80.7981433  31.6813927  42.0947077  80.5773011  31.5613151
  43.8506235  79.9723033  32.5415228  44.8251303  80.3858583  32.8011530
  43.1205070  79.6245587  33.8136268  42.1537331  79.1916833  33.5565928
  43.9189741  78.6267939  34.6419684  44.8857619  79.0591681  34.8997955
  43.3717731  78.3913641  35.5547906  44.0716959  77.7146931  34.0650370
  42.6971347  80.8626699  34.6566675  42.0334228  81.4948159  34.0667691
  42.1776909  80.5304545  35.5555060  43.5833982  81.4309782  34.9389145
  44.1067626  78.6786440  31.7585941  43.1904137  78.0945790  31.2048659
  45.3606542  78.2596184  31.7367225  46.0543595  78.7831913  32.2512550
  45.7652388  77.0848078  31.0779264  45.0145413  76.8005500  30.3405324
  47.1322508  77.2693616  30.3769755  47.8736979  77.5233291  31.1345090
  47.5723561  75.9954328  29.6361557  46.8315819  75.7410792  28.8780934
  48.5366040  76.1674133  29.1578781  47.6612359  75.1736628  30.3467144
  47.0807497  78.4221971  29.3788579  46.4767170  78.1338305  28.5185730
  46.6395687  79.2979684  29.8547606  48.4976030  78.7539027  28.9171792
  48.9392976  77.8786891  28.4407269  48.4644112  79.5773614  28.2037977
  49.1021502  79.0428250  29.7769155  45.9264023  76.0534860  32.1925110
  46.9137525  76.0602356  32.9118796  44.9686792  75.1352822  32.2808851
  44.1667964  75.1567767  31.6671903  45.0516708  74.0814315  33.2595006
  44.9691588  73.0989357  32.7947502  45.9804418  74.1373754  33.8272629
  43.9086871  74.2754591  34.1838423  43.6749704  75.3812436  34.7423511
  43.1499449  73.1972469  34.3328044  43.2546020  72.3843550  33.7425901
  42.1459916  73.1689222  35.3582948  42.1097432  74.1306742  35.8699766
  41.1716639  72.9546615  34.9191170  42.4813330  72.0885999  36.3635908
  41.6832651  71.1834021  36.6108203  43.6954131  72.1745892  36.9267909
  44.4102912  72.7239896  36.4715899  44.0270209  71.5109459  38.1645921
  43.5473032  70.5349808  38.2384995  45.1044352  71.3955140  38.2827155
  43.5036497  72.4012529  39.2687122  42.8507646  73.4181990  39.0086206
  43.7077466  72.0049460  40.5197883  43.9643378  71.0539166  40.7429553
  43.3761283  72.8798647  41.5859733  42.3202636  73.1505094  41.5865656
  43.7436793  72.2248158  42.9474322  44.7893595  71.9176119  42.9307325
  43.5161206  73.2783220  44.1315711  42.4704952  73.5856612  44.1491984
  43.7745768  72.8162396  45.0843465  44.1481597  74.1512496  43.9684053
  42.8858694  70.9510944  43.0670562  41.8478117  71.2819218  43.1000727
  43.0556953  70.3796489  42.1545274  43.1671825  70.1036887  44.2350444
  42.9971185  70.6743472  45.1480214  42.5082921  69.2354792  44.2218206
  44.2050035  69.7720761  44.2024771  43.9645409  74.3191578  41.3754694
  43.3181935  75.2979938  41.5792516  45.1687303  74.4439122  40.8767730
  45.7371244  73.6765141  40.5479454  45.7490223  75.7798865  40.8830276
  45.6658423  76.2395164  41.8678731  47.1885988  75.6518432  40.5389443
  47.6441918  74.9108574  41.1958113  47.2763305  75.3218613  39.5038041
  47.8443793  76.8788192  40.6944131  48.7717294  76.7769368  40.4680469
  44.9251171  76.6545477  39.8915529  44.5694409  77.7625639  40.2135413
  44.5775749  76.0855459  38.7211772  44.7472994  75.0979275  38.5950708
  43.9741256  76.8185966  37.6378131  44.5132353  77.7475047  37.4518300
  43.9582773  76.2197406  36.7271981  42.5458471  77.1475323  38.0381514
  42.1205774  78.3114220  37.9540364  41.8258759  76.1410948  38.5360250
  42.1768908  75.1943473  38.5596312  40.4729700  76.3887924  39.0189789
  39.8756423  76.8099779  38.2103371  39.8067344  75.1154018  39.5007427
  40.4712103  74.6464424  40.2264479  38.8052759  75.1943314  39.9237687
  39.7582086  74.2734046  38.2436973  40.7592663  74.1829217  37.8220374
  39.2460691  72.9344845  38.5837916  38.2447926  73.0241211  39.0051103
  39.2074827  72.3203441  37.6841008  39.9064980  72.4670084  39.3141341
  38.9790530  74.8924766  37.0908919  39.4331807  75.8439696  36.8142541
  38.9991274  74.2183113  36.2346212  37.9463934  75.0588674  37.3975307
  40.4680719  77.3817135  40.1145472  39.6211468  78.2051844  40.1437804
  41.3330336  77.2549504  41.0977935  42.0226137  76.5178359  41.1330169
  41.3695270  78.2973580  42.1412578  40.4977504  78.2021601  42.7885924
  42.6096119  78.1592452  42.9815644  43.4970736  78.4184796  42.4042357
  42.5508537  78.7978144  43.8629706  42.6872927  76.8274809  43.3782703
  43.4700521  76.6998734  43.9191989  41.4842043  79.6558989  41.5572356
  40.9575707  80.6083709  42.1708805  42.3180047  79.7813394  40.5068150
  42.7035730  78.9531314  40.0761087  42.6777944  81.0807597  39.9513877
  42.9921550  81.8246187  40.6834740  43.7712787  80.9455044  38.8920770
  43.4669832  80.2106011  38.1468110  43.9299032  81.9090495  38.4078050
  44.6978695  80.6202683  39.3650993  41.3793852  81.5802766  39.3327437
  40.9046975  82.7205091  39.5938767  40.7604759  80.6854998  38.5529759
  41.1206689  79.7448486  38.4785747  39.5701861  81.0290096  37.7948795
  39.7180356  81.8991741  37.1553065  39.1483557  79.8754202  36.9421742
  38.9875817  78.9987707  37.5696592  38.2225790  80.1253878  36.4239523
  39.9269680  79.6599752  36.2104327  38.4850578  81.3691227  38.7794275
  37.7533618  82.3242042  38.5766911  38.3834599  80.6254774  39.8765855
  38.9873844  79.8347040  40.0499404  37.3406378  80.9162018  40.8374701
  36.3723670  80.9278058  40.3370540  37.3097335  79.8676949  41.9242945
  37.1817205  78.9030138  41.4332727  38.2790160  79.8956351  42.4221004
  36.2209506  80.0605743  42.9388912  36.3618452  80.9939882  43.4838573
  35.2422570  80.0647745  42.4590546  36.3064932  78.8756622  43.9198253
  36.2431622  77.9509687  43.3462138  37.2691193  78.9214978  44.4290890
  35.1658654  78.9120377  44.9678978  34.1824508  78.9819495  44.5030228
  35.1918507  78.0495790  45.6339225  35.4332883  80.1466321  45.7470671
  35.4088284  80.9459704  45.1301719  34.7286898  80.2521510  46.4629629
  36.3443185  80.0818719  46.1782623  37.5307368  82.2956295  41.4515992
  36.5746345  83.0422940  41.5796559  38.7553706  82.6347523  41.8371647
  39.5263457  81.9846560  41.7817423  39.0029427  83.9603576  42.4182332
  38.3526926  84.1102418  43.2800967  40.4721669  84.0910993  42.8794152
  40.7410926  83.0397178  42.9812737  41.0012307  84.5201246  42.0284576
  40.8646443  84.8472925  44.1614789  41.1647655  84.1146399  44.9106440
  41.9418633  85.7680548  43.9348759  41.6423028  86.5013445  43.1861112
  42.1855430  86.2792757  44.8662052  42.8170793  85.2238775  43.5799557
  39.7397204  85.6548965  44.8875111  38.9386014  84.9775364  45.1832999
  40.1523166  86.1376170  45.7734267  39.3429252  86.4133300  44.2126546
  38.6466622  85.0725058  41.3808332  38.0304808  86.0939640  41.7214157
  39.0334886  84.8721794  40.1215414  39.4317678  83.9997746  39.8047089
  38.9028927  85.9646779  39.1587430  39.4029968  86.8437663  39.5651892
  39.5107118  85.6437187  37.8006590  39.0794558  84.6774559  37.5390224
  39.2426269  86.3782652  37.0412698  41.0407946  85.5184463  37.8741890
  41.2972123  84.9236050  38.7508387  41.6102174  84.8482349  36.6176413
  41.3545842  85.4427856  35.7405666  42.6944198  84.7758424  36.7034620
  41.1869025  83.8490899  36.5146157  41.7030987  86.8291113  38.1265889
  41.3519365  87.2377348  39.0741179  42.7831320  86.6886189  38.1700756
  41.4594101  87.5211321  37.3204735  37.4412748  86.2595999  38.9924415
  37.0886602  87.4008524  38.8935689  36.6276696  85.1876494  39.0084005
  37.0637696  84.2832325  39.1176995  35.2059669  85.2390150  38.8180776
  35.0680446  85.7549661  37.8678823  34.6093827  83.8304810  38.7021751
  34.7838490  83.3084692  39.6430074  33.0838793  83.8654826  38.4045040
  32.9086518  84.3869701  37.4635228  32.7040807  82.8464563  38.3307635
  32.5678317  84.3875986  39.2102275  35.1821986  83.2181464  37.5658594
  34.8269063  82.3318425  37.4666975  34.5818466  85.9949983  39.9395981
  33.6356043  86.7241846  39.7049990  35.0873333  85.8384803  41.1489559
  35.8310290  85.1877053  41.3575418  34.5217323  86.5939372  42.2293883
  33.4534744  86.3842146  42.2836151  35.1450438  86.2562002  43.5537287
  36.1004193  86.7734305  43.6422139  34.4812458  86.5806157  44.3551193
  35.3648926  84.7880566  43.6559776  34.6270857  84.2852839  43.0307085
  36.3646752  84.5843595  43.2725178  35.2556373  84.2765223  45.0737332
  35.8370396  84.9821928  45.9764727  34.5777293  83.1933762  45.2331109
  34.6665393  88.0707964  41.9869961  33.8546420  88.8384698  42.4862247
  35.6632645  88.4664108  41.2056081  36.2409633  87.7814699  40.7395401
  35.9588615  89.8751107  40.9961205  35.6043454  90.4674218  41.8396756
  37.4556473  90.0580429  40.8719834  37.8575672  89.1748721  40.3754263
  37.6515225  90.9388044  40.2604344  38.1105372  90.2212960  42.2027789
  38.4424228  89.1101654  43.0049495  38.2430193  88.1031367  42.6385742
  39.0141270  89.2909055  44.2421857  39.2717337  88.4450463  44.8795731
  39.2836642  90.6116051  44.6753269  39.8674228  90.9083426  45.8992100
  40.0681123  90.1262714  46.4185249  38.9534087  91.6820379  43.8851991
  39.1471059  92.6953302  44.2370806  38.3861281  91.4827817  42.6664991
  38.1398776  92.3356352  42.0339631  35.2922507  90.4034382  39.7220341
  35.4692134  91.5468596  39.3455696  34.5453731  89.5358931  39.0524459
  34.5031263  88.5630878  39.3207078  33.7672965  89.9670494  37.9124682
  32.8815185  89.3351796  37.8473757  33.4641743  91.0006291  38.0795887
  34.5263563  89.8825978  36.6135740  34.0226825  90.3168343  35.5903510
  35.7264209  89.3026679  36.6507655  36.0280823  88.8888986  37.5213370
  36.5839632  89.1890071  35.5138528  36.6047583  90.0838804  34.8918653
  37.9887089  88.9067213  36.0024195  37.9804854  87.9688055  36.5577081
  38.9758836  88.8000244  34.8344593  38.9850031  89.7377932  34.2789348
  39.9750189  88.5969415  35.2199284  38.6705404  87.9893648  34.1728717
  38.3765738  90.0171591  36.9832664  37.6794065  90.0224076  37.8211401
  39.3865791  89.8398137  37.3527762  38.3401722  90.9806911  36.4749536
  36.0798193  88.0016246  34.7206750  35.5904685  87.0301323  35.3339918
  36.1530400  88.0904471  33.3760988  36.3760598  88.9608843  32.9149041
  35.8325383  86.9049003  32.5312181  35.1092759  86.2834264  33.0591963
  35.2497679  87.2896565  31.1857445  35.2823240  86.4442780  30.4984494
  34.2193569  87.6272151  31.2971330  36.0453139  88.3545262  30.6673498
  35.7019629  88.6234200  29.8121270  37.0627310  86.0500265  32.3288700
  38.1286348  86.5447305  32.0237799  36.9053040  84.7555403  32.5299725
  35.9794893  84.3527102  32.5563249  38.0293806  83.8714711  32.5218305
  38.9204628  84.3046479  32.0674854  38.4239130  83.2573210  33.9175428
  37.8416566  82.3511880  34.0848743  39.9099898  82.9187379  33.9472665
  40.4929427  83.8245200  33.7804567  40.1673419  82.4952960  34.9181256
  40.1337612  82.1939615  33.1644976  38.0023841  84.0505251  35.0711626
  36.9171462  84.1521747  35.0658693  38.3157081  83.5529145  35.9889378
  38.4595951  85.0386724  35.0199377  37.5286568  82.6841899  31.7793508
  36.3845776  82.2690698  31.9316797  38.4196177  82.0987635  30.9993057
  39.3459306  82.4784127  30.8654765  38.1106560  80.8475206  30.3986786
  37.0912363  80.5373611  30.6282079  38.2379655  81.0273513  28.8831846
  37.3548297  81.6004956  28.6009151  39.1336077  81.6056294  28.6562055
  38.2659301  79.7259209  28.1043811  39.0762774  79.0865998  28.4546763
  36.9366420  79.0321348  28.3399801  36.1257816  79.6706952  27.9894880
  36.9170010  78.0885601  27.7946528  36.8111920  78.8382167  29.4052306
  38.5361349  79.9764141  26.6417716  39.5008717  80.4711671  26.5295143
  38.5508806  79.0269181  26.1066631  37.7521979  80.6124380  26.2306567
  39.2292700  79.9608556  30.9101215  40.3907961  80.3668409  30.8722005
  38.8655150  78.7713015  31.3790056  37.8848000  78.5970937  31.5461854
  39.8054252  77.7391712  31.7088616  40.8348036  78.0883715  31.7897215
  39.4082523  77.0255352  33.0570513  38.4057845  76.6128156  32.9438258
  40.3933625  75.8923209  33.4181640  41.3960349  76.3043727  33.5320160
  40.0843746  75.4259619  34.3536512  40.3959579  75.1456680  32.6240580
  39.2721668  78.0839306  34.2159361  38.5012258  78.8097284  33.9571514
  38.9975321  77.5772002  35.1410846  40.2234505  78.5982219  34.3525544
  39.8929368  76.7293625  30.5895484  38.8822066  76.1748740  30.1583453
  41.1113714  76.4424925  30.1639705  41.9292695  76.8832624  30.5600310
  41.2872163  75.5634956  29.0567613  40.3171942  75.2507928  28.6702729
  42.0503894  76.2739501  27.9420640  42.8938028  76.7484304  28.4436828
  42.4181707  75.5052095  27.2624502  41.2668668  77.3323612  27.1436002
  40.7550243  78.0142837  27.8226435  42.2583673  78.1104667  26.2980309
  42.7703062  77.4292392  25.6183644  41.7284921  78.8684092  25.7210940
  42.9893908  78.5933640  26.9465024  40.1337813  76.7680196  26.1977710
  39.3991796  76.2260131  26.7933285  39.6445682  77.5947381  25.6826901
  40.5748859  76.0934727  25.4639372  41.9690293  74.3490392  29.6072008
  43.1321460  74.3653351  30.0198302  41.2136327  73.2660336  29.7079568
  40.2471985  73.2363036  29.4160317  41.7771743  72.0872302  30.3508826
  42.7412694  72.3324448  30.7964043  40.8371966  71.5844310  31.4593793
  41.0179689  72.2149097  32.3299637  39.8203152  71.7439392  31.1007578
  41.0201430  70.0815982  31.8569396  40.2769324  69.8517052  32.6204107
  40.8049237  69.5065922  30.9563021  42.4159626  69.7147694  32.3758839
  43.1237038  70.5527800  32.9428220  42.8027505  68.5428153  32.2250476
  42.0337006  71.0651312  29.2937062  41.1265564  70.7325776  28.5489065
  43.2533016  70.5281258  29.2519368  43.9361088  70.8426434  29.9264384
  43.6653674  69.5432218  28.2590486  43.5729187  70.0280160  27.2871808
  45.1276303  69.1655746  28.4785113  45.2347177  68.6708615  29.4438565
  45.4517629  68.4901702  27.6867618  45.7422980  70.0655782  28.4618880
  42.8496309  68.2546357  28.2408688  42.6722797  67.6299302  27.1624609
  42.4905967  67.7653722  29.4127962  42.5249900  68.3728197  30.2189748
  41.9540877  66.3577888  29.5950599  42.4133357  65.6830155  28.8726531
  42.2819047  65.8603869  31.0068939  41.9805271  66.6569314  31.6871789
  41.6550054  64.9844112  31.1735191  43.7933068  65.4843756  31.2733955
  44.1872644  64.8314707  30.4945415  44.4194346  66.3730528  31.3528878
  43.7926690  64.7637049  32.5678862  43.5847042  65.5162076  33.3285369
  42.9620585  64.0596931  32.5173578  45.0040399  64.0337289  32.9487699
  45.0851180  63.0826722  32.6185930  45.9887831  64.5323162  33.7188722
  45.9625367  65.7993915  34.0775927  45.2031984  66.3916508  33.7730697
  46.7018711  66.1728654  34.6555213  47.0178955  63.7621605  34.1092117
  47.0573838  62.7943602  33.8230243  47.7474669  64.1544184  34.6871028
  40.4608459  66.4235445  29.4799905  39.9191744  67.5250893  29.5291036
  39.7987129  65.2517783  29.3530263  40.3189377  64.4165785  29.1251958
  38.3231089  65.1426285  29.5112296  37.8368073  65.9624335  28.9825240
  37.8033034  63.8023206  28.9321044  36.7226094  63.7252778  29.0515367
  38.0506746  63.8200832  27.8706940  38.4999782  62.5545675  29.6154591
  38.8708623  61.6052176  28.8627229  38.7386547  62.5214001  30.8813673
  37.8234265  65.2233321  30.9568219  36.6992354  64.8296450  31.2343590
  38.6223020  65.7307839  31.8894900  39.5606598  66.0090278  31.6401624
  38.1717124  65.9607899  33.2650202  37.1105159  66.2093224  33.2789069
  38.3881055  64.6871839  34.0940841  38.0372805  64.8830787  35.1073196
  37.7889547  63.8922460  33.6500210  39.9232919  64.2360129  34.1392413
  40.1764554  63.9007990  33.1334378  40.5006152  65.1285992  34.3802591
  40.2647434  63.0889426  35.1800389  39.8506079  63.3721796  36.1476998
  39.7927134  62.1675276  34.8390382  41.7381785  62.8442089  35.3401370
  42.1413931  62.1044134  34.7831630  42.5289694  63.5016494  36.1983536
  42.0009093  64.4237941  36.9935232  41.0115980  64.6213544  36.9452203
  42.5908018  64.9237346  37.6432816  43.8437324  63.2857302  36.2343392
  44.2595433  62.6142584  35.6047942  44.4181792  63.7945733  36.8909885
  39.0304407  67.0662873  33.8867638  40.1358881  67.3622273  33.4086471
  38.5838851  67.5693127  35.0298502  37.6501860  67.3242869  35.3269489
  39.3357962  68.5184880  35.8334576  40.1680858  68.9347242  35.2658832
  38.4515393  69.7041750  36.3723945  39.0349281  70.3163551  37.0601388
  37.9928298  70.5657502  35.1818069  37.4089469  69.9543261  34.4938081
  37.3792330  71.3904100  35.5444855  38.8650837  70.9633754  34.6629920
  37.2809377  69.2130174  37.1570238  37.6324265  68.6340637  38.0110556
  36.6972866  70.0630555  37.5104165  36.6569010  68.5826876  36.5234915
  40.0395684  67.8835081  36.9920310  39.7767625  66.7202674  37.3531613
  40.9683444  68.6401043  37.5744392  41.2882616  69.5151313  37.1844650
  41.5476556  68.1928382  38.8212338  41.5056503  69.0363941  39.5102535
  40.9139336  67.3880869  39.1938878  42.9814405  67.6944559  38.7361803
  43.6704466  67.6823383  39.7536914  43.4167284  67.2791620  37.5464974
  42.7319487  67.0240468  36.8492943  44.8334466  67.1736722  37.1981908
  44.9233998  66.9637188  36.1323920  45.3271319  68.1186826  37.4247510
  45.4997251  66.0813638  37.9662275  45.2219123  64.9119565  37.7360916
  46.3750618  66.4492958  38.8916889  46.6909402  67.4050335  38.9746689
  47.0250821  65.4428929  39.6926637  47.1194834  64.5288677  39.1063655
  48.4293481  65.8829725  40.1478066  48.3487571  66.9259086  40.4542190
  48.6871021  65.2699655  41.0114531  49.5161799  65.7478392  39.0863210
  49.7994866  64.6998296  38.9887817  49.1374474  66.1117020  38.1311939
  50.7383445  66.5697314  39.4959416  50.8030052  66.5337694  40.5834271
  51.6139793  66.0850069  39.0641948  50.7219318  67.9626485  39.0757293
  49.9894893  68.2285101  38.4331213  51.5583963  68.9103605  39.5190070
  52.4625962  68.5618198  40.4360036  52.4969866  67.6093920  40.7703665
  53.1085772  69.2519851  40.7916440  51.5391237  70.1987404  39.0028220
  50.8816290  70.4378393  38.2743768  52.1826806  70.8914304  39.3579470
  46.1729900  64.9487364  40.8785905  46.6314683  64.0722152  41.6520084
  44.9598648  65.5100022  41.0122647  44.7688418  66.3766585  40.5300651
  43.9335093  64.9633711  41.8730567  44.3415323  64.1564473  42.4817359
  43.2745165  65.9769439  42.7901546  42.6062089  65.4603532  43.4790664
  44.3745615  66.7476856  43.6067697  45.0430176  67.2649401  42.9185010
  43.8973027  67.4745145  44.2640694  44.9472330  66.0388011  44.2047920
  42.4624234  66.8640360  42.0083200  42.0437924  67.5068854  42.5854622
  42.9248607  64.3098838  40.9319704  42.6787179  64.7991358  39.8528809
  42.4573875  63.1175788  41.2783843  42.6708970  62.7168915  42.1805831
  41.5951601  62.3754195  40.3851740  40.9125934  63.0642002  39.8873960
  42.3926081  61.6398418  39.3319038  43.0555439  62.3594789  38.8515520
  42.9860857  60.9188031  39.8940315  41.5781652  60.9081397  38.2664487
  40.2203830  61.1481718  38.1045349  39.7238555  61.8673756  38.7559226
  39.4846707  60.4728189  37.1104047  38.4174970  60.6625552  36.9953294
  40.1308199  59.5635870  36.2605156  39.4031700  58.9068520  35.2795524
  38.4745928  59.1504158  35.2750169  41.4900033  59.3093381  36.4030923
  42.0005520  58.5875602  35.7655367  42.2086713  60.0053309  37.3948793
  43.2822783  59.8493899  37.5004751  40.9291991  61.4050741  41.3240434
  41.5882194  60.5304604  41.8073902  39.6401404  61.6264138  41.6093037
  39.2109578  62.4774930  41.2752889  38.8107744  60.6688387  42.3111925
  39.4125101  60.0594261  42.9854547  37.7231941  61.3604032  43.1206409
  37.0653233  61.9093163  42.4468452  36.9221961  60.3345577  43.8786048
  37.5793534  59.7855186  44.5529934  36.1448554  60.8343544  44.4565700
  36.4618715  59.6403347  43.1755712  38.3019810  62.3239161  44.0444626
  37.6011640  62.7485010  44.5446461  38.0989728  59.8212029  41.2852993
  37.2485312  60.3348993  40.5345303  38.4230631  58.5228252  41.2805283
  39.1236849  58.2046593  41.9347446  37.7562725  57.5338297  40.4497388
  37.6478888  58.0016460  39.4712194  38.6239432  56.2793179  40.3218372
  39.3688427  56.2683983  41.1175167  37.7520719  55.0547987  40.4334354
  37.0071641  55.0647794  39.6377511  38.3679912  54.1600943  40.3426162
  37.2496851  55.0527755  41.4007526  39.2559368  56.1786390  38.9605581
  39.7983293  55.2338303  38.9252359  38.4475691  56.1604705  38.2295923
  40.1649698  57.2710672  38.6506346  40.9739145  57.2895893  39.3809532
  40.5800009  57.1271692  37.6530666  39.6231544  58.2162303  38.6853120
  36.5006601  57.1382489  41.2073267  36.5013001  57.1314946  42.4469105
  35.4355300  56.8339892  40.4820435  35.4822008  56.9538150  39.4802636
  34.1611699  56.3682934  41.0746393  34.3445654  56.0649049  42.1053772
  33.0791972  57.4504409  41.0685587  32.9114493  57.7551753  40.0355549
  32.1643550  57.0162729  41.4718725  33.4723854  58.6637986  41.8972770
  33.5817731  58.3373337  42.9314703  34.4328701  59.0213549  41.5261641
  32.4608172  59.7782512  41.8270903  32.3555808  60.1080542  40.7935264
  31.4990437  59.4187234  42.1929194  32.8779795  60.9248716  42.6472435
  32.5058889  60.9467011  43.5859508  33.7006845  61.9188782  42.2583664
  34.2250005  61.9286114  41.0478046  34.0093204  61.1831472  40.4013796
  34.8396574  62.6814804  40.7730596  33.9982743  62.9219825  43.0899890
  33.6037144  62.9371349  44.0196088  34.6163528  63.6602653  42.7850033
  33.7401742  55.1488575  40.2533910  33.6066511  55.2258633  39.0393574
  33.6662018  54.0165585  40.9205500  34.1539968  53.9163090  41.7992453
  32.9621974  52.8941243  40.4094529  32.1747492  53.2388682  39.7392468
  33.8833865  51.9572696  39.6372426  33.3194637  51.0796175  39.3213041
  34.2438035  52.4925187  38.7587735  35.0849518  51.4962027  40.4535729
  34.9389282  50.8510071  41.4654606  36.2840710  51.8219107  39.9894732
  37.1116408  51.5393188  40.4948144  36.3640508  52.3510130  39.1328783
  32.3396889  52.2520789  41.6241936  32.4459066  52.7763284  42.7623562
  31.6755215  51.1256460  41.4039195  31.6189198  50.7070398  40.4864968
  30.9240772  50.5235853  42.4777851  30.5687332  51.2811559  43.1762954
  29.7128575  49.8090107  41.8733385  28.8296578  50.1914627  42.3849907
  29.6714736  50.0879798  40.8204550  29.7520799  48.2961332  41.9945086
  30.0904573  48.0579234  43.0029022  28.7356904  47.9274218  41.8562937
  30.6597952  47.6439042  40.9962394  30.8485350  48.3029206  39.9349319
  31.1600015  46.5037600  41.2791650  31.8547555  49.5960699  43.2969493
  31.5260780  49.1735638  44.4110326  33.0220216  49.2764297  42.7547657
  33.2316322  49.4554068  41.7831022  34.0145625  48.5444262  43.5598195
  33.5372990  47.6881004  44.0362907  35.1476399  48.0474416  42.7002842
  35.5738833  48.8836097  42.1459929  35.9273018  47.5710639  43.2946677
  34.7098989  47.0445971  41.6890550  34.3745762  45.7520200  42.0316266
  34.0167656  45.0878170  40.9466340  33.7253300  44.0391297  41.0051081
  34.0932945  45.9120332  39.9127442  33.8727854  45.6831665  38.9540494
  34.5252514  47.1446056  40.3517526  34.6516570  47.9622917  39.6421667
  34.5637223  49.3638200  44.7381464  34.8006825  48.8278468  45.8220120
  34.7074985  50.6695985  44.5343720  34.3404919  51.0876202  43.6913636
  35.4350862  51.5114545  45.4555590  35.8377881  50.9270122  46.2828181
  36.6292757  52.2062620  44.7026214  37.2083590  52.7991583  45.4106013
  37.5177181  51.1548362  44.0820854  36.9394082  50.5617931  43.3735951
  38.3441924  51.6381621  43.5610894  37.9118217  50.5044594  44.8629785
  36.1000309  53.1635292  43.5855580  35.4721793  53.9336296  44.0337207
  36.9433612  53.6325336  43.0786769  35.5150400  52.5927692  42.8643649
  34.4816901  52.5319299  46.0757848  34.8040546  53.1134128  47.0723638
  33.2856749  52.6794846  45.5072109  32.9396100  51.9272628  44.9288504
  32.4564471  53.8764103  45.6586707  31.5181028  53.7332945  45.1228284
  32.1449011  54.1590587  47.1125696  31.7235063  53.2582623  47.5587663
  33.0849452  54.4033675  47.6072719  31.1658198  55.3159146  47.2824237
  30.8391834  56.0485124  46.2829554  30.7080663  55.4860371  48.4249976
  33.2194562  55.0762168  45.0436768  32.9126244  55.5031368  43.9393569
  34.2167388  55.5964109  45.7485879  34.3385874  55.3090700  46.7091541
  35.1480630  56.5766774  45.1954425  35.1743756  56.4900936  44.1092058
  34.7108091  57.9913840  45.5611589  35.4660511  58.6383059  45.1148398
  33.7363837  58.2197681  45.1293769  34.6667571  58.2256353  47.0640750
  35.7807695  58.7344548  47.7368337  36.6715059  58.9845984  47.1605385
  35.7680182  58.9254546  49.1287067  36.6572748  59.3125014  49.6262199
  34.6536808  58.6116153  49.8629123  34.6813926  58.8606733  51.2414069
  35.5120062  59.2402539  51.5373786  33.5368599  58.0809319  49.2292443
  32.6499527  57.8282271  49.8103092  33.5504038  57.8684390  47.8300626
  32.6859378  57.4225640  47.3381337  36.5483031  56.2817471  45.7872022
  36.6309618  55.6869323  46.8601733  37.6257645  56.6486342  45.0864642
  37.5067164  56.9423847  44.1274868  38.9681951  56.5482084  45.6103122
  38.9708275  56.8515850  46.6572386  39.6227399  55.1451434  45.4988202
  39.0413206  54.4463893  46.1003130  39.6664900  54.6799971  44.1245761
  40.2481711  55.3780485  43.5225194  40.1315439  53.6948444  44.0885271
  38.6526540  54.6172997  43.7292190  41.0733162  55.1129381  46.0874485
  41.0441980  55.3868880  47.1420601  41.4855198  54.1091416  45.9845875
  41.7014657  55.8203373  45.5460471  39.8090391  57.6278158  44.8939531
  39.6541568  57.8623096  43.6993698  40.7066830  58.2411593  45.6145911
  40.7881049  58.0339485  46.5997477  41.6212766  59.2235552  45.0350345
  41.1279115  59.8256101  44.2720010  42.0674123  60.1378168  46.1604547
  42.1204017  59.5288194  47.0629034  43.0557241  60.5380607  45.9343030
  41.1026376  61.2756046  46.3783580  40.8244958  61.9972934  45.3683420
  40.6415368  61.4888577  47.5193358  42.7688241  58.4832407  44.4665786
  43.4109695  57.7621095  45.1844149  43.0391375  58.6124834  43.1706403
  42.4048740  59.0451471  42.5144305  44.2195010  57.9342880  42.6469095
  44.6904601  57.2660865  43.3678835  43.9377771  57.1404143  41.3467395
  44.8893408  56.8618540  40.8939371  43.0768782  55.8056186  41.6563066
  42.1249119  56.0834208  42.1087301  42.8933003  55.2672630  40.7264825
  43.6317159  55.1658042  42.3425239  43.2999255  57.9808902  40.2849694
  43.9595783  58.8112424  40.0330261  43.1250998  57.3739644  39.3966132
  42.3499613  58.3703626  40.6510024  45.3880684  58.9520550  42.5275053
  46.5150877  58.6202736  42.1463707  45.1125013  60.1963298  42.8925767
  44.2075291  60.4372852  43.2708161  46.1016408  61.2445605  42.7590802
  47.0945456  60.8814046  42.4938310  45.8105549  62.0393261  42.0722645
  46.1396192  61.7943006  44.1533828  45.9304095  61.0742376  45.1147888
  46.4108358  63.0901099  44.2650281  46.5418573  63.6521665  43.4361583
  46.5270719  63.7357392  45.5595960  47.3971565  63.3255536  46.0722360
  46.6704242  64.8044123  45.3999490  45.3004112  63.5264872  46.4252968
  44.1742234  63.5099361  45.9295820  45.5204467  63.3657298  47.7258941
  46.4335369  63.5622039  48.1102945  44.4915093  62.8462276  48.6190953
  43.5195341  62.9708903  48.1417877  44.7172182  61.3655601  48.8824988
  45.6827371  61.2255075  49.3685631  43.9266222  60.9865512  49.5301178
  44.7043030  60.8218463  47.9378784  44.4573635  63.6230187  49.9308634
  43.3871785  63.9837579  50.4220948  45.6338334  63.8761408  50.4943338
  46.4727210  63.8757808  49.9318689  45.7633953  64.1040388  51.9288624
  44.8658981  63.7565506  52.4405751  46.9686032  63.3436249  52.4850616
  47.8531189  63.7168343  51.9688776  47.0398296  63.5827285  53.5461254
  46.8792545  61.8434323  52.3114360  47.7338302  61.1728907  51.4466352
  48.4752220  61.7462225  50.8901028  47.6563101  59.8024848  51.2850297
  48.3332960  59.2883049  50.6028193  46.7155851  59.0858572  51.9925291
  46.6342209  57.7210898  51.8347221  47.2773615  57.3766316  51.2107684
  45.8554992  59.7276350  52.8578577  45.1116626  59.1611354  53.4181128
  45.9408061  61.0988587  53.0127032  45.2640096  61.6134514  53.6947890
  45.8928365  65.5916570  52.2412341  46.3832531  66.3678674  51.4210482
  45.4501540  65.9812327  53.4318617  45.0699262  65.3009445  54.0743055
  45.5779245  67.3236173  53.8717812  46.3941953  67.7990458  53.3279348
  44.2581383  68.1628173  53.6373669  44.3118203  69.0844571  54.2168473
  44.1092107  68.4995606  52.1640803  44.0549929  67.5783525  51.5839622
  43.1974088  69.0774730  52.0132989  44.9681857  69.0849031  51.8359984
  43.0239438  67.4098390  54.0707600  43.0942062  67.1768900  55.1332571
  42.1414013  68.0239253  53.8915495  42.9436458  66.4841382  53.5009082
  45.7697832  67.2070648  55.3433493  45.4358859  66.1719269  55.9488905
  46.3087185  68.2552240  55.9340166  46.6248971  69.0583359  55.4094771
  46.4556056  68.2726078  57.3368491  45.5321696  67.9366855  57.8085707
  47.2732494  67.6142263  57.6302629  46.7619963  69.6703223  57.8009021
  46.8003764  70.6065918  57.0017179  46.9552109  69.8139841  59.1118725
  46.8796459  68.6867071  60.0853536  47.5930153  67.9104728  59.8084699
  45.8728108  68.2691446  60.0902221  47.2342119  69.3641980  61.4040188
  47.9183002  68.7073270  61.9412736  46.3142703  69.4773319  61.9776123
  47.8724976  70.7249371  61.1220801  48.9576383  70.6627666  61.0402045
  47.6073559  71.4691279  61.8730659  47.2608296  71.1166622  59.7486000
  46.3131596  71.6438873  59.8583888  48.2274821  71.9786832  58.9860413
  49.2811944  71.5079778  58.4705186  47.9048838  73.2571298  58.9584623
  46.9932129  73.5240816  59.3015253  48.7823534  74.3274154  58.3438168
  48.4567986  75.3221228  58.6482349  50.3184866  74.2111470  58.5828047
  50.7706252  75.1637344  58.3066738  50.6765513  73.8769491  60.0496709
  50.2251160  72.9242018  60.3263988  51.7594726  73.8090634  60.1534595
  50.2977958  74.6616951  60.7045133  50.9404273  73.2659133  57.6610281
  51.8830592  73.2204516  57.8370354  48.5087906  74.3966619  56.8629430
  49.0073207  75.3217988  56.1932001  47.7514868  73.4140007  56.3323604
  47.5473703  72.5878171  56.8762873  47.3018338  73.4525641  54.9010020
  48.0186056  74.0391694  54.3263442  47.1956785  72.0603822  54.2749239
  46.6192111  71.4360645  54.9575746  46.6555306  72.1635196  53.3338059
  48.5249893  71.4235161  54.0193378  49.1000060  72.0746252  53.3609203
  49.0495522  71.3125455  54.9683486  48.4112444  70.1128397  53.3943781
  47.2949397  69.6387679  53.1002596  49.5674278  69.4612170  53.1645048
  49.5517760  68.5480208  52.7333099  50.4448046  69.8887471  53.4243689
  45.9782114  74.2395311  54.7981590  44.9509935  73.7509943  54.3047585
  46.0531284  75.4950581  55.1971609  46.9579316  75.8554591  55.4646335
  44.8612276  76.3495739  55.4216810  44.0937425  75.7900125  55.9564303
  45.2563658  77.5958067  56.2757060  46.0392899  78.1999314  55.8172713
  44.3443294  78.1867883  56.3595544  45.7056023  77.1962629  57.6701594
  45.1569602  76.2444856  58.2576522  46.7536153  77.8291309  58.1770173
  47.0838497  77.5926068  59.1017342  47.2173807  78.5451299  57.6363068
  44.1078974  76.7391974  54.1788508  42.8755990  76.8560006  54.1986466
  44.8124139  76.9630993  53.0673070  45.8223353  76.9560317  53.0569128
  44.1239280  77.3384147  51.8694821  43.4413374  78.1619541  52.0791298
  45.0855428  77.7736063  50.8321686  45.9438612  77.1018332  50.8426358
  44.5992068  77.7257302  49.8578559  45.5386638  79.1537112  51.0878105
  44.7218768  79.8287294  50.8322516  45.7636578  79.2424793  52.1506369
  46.7090867  79.5019008  50.3177792  47.5132875  78.7829886  50.4743855
  46.4785988  79.5624617  49.2541500  47.1626077  80.8246723  50.7781911
  46.6001867  81.6178096  50.5048501  48.2397647  81.0388840  51.5416413
  49.0412675  80.0277697  51.8863543  48.8336532  79.0918445  51.5684860
  49.8513612  80.2036505  52.4633410  48.5366307  82.2733743  51.9461280
  47.9459162  83.0462594  51.6744571  49.3509913  82.4305003  52.5225193
  43.2375597  76.1923313  51.4169095  42.0762590  76.4051254  51.1738839
  43.7631637  74.9612444  51.3324315  44.7324204  74.7890174  51.5582159
  42.9922491  73.8839401  50.7577079  42.3628432  74.1507293  49.9087257
  43.8382536  72.6213561  50.4013542  44.5289224  72.9164510  49.6114200
  44.6133116  72.0389019  51.5535739  43.9232331  71.7431248  52.3437688
  45.1705635  71.1661828  51.2130854  45.3079574  72.7851917  51.9390840
  43.0104055  71.5681816  49.6113022  43.6133954  70.6646831  49.5207795
  42.1103566  71.3476978  50.1852346  42.6073132  72.0739377  48.1795974
  43.5069123  72.2941986  47.6048745  42.0310801  71.3018070  47.6698241
  42.0038751  72.9772152  48.2693297  41.8186015  73.5479340  51.6256481
  40.7445921  73.2589386  51.1109217  41.9961782  73.6215516  52.9386813
  42.9122434  73.8413771  53.3028248  40.9038948  73.3720007  53.8977883
  40.4668702  72.3916664  53.7079108  41.4231017  73.4050611  55.3337598
  41.9437656  74.3626338  55.3416914  40.6196541  73.4228330  56.0701402
  42.4041317  72.2908060  55.6794485  43.0754386  72.1542766  54.8316232
  43.2579332  72.6252642  56.9847871  42.5872959  72.7614815  57.8331911
  43.9428806  71.8030879  57.1920888  43.8278454  73.5400809  56.8222733
  41.6566287  70.9480630  55.7488485  41.1957527  70.7378915  54.7836954
  42.3596443  70.1526190  55.9961119  40.8840926  71.0009262  56.5159812
  39.8090000  74.4140827  53.7446065  38.6541740  74.0732530  53.7541928
  40.1924293  75.6845625  53.5961984  41.1741835  75.9124977  53.6618005
  39.2284278  76.7875867  53.4263133  38.4396086  76.6940009  54.1727080
  39.9129492  78.1784264  53.5964002  40.2327102  78.2501646  54.6359702
  40.7879831  78.1834884  52.9464848  39.0316210  79.3527127  53.2603952
  38.0001719  79.0412674  53.4253663  39.2834674  80.1554921  53.9533747
  39.1891723  79.8511376  51.8256795  38.9596809  79.0424974  51.1317532
  38.5066089  80.6830114  51.6519194  40.5560756  80.3071727  51.5780176
  41.0446184  80.7263702  52.3562841  41.1838626  80.2115932  50.4147317
  40.6016184  79.6982720  49.3359184  39.6493666  79.3659564  49.3896115
  41.1140728  79.6428493  48.4673457  42.4195836  80.6344384  50.3347291
  42.8710940  81.0225895  51.1505583  42.9161159  80.5706956  49.4575227
  38.5449281  76.6497780  52.0561725  37.3294135  76.6860375  51.9750524
  39.3292301  76.5096362  50.9831708  40.3261156  76.6570639  51.0508741
  38.7567672  76.2581390  49.6693392  38.1142282  77.0971836  49.4024181
  39.8173463  76.0921245  48.5852672  40.2609183  77.0877744  48.5803182
  40.5823184  75.3553445  48.8303650  39.2364932  75.7841113  47.1978316
  38.7702415  74.8026235  47.2838072  38.2115207  76.7932084  46.6325868
  38.6772148  77.7748959  46.5458834  37.8786210  76.4614222  45.6491254
  37.3547782  76.8560428  47.3035149  40.2777281  75.4969878  46.0907296
  40.8785129  74.6320185  46.3717727  39.7633849  75.2918895  45.1518541
  40.9261155  76.3644239  45.9672495  37.8197275  75.0718187  49.6798685
  36.6944375  75.1484511  49.2054857  38.2600700  73.9467743  50.2175613
  39.2240342  73.8243192  50.4930192  37.3682431  72.7704630  50.2489861
  36.8744332  72.6665522  49.2828321  38.1390226  71.4970146  50.5386998
  37.4720289  70.6402511  50.4429145  38.9587843  71.3999901  49.8268873
  38.6567315  71.5441020  51.8462384  39.1440040  70.7368895  52.0267194
  36.1686930  72.9133268  51.1499075  35.0735565  72.5728955  50.7907189
  36.3485159  73.4224519  52.3402577  37.2705204  73.5704405  52.7251034
  35.1830796  73.6939378  53.1969231  34.6641214  72.7657888  53.4363412
  35.6508450  74.3413330  54.4987022  36.1488178  73.5578640  55.0699279
  36.3775952  75.1039615  54.2188239  34.5905158  74.9518778  55.3227864
  34.4211836  75.9830583  55.0127956  33.6643391  74.3860357  55.2221802
  35.0191558  74.9285472  56.6942081  35.0695127  73.8951226  57.0371318
  36.0063953  75.3843620  56.7696430  34.0407048  75.6988649  57.5559031
  34.0195115  76.7429272  57.2435164  33.0442042  75.2692166  57.4534919
  34.4713902  75.6157293  58.9728899  35.3945737  76.0141900  59.0680796
  33.8221525  76.1280057  59.5526858  34.4906835  74.6483882  59.2626796
  34.1300328  74.5508188  52.4630216  32.9523201  74.1556625  52.3726588
  34.5632051  75.6749177  51.8553791  35.5012672  76.0256619  51.9862118
  33.5866506  76.5321483  51.1528272  32.7474563  76.7138932  51.8242592
  34.1644914  77.8899356  50.7080029  33.3107134  78.5658943  50.7553559
  34.8726284  78.1440582  51.4967130  34.8341579  78.0239781  49.3733991
  35.4502115  77.1542894  49.1448814  34.0249950  78.0964693  48.6466946
  35.7381766  79.3548536  49.3041554  35.3911425  80.3204904  50.0529029
  36.8147910  79.4278204  48.5807866  32.8799825  75.8123395  50.0342578
  31.8471354  76.2430134  49.5333057  33.4348496  74.7239912  49.6029709
  34.3334885  74.4089503  49.9395668  32.7800812  73.9519066  48.5323875
  32.1127586  74.5799580  47.9421917  33.8660879  73.4214708  47.6301163
  34.5737069  72.9471984  48.3101458  33.4025176  72.6615988  47.0009922
  34.6232336  74.4571527  46.7268210  35.0737897  75.2464028  47.3286384
  35.6747361  73.7089771  46.0383460  35.2248904  72.9197884  45.4359186
  36.2371761  74.3828313  45.3920624  36.3468461  73.2659700  46.7732700
  33.7564504  75.1585666  45.7229827  32.9696774  75.7065622  46.2414309
  34.3619635  75.8550039  45.1429566  33.3070896  74.4244411  45.0542275
  31.8954789  72.8277927  49.0738713  31.3883588  71.9736013  48.3061863
  31.7141062  72.8156419  50.3889418  32.1292188  73.5339473  50.9649785
  30.9174608  71.7758905  51.0426911  30.6727054  72.1330160  52.0430187
  30.0004768  71.6563097  50.4656815  31.6142083  70.4211386  51.1551875
  30.9407781  69.3815672  51.3354984  32.9619071  70.4155921  51.0672838
  33.4207259  71.2432394  50.7143184  33.7831295  69.1665102  51.2486703
  33.1569888  68.2755481  51.2014108  34.8844063  69.0718720  50.1917114
  35.5475492  69.9278916  50.3165012  35.7017986  67.7653285  50.3126206
  35.0393658  66.9088120  50.1874694  36.4712118  67.7447534  49.5408171
  36.1719735  67.7198754  51.2949488  34.2053881  69.1928305  48.8439869
  33.9038274  68.1904565  48.5399996  33.3191890  69.8126775  48.9801500
  35.0699709  69.7894636  47.7934283  35.9562122  69.1698748  47.6563661
  34.5173623  69.8447858  46.8555251  35.3715758  70.7920956  48.0965179
  34.2559423  68.9804389  52.6965527  34.8170013  69.8922454  53.3135159
  33.9528346  67.8218891  53.2658243  33.4748235  67.1014283  52.7437698
  34.3781488  67.5208790  54.6382815  34.5205970  68.4412062  55.2046786
  33.2957239  66.6876641  55.3243682  33.1687473  65.8059990  54.6961620
  33.7231534  66.3919780  56.2824777  31.9679636  67.3332085  55.5499495
  32.0612350  68.1526857  56.2625913  31.5983635  67.7189349  54.5998390
  30.9626856  66.2684905  56.1075423  30.6483358  65.2728002  55.3666840
  30.5081808  66.4251733  57.2886236  35.6380319  66.6512834  54.6105150
  35.8047802  65.8459952  53.6984937  36.4914704  66.7964277  55.6157517
  36.3379743  67.5274017  56.2956159  37.6560922  65.9232892  55.7853725
  37.8912414  65.4540814  54.8300464  38.8956676  66.6667954  56.2826374
  39.7398697  65.9774131  56.2694075  39.2184545  67.8969589  55.3918831
  38.3748385  68.5870604  55.4049874  40.1055657  68.4010687  55.7752969
  39.4018743  67.5675436  54.3691694  38.6417094  67.0922967  57.6272537
  39.4074857  67.5633555  57.9638402  37.3456603  64.8466633  56.8000606
  36.4237335  64.9943157  57.6015315  38.1424081  63.7791820  56.7818795
  38.7409624  63.5947964  55.9895197  38.0954711  62.8086403  57.8407330
  37.6977191  63.2743841  58.7423845  37.2015322  61.6240842  57.4670941
  37.0781429  61.0334824  58.3748737  36.2441117  62.0635358  57.1872220
  37.6881404  60.7404690  56.3590104  38.4544900  59.5886427  56.6277141
  38.7005710  59.3448711  57.6612125  38.8970540  58.7650026  55.5924252
  39.5058126  57.8825380  55.7893287  38.5485873  59.0987688  54.2704406
  38.9230904  58.3103386  53.1740291  39.4320575  57.5360844  53.4251916
  37.7873623  60.2592864  54.0021826  37.5315647  60.5299113  52.9777656
  37.3747835  61.0384655  55.0324605  36.7785934  61.9297757  54.8369519
  39.5186829  62.4056217  58.1625886  40.4084951  62.5345137  57.3185288
  39.7429870  61.9325281  59.3751360  38.9834320  61.8636461  60.0372770
  41.0741087  61.5621098  59.8149773  41.8013378  62.3003046  59.4768865
  41.1134039  61.5014868  61.3397644  40.1908278  61.0186616  61.6619948
  41.9640023  60.8760144  61.6106274  41.2440260  62.8757079  62.0325343
  41.9940756  63.4552583  61.4943449  40.2799420  63.3800134  61.9668072
  41.6664316  62.7462197  63.5444362  42.0774855  61.7505801  63.7112758
  42.4283477  63.4945392  63.7626129  40.4782432  62.9585459  64.4522042
  39.5713644  62.8899683  63.8513977  40.4759488  62.1692927  65.2039842
  40.5291872  64.3292869  65.1484821  40.5308861  65.0607779  64.4520499
  39.7208869  64.4341520  65.7449331  41.3692357  64.3928732  65.7055947
  41.5565504  60.2238511  59.2293454  40.8161368  59.2455111  59.2280691
  42.8180689  60.1895716  58.7675348  43.3070026  61.0633255  58.6348805
  43.4787455  58.9584436  58.3535780  42.8880833  58.3665379  57.6543892
  44.8379702  59.2792357  57.7015606  45.3687830  59.9534719  58.3736786
  45.6998636  58.0450117  57.4329180  45.1698698  57.3704716  56.7604575
  46.6398979  58.3506513  56.9735485  45.9050617  57.5328922  58.3729867
  44.6542473  60.0583537  56.4133144  44.1393488  60.9954362  56.6251113
  45.6291082  60.2711426  55.9746043  44.0620569  59.4692072  55.7130874
  43.6178448  57.9792661  59.5463939  43.8033248  58.4039873  60.6976932
  43.5192036  56.6638134  59.3076389  43.3560543  56.2682068  58.3927744
  43.5545338  55.7546569  60.4649860  42.9970128  56.2011466  61.2883428
  42.9368924  54.3976112  60.1368229  41.9410790  54.5535278  59.7219195
  43.5542237  53.8697358  59.4099462  42.8152604  53.5467038  61.3729286
  41.9840051  53.8131397  62.2393699  43.6450421  52.5293319  61.4785974
  43.6024921  51.9290551  62.2897429  44.3200486  52.3541702  60.7479913
  44.9522223  55.5221565  61.0712710  45.8235323  55.0144356  60.4310997
  45.1697262  55.9293704  62.3057146  44.5341656  56.5721260  62.7563001
  46.4019375  55.6013784  62.9792132  46.8597901  54.6662915  62.6565947
  47.4732758  56.7400495  62.8899537  48.1897900  56.6205800  63.7026244
  48.2071696  56.6719966  61.5494091  47.4913219  56.7918595  60.7362080
  48.9492116  57.4688844  61.4999735  48.7046267  55.7066857  61.4555323
  46.9158411  58.1319286  63.1934651  46.5081578  58.1481459  64.2042239
  47.7144616  58.8693214  63.1124911  46.1271471  58.3714819  62.4802493
  46.1061163  55.1625362  64.4043200  46.9327639  55.3105062  65.2990069
  44.9029130  54.6385532  64.6265575  44.1888544  54.6771207  63.9133027
  44.5462002  54.0955864  65.9350482  44.7405909  54.8436860  66.7035913
  43.0733795  53.7130410  65.9898584  42.4992214  54.5873143  65.6831208
  42.9200945  52.9079176  65.2712625  42.6374653  53.2867205  67.2827678
  41.7048952  53.0615634  67.2478804  45.4496672  52.9321839  66.2844105
  45.8561911  52.8122999  67.4168963  45.8465800  52.1255889  65.3092501
  45.5096311  52.2102920  64.3608883  46.6776991  50.9636510  65.6519313
  46.6504624  50.8072061  66.7303015  46.1830884  49.7027793  64.9661706
  46.3458764  49.8079781  63.8935419  46.7619199  48.8581473  65.3398696
  44.7069046  49.4621945  65.2328059  44.5034498  48.3941409  65.1555501
  44.5055317  49.7972246  66.2503043  43.8001104  50.2301748  64.2502524
  44.3438213  50.7759360  63.2748155  42.5615646  50.2831309  64.4179993
  48.1501719  51.2179401  65.4075316  48.5712898  52.3847288  65.1987190
  48.9350900  50.1472299  65.4290322  48.5442581  49.2487372  65.6741050
  50.3920072  50.2589086  65.2950242  50.7301674  51.1803541  65.7690337
  51.1058506  49.0713931  65.9637271  50.6417099  48.1646693  65.5757521
  52.1479319  49.1098869  65.6464184  51.0370218  49.0644026  67.5243016
  51.6604839  49.8778135  67.8954600  50.0020090  49.2368620  67.8194429
  51.5125388  47.7651093  68.1050996  52.5930343  47.6924202  67.9812261
  51.2663124  47.7367145  69.1665448  50.8782522  46.6010201  67.4386472
  50.0065639  46.7456707  66.9494284  51.3927997  45.3626630  67.4772420
  52.5311780  45.1510834  68.1307027  52.9966481  45.9206594  68.5902572
  52.9252564  44.2217523  68.1645508  50.8009266  44.3417911  66.8509378
  49.9468340  44.4968667  66.3346264  51.2102577  43.4195872  66.8966175
  50.8648667  50.5046138  63.8550666  50.3966138  49.8906617  62.8872505
  51.7383899  51.4897410  63.7079759  51.9083371  52.1458282  64.4568196
  52.4857426  51.6524821  62.4596754  51.7985235  51.6492693  61.6136147
  53.2472470  52.9753399  62.4645017  53.6407460  53.0435396  63.4787041
  54.0735715  52.9796346  61.7536787  52.3266059  54.1804109  62.1888605
  51.6281807  53.8777483  61.4086692  51.5460868  54.6659786  63.4108240
  52.2438893  54.9692705  64.1913267  50.9233425  55.5155950  63.1307487
  50.9138578  53.8596901  63.7826919  53.1834775  55.2304745  61.5928645
  53.6265647  54.8577643  60.6693602  52.5806383  56.1123132  61.3759621
  53.9749607  55.4955076  62.2938715  53.4382401  50.4728682  62.4222765
  53.5937912  49.8318041  63.4333792  53.9939142  50.1492468  61.2557305
  53.6010025  50.5165241  60.4008462  55.0803901  49.1970040  61.1583050
  55.6123142  49.1465364  62.1083624  54.6703555  47.7792368  60.7512856
  55.5369201  47.1205287  60.8084585  53.6241194  47.2903573  61.6568159
  52.7569917  47.9483427  61.5998453  53.3334047  46.2809959  61.3656545
  54.0037613  47.2781013  62.6784926  54.1940282  47.6917462  59.3070863
  54.9950911  48.0098473  58.6398443  53.9172061  46.6629084  59.0769519
  53.3284519  48.3397910  59.1695493  56.1893207  49.6213529  60.2495818
  55.9940373  50.3399409  59.3009082  57.3819870  49.1347996  60.5882216
  57.4767609  48.6348507  61.4606712  58.5581636  49.3269015  59.7803413
  58.3117566  49.9777997  58.9414646  59.7008817  49.9650700  60.5757817
  59.3373435  50.8569550  61.0861546  60.0759577  49.2535740  61.3114388
  60.8142996  50.3452415  59.6310833  61.0263162  49.4978173  58.9791461
  60.4424432  51.1780542  59.0342184  62.0800516  50.7633270  60.2948721
  62.3486998  50.4805356  61.5001621  62.9148597  51.4301283  59.5062312
  63.7993146  51.7538611  59.8709750  62.6614903  51.6104709  58.5453036
  58.9643497  47.9737723  59.2441255  59.0909619  47.0321954  59.9930763
  59.1225806  47.8507513  57.9412219  58.8542792  48.5717223  57.2867645
  59.6072618  46.5836395  57.4120446  59.6306611  45.8450235  58.2132925
  58.7014674  46.0568838  56.2834640  57.6893059  45.9749858  56.6795966
  58.7164787  46.7872605  55.4744989  59.1491658  44.7024980  55.7521628
  58.8201308  43.4984740  56.4069263  58.2283130  43.5414484  57.3212590
  59.2401965  42.2609750  55.9018719  58.9933780  41.3216711  56.3967362
  60.0118124  42.2567872  54.7713850  60.4977322  41.1064919  54.2003705
  60.2396215  40.3135785  54.6760456  60.3236861  43.4242323  54.1095876
  60.9111916  43.3805463  53.1925111  59.9048751  44.6236263  54.5916544
  60.1620506  45.5425828  54.0648907  61.0571709  46.8307428  56.9838291
  61.2670174  47.5931765  56.0683722  62.0344252  46.2806812  57.7171021
  61.7845965  45.7209146  58.5198140  63.4491068  46.3737214  57.3484566
  63.5928645  46.6821845  56.3129454  64.3001438  47.3132820  58.2745532
  64.9708822  46.6903133  58.8662621  65.1198842  48.3244155  57.4713093
  64.4497557  48.9480950  56.8796569  65.6923733  48.9527362  58.1536360
  65.8025202  47.7939951  56.8074087  63.4951905  47.9744341  59.2859127
  63.0167488  47.2255139  59.9170340  64.1325117  48.6118344  59.8988092
  62.7311228  48.5830239  58.8022601  64.1428852  44.9945315  57.5229204
  63.9183916  44.2634695  58.5267814  65.0107665  44.6737459  56.5570324
  65.0857654  45.2692730  55.7447381  65.8227654  43.4654891  56.6047729
  66.3016267  43.2756864  55.6441658  66.9145426  43.6754517  57.6644362
  66.4226762  43.9716535  58.5909518  67.4200870  42.7209844  57.8111230
  67.9484596  44.7486192  57.2657094  68.4576650  44.4114965  56.3628478
  67.4136055  45.6749720  57.0561775  68.9594677  44.9889382  58.3502090
  68.4651470  45.4937075  59.1802415  69.3425351  44.0258494  58.6875794
  70.1278340  45.8573093  57.8437055  71.0412961  45.4748688  58.2991469
  70.1824845  45.7338446  56.7621007  69.9725799  47.3510634  58.1821341
  69.9223534  47.4657280  59.1843462  70.7671088  47.8616791  57.8242298
  69.1264249  47.7057405  57.7598488  64.9611638  42.2312442  56.9225892
  65.2617312  41.4983290  57.8353321  63.8439030  42.0473205  56.2315499
  63.5201465  42.7622181  55.5957806  63.0511552  40.8229624  56.3613811
  62.4927246  40.7084810  55.4323232  63.7573659  39.9990586  56.4640863
  62.0811971  40.7901533  57.5277090  61.1874958  39.9241633  57.5983656
  62.2469632  41.7628769  58.4100221  62.9083388  42.4890345  58.1746994
  61.6319154  41.7890351  59.7350590  60.9899844  40.9172090  59.8613246
  62.7226802  41.7672723  60.8422967  63.6720896  41.9829846  60.3522055
  62.4816183  42.5722590  61.5365486  62.8363696  40.4134333  61.6301829
  62.8492285  39.5982554  60.9067050  63.7741325  40.4202835  62.1857511
  61.5931229  40.2019464  62.6651200  60.6833394  40.4413321  62.1145863
  61.5866364  39.1459002  62.9349790  61.6618810  41.0926654  63.9958935
  62.6951828  41.0164980  64.3343999  61.4627259  42.1119161  63.6648881
  60.7192723  40.7376090  65.1501520  60.9039434  39.7933342  65.4573025
  60.8707281  41.3768804  65.9172851  59.7617302  40.8085405  64.8368137
  60.6568733  42.9864322  59.8980505  60.9541795  44.1496129  59.5205885
  59.4845394  42.6820817  60.4207369  59.1772375  41.7216355  60.4773745
  58.5239617  43.7105746  60.6261095  58.8669685  44.6609837  60.2172476
  57.1216408  43.3765956  60.0091183  56.9831074  44.0045418  59.1290091
  56.9941157  41.9109415  59.6121126  57.1320796  41.2823514  60.4918512
  56.0048357  41.7329242  59.1905273  57.7540842  41.6676614  58.8695743
  56.0786833  43.7347284  60.9135045  55.2283477  43.5239997  60.5209194
  58.5673129  44.1865292  62.0872015  58.4529682  43.3887274  63.0138615
  58.7773990  45.4956892  62.2711714  58.9480503  46.0733766  61.4604589
  58.7857681  46.1258414  63.5798517  58.7324352  45.3764785  64.3696047
  60.0829083  46.9032462  63.7346517  60.1036164  47.6631020  62.9534414
  60.0776792  47.3870963  64.7113614  61.3233104  46.0124378  63.6130902
  62.0060831  45.9044535  62.4027652  61.6441217  46.4643533  61.5404452
  63.1308278  45.0994630  62.2852838  63.6594181  45.0271367  61.3347771
  63.5841090  44.3878390  63.3873153  64.6889096  43.5990373  63.2485228
  65.0551277  43.6191657  62.3613482  62.9353908  44.4632222  64.6107343
  63.2942723  43.9091837  65.4781131  61.7983308  45.2711535  64.7182314
  61.2635755  45.3361942  65.6658108  57.6254090  47.0842929  63.8089006
  57.6431943  48.1965784  63.2738608  56.6339564  46.6829210  64.6441870
  56.5193040  45.3917555  65.3477816  57.1890584  45.3817272  66.2076820
  56.7858184  44.5800822  64.6708358  55.1106515  45.3556171  65.7333630
  55.0297543  44.8120842  66.6747060  54.5592435  44.8231566  64.9584202
  54.6369072  46.7043461  65.8644449  54.8181836  46.9479138  66.9113033
  53.5876011  46.8801365  65.6274763  55.5197261  47.5618043  64.9745869
  55.0640502  47.9393754  64.0592193  56.0354403  48.7213990  65.7951867
  57.0440493  48.5805553  66.4895296  55.3569266  49.8640185  65.7124967
  54.5769036  49.9435253  65.0758319  55.7377555  51.0408918  66.4928298
  55.9182009  50.7413255  67.5252051  57.0104235  51.7043606  65.9445504
  57.4577504  52.4031148  66.6514737  57.7124209  50.8960108  65.7399282
  56.8265574  52.4690951  64.6288071  56.6659688  53.8553771  64.6248583
  56.6425317  54.3836747  65.5779859  56.5364048  54.5660826  63.4287401
  56.3958331  55.6467890  63.4490875  56.5868413  53.8943392  62.2123532
  56.4797532  54.4425569  61.2763567  56.7763554  52.5060951  62.1934663
  56.8290424  51.9630902  61.2498192  56.8982034  51.8180074  63.4029597
  57.0543126  50.7392443  63.4029414  54.5940604  52.0545217  66.5020364
  53.5781497  51.8827710  65.8083569  54.7828963  53.0820484  67.3113398
  55.6643201  53.1072511  67.8038397  53.8954139  54.1864145  67.4583143
  53.0494752  54.0732614  66.7803148  53.3696756  54.2604270  68.8829944
  54.2191076  54.5453753  69.5037753  52.6300067  55.0610095  68.8905754
  52.7539388  53.0071105  69.4247656  53.1779861  52.1384700  68.9210311
  52.9438882  52.9341188  70.4956034  51.3083006  53.0517661  69.1872720
  50.8782339  53.8886069  69.7375801  51.1219673  53.1842729  68.1215229
  50.6626831  51.8275804  69.6234424  51.2172149  51.1267521  70.0940096
  49.3653584  51.5972892  69.4479358  48.6091935  52.5230550  68.8282535
  49.0319117  53.3808755  68.5033636  47.6226783  52.3554875  68.6911094
  48.8440421  50.4407873  69.8723115  49.4374988  49.7568751  70.3197189
  47.8593516  50.2567721  69.7433864  54.7300369  55.4401425  67.2480226
  55.9690745  55.4424470  67.4823566  54.0424359  56.5216490  66.8774966
  53.0376295  56.4859587  66.7816343  54.7134163  57.7732153  66.6029988
  54.0686103  58.6086979  66.8755670  55.6414154  57.8304885  67.1718897
  55.0324342  57.8596884  65.1368324  54.7556390  56.9264345  64.3710469
  55.6356703  58.9735573  64.7657161  55.9234518  59.6380644  65.4697840
  55.8281708  59.3278701  63.3544150  54.9260989  59.0302147  62.8198434
  56.0063463  60.8699605  63.2108681  56.9106210  61.1819543  63.7334073
  56.0890965  61.1299998  62.1555804  55.1440760  61.3776578  63.6431097
  56.9937241  58.5926518  62.7173746  56.9014300  58.1398859  61.5732777
  58.0928774  58.4489216  63.4702529  58.1328110  58.8238628  64.4072288
  59.2938745  57.8079149  62.9264162  59.1617649  57.5979958  61.8650114
  60.4763314  58.7276366  63.0919228  60.6422777  59.0031678  64.1333851
  61.3501059  58.1973112  62.7132763  60.3838462  60.0088478  62.3187874
  59.7023668  61.0974246  62.8237849  59.1975220  61.0313877  63.7875643
  59.6611049  62.2946544  62.0897303  59.0984649  63.1457959  62.4732602
  60.3333114  62.3956789  60.8806867  60.3311085  63.3287398  60.3172221
  60.9914003  61.3274808  60.4065371  61.4981333  61.4001347  59.4442257
  61.0318189  60.1572916  61.1143411  61.5902207  59.3050795  60.7270144
  59.5853358  56.4399209  63.5729845  59.3696481  56.2529131  64.7390565
  60.0850599  55.4713929  62.7942969  60.4768682  55.4096869  61.3771869
  61.4507210  55.8828059  61.2512139  59.7368285  55.9367447  60.7749824
  60.5093639  53.9226897  61.0821949  61.3473410  53.7210016  60.4149503
  59.5776335  53.6476931  60.5878703  60.6618508  53.1821582  62.4079162
  61.7083315  52.8947986  62.5099039  60.0326385  52.2958292  62.4892318
  60.2864667  54.1978413  63.5096533  59.3559259  53.9152272  64.0019148
  61.3872241  54.3429008  64.5515419  62.3268818  55.1090908  64.3190830
  61.2353550  53.6629107  65.7168382  60.0540792  52.8550689  66.0754074
  60.1228617  51.8697264  65.6144635  59.1457118  53.3522112  65.7350880
  60.1513463  52.7979117  67.6042260  59.5755974  51.9754725  68.0287328
  59.8500320  53.7331964  68.0759819  61.6199861  52.5720933  67.7579823
  61.8552137  51.5756109  67.3840975  62.0256603  52.6876118  68.7630611
  62.2183917  53.6317498  66.8279889  62.2926427  54.6339001  67.2502210
  63.5845273  53.1823169  66.3530271  63.6575448  52.2859565  65.5147715
  64.6345155  53.8704074  66.8036038  64.5120794  54.7931027  67.1957034
  65.9789342  53.3793401  66.6161971  65.9319859  52.4367956  66.0707569
  66.8941349  54.3401252  65.8542492  66.9634357  55.2821767  66.3981569
  68.2913566  53.7240770  65.7199426  68.2229223  52.7821553  65.1756990
  68.9409924  54.4105031  65.1769020  68.7050930  53.5408935  66.7115916
  66.3340540  54.6355095  64.4582698  65.3476675  55.0900496  64.5506657
  67.0017398  55.3205927  63.9358175  66.2539207  53.7062258  63.8942563
  66.5882184  52.9705093  67.9647430  66.9176999  53.8214828  68.8093708
  66.7506888  51.6540485  68.1291613  66.4394234  51.0282091  67.4000947
  67.1619867  51.0781328  69.4076855  66.8380136  51.7272384  70.2211980
  66.5329651  49.6731597  69.6132860  66.4190740  49.2111704  68.6326260
  67.0336203  48.9771161  70.2863147  65.1513646  49.8743487  70.1551938
  63.9585772  49.7019194  69.4801735  64.0138855  49.3308021  68.4567905
  62.8947063  50.0607413  70.3041907  61.9186685  49.9991137  70.0518979
  63.3815104  50.4973831  71.5166023  62.6863232  50.9565048  72.6770022
  61.5974608  50.9937325  72.6439633  63.4472736  51.3308875  73.7867220
  62.9500169  51.6899347  74.6877885  64.8835273  51.2526095  73.7668783
  65.4831141  51.5367990  74.6316508  65.5659044  50.7950803  72.5993114
  66.6533168  50.7306484  72.6378290  64.8074456  50.4097813  71.4606671
  68.6632198  51.1387662  69.6070159  69.1382240  51.5414562  70.6591214
  69.4208532  50.8483872  68.5731365  69.0516748  50.4316218  67.7304543
  70.8710452  50.9920713  68.6978318  71.2441235  50.3759189  69.5159199
  71.5344499  50.5409987  67.4093379  71.2266833  49.5107071  67.2307933
  71.2049366  51.1669775  66.5800781  73.0282116  50.5883599  67.4799631
  73.6235452  51.5419417  67.9898324  73.6577450  49.5659111  66.9311169
  74.6671410  49.5330073  66.9428150  73.1270474  48.8213411  66.5020756
  71.2852659  52.4207837  69.1349623  70.9339708  53.3827755  68.4734575
  72.0034866  52.5598352  70.2835588  72.5650289  51.5079493  71.1512265
  73.4470004  51.0751809  70.6790634  71.8201189  50.7285565  71.3117101
  72.8935116  52.2540722  72.4119063  73.7839573  51.8086077  72.8554904
  72.0556046  52.1539427  73.1018246  73.1228236  53.6987201  72.0503824
  74.1724804  53.9058583  71.8420241  72.7751277  54.3544223  72.8486693
  72.2897831  53.9239978  70.7915605  71.3260033  54.3765652  71.0248186
  73.0484448  54.8189838  69.8435507  72.7970557  56.0227388  69.8367423
  73.9799124  54.2787569  69.0603080  74.1832865  53.2896019  69.0779342
  74.7650183  55.1355306  68.1607701  75.0040215  56.1088664  68.5892491
  76.0767539  54.4571613  67.6444110  75.8331227  53.4593907  67.2794479
  76.7218192  55.2851794  66.4970894  76.9661683  56.2829952  66.8614489
  77.6316461  54.7898585  66.1580127  76.0204507  55.3639184  65.6664381
  77.0455808  54.1501496  68.7899917  76.4659634  53.6583464  69.5711921
  77.7888598  53.4558276  68.3981335  77.7296203  55.3387121  69.3562109
  76.9869553  56.0333282  69.7487119  78.3953183  55.0264525  70.1608470
  78.3098502  55.8308109  68.5756521  73.9269031  55.5371099  66.9439123
  73.9412301  56.7110432  66.4849816  73.2367691  54.5508335  66.4003243
  73.3847644  53.5979514  66.7006781  72.3048317  54.7925743  65.3226248
  72.8434873  55.1777004  64.4568147  71.6223506  53.5326219  64.9347734
  71.0711044  53.1395636  65.7890174  70.9302195  53.7307713  64.1163654
  72.3638944  52.8010790  64.6137486  71.2857278  55.8698083  65.7373392
  70.9577730  56.7438953  64.9264023  70.8519608  55.8342056  66.9968564
  71.1568418  55.0706152  67.5834370  69.9149387  56.7690611  67.5346071
  69.0288199  56.7728723  66.8998803  69.4849603  56.4364378  68.9806034
  69.1016034  55.4320388  69.1603792  70.3836766  56.5938907  69.5769402
  68.4345378  57.4550735  69.3724183  68.8035659  58.7049635  69.9257992
  69.8523326  58.8859314  70.1612532  67.8549961  59.6935548  70.1699104
  68.1544696  60.6556158  70.5856702  66.5278542  59.4503856  69.8793556
  65.5602523  60.4154172  70.1375990  65.9232917  61.2177118  70.5198625
  66.1284746  58.2328710  69.3240717  65.0779470  58.0485796  69.0992849
  67.0848405  57.2467663  69.0562532  66.7831027  56.3052635  68.5973123
  70.4766351  58.1821796  67.4641287  69.8150655  59.1077318  66.9905172
  71.6902417  58.3807825  67.9412943  72.2308938  57.6548754  68.3894610
  72.2665571  59.6993894  67.8405696  71.6425952  60.4079806  68.3852433
  73.6652859  59.7395579  68.4217221  74.2414629  59.0272477  67.8311854
  73.9931225  60.7527388  68.1891549  73.8849613  59.4610014  69.9168271
  73.5627841  58.4550065  70.1856706  75.3867694  59.5898738  70.1407565
  75.7096337  60.5958175  69.8725500  75.6155511  59.4030555  71.1899746
  75.9108714  58.8630600  69.5201447  73.1470314  60.5039837  70.7372346
  72.0817453  60.4578367  70.5111035  73.3014983  60.3082963  71.7983415
  73.5273522  61.4956184  70.4920497  72.3055901  60.0941161  66.3758692
  72.0566074  61.2573531  66.0522810  72.5516128  59.1259925  65.4885702
  72.6476979  58.1594699  65.7655201  72.7502732  59.4673433  64.0774712
  73.4898245  60.2606234  63.9685234  73.2557584  58.2325721  63.3604873
  73.8819693  57.6231033  64.0120293  72.3450933  57.6853517  63.1168915
  74.0119090  58.5487267  62.0842246  74.7258682  59.5648102  61.9924333
  73.9432673  57.6936645  61.2011013  71.4440756  60.0043795  63.4157848
  71.4154624  61.0648289  62.7714692  70.4027924  59.2245638  63.5858929
  70.6169685  58.3614826  64.0647653  69.0442498  59.4602218  63.1814460
  68.9086773  59.4565732  62.0999166  68.2996636  58.2720497  63.7683287
  68.9918300  57.4612488  63.5411573  68.2757722  58.4376239  64.8454148
  66.9312102  57.9071865  63.2901654  65.7784875  58.2069778  64.1150476
  65.9523645  58.7225492  65.0595328  64.4403138  57.8488790  63.7267251
  63.5740918  58.1170068  64.3315959  64.2639889  57.1394760  62.5089247
  62.9672351  56.7543403  62.1671145  62.3130444  57.0213176  62.8170046
  65.4002256  56.8196642  61.6694346  65.2494865  56.2863811  60.7308253
  66.7339612  57.2070950  62.0752766  67.5886201  56.9600734  61.4454842
  68.5498592  60.8135070  63.7640076  68.1368389  61.7301713  63.0515086
  68.6315446  60.9463998  65.0573347  68.9832454  60.1954452  65.6339396
  68.2228371  62.1158914  65.6787850  67.1468408  62.2476148  65.5648544
  68.5464142  62.0462500  67.1487312  67.9952487  61.1767659  67.5069395
  69.6048361  61.9251507  67.3793347  68.0410721  63.2536188  67.8554639
  66.8138700  63.3831977  68.0544239  68.9397956  64.2189525  68.1299834
  68.6447860  65.0580001  68.6085942  69.9045073  64.0992416  67.8559372
  68.9094982  63.3448790  65.0764179  68.3019382  64.4102500  64.8137440
  70.1859788  63.1975764  64.8314849  70.6595371  62.3097338  64.9185335
  70.9259867  64.3076754  64.3792931  70.7405489  65.1744223  65.0136920
  72.4112006  63.9717988  64.4357176  72.8177393  63.7130181  65.4133975
  72.4773403  63.1074526  63.7749368  73.2152337  65.0600447  63.8664650
  73.7280023  64.9753938  62.7535213  73.1881196  66.1746021  64.5439040
  73.7152730  66.9724709  64.2189201  72.6401000  66.2344060  65.3901893
  70.5600406  64.5849810  62.9278263  70.6670792  65.7108691  62.4497586
  70.1546623  63.5378131  62.2091685  70.1002748  62.6192524  62.6255668
  69.8158856  63.6774998  60.8112544  70.6383196  64.1503968  60.2745330
  69.5559953  62.3140428  60.1967717  70.5509185  61.9228269  59.9842224
  69.0980185  61.7274944  60.9932126  68.7057992  62.2252355  58.9553367
  67.8320334  62.8714522  59.0392296  69.5458515  62.6761505  57.8222039
  70.4196384  62.0300847  57.7373850  68.9680677  62.6280117  56.8991929
  69.8690490  63.7027236  57.9948061  68.2540284  60.7979174  58.7724621
  67.6720605  60.4865033  59.6398916  67.6379203  60.7232570  57.8763941
  69.1251461  60.1510041  58.6687500  68.5802409  64.5687214  60.6658567
  68.5967630  65.4994223  59.8541340  67.5431379  64.3228579  61.4660407
  67.5712121  63.5820498  62.1519814  66.3176986  65.0804192  61.3237721
  66.0464706  65.1336578  60.2694002  65.1765174  64.4352444  62.0856388
  65.3192217  64.4951765  63.1645934  64.2546064  64.9486539  61.8125256
  64.9737854  62.9906751  61.7607675  64.9058585  61.9797842  62.6429253
  65.0272723  62.2583249  63.6897174  64.6870189  60.7537982  61.9988692
  64.5608501  59.8563554  62.4447137  64.6211117  60.9876951  60.6567017
  64.4055468  60.0872874  59.5918962  64.2860091  59.0267152  59.8132464
  64.3599470  60.6190326  58.3220270  64.1977788  59.9563252  57.4719562
  64.5207145  62.0269786  58.0867237  64.5139614  62.4278348  57.0731319
  64.6927415  62.9371014  59.1620210  64.7732338  64.0023418  58.9454929
  64.7648574  62.4115760  60.4679209  66.5206887  66.5324013  61.7995441
  66.0108638  67.4245664  61.2194673  67.2898083  66.7288293  62.8549834
  67.7252625  65.9215170  63.2777431  67.5109262  68.0164973  63.4569070
  66.5668478  68.5276353  63.6454622  68.2327710  67.7941652  64.8104858
  67.5103463  67.3264074  65.4793688  69.0524311  67.1013561  64.6200311
  68.7866590  69.0788328  65.4679981  69.4886275  69.5445772  64.7763167
  67.9541636  69.7579129  65.6521277  69.5098250  68.7695443  66.8103592
  69.7027894  69.7103367  67.3258913  68.8559421  68.1480573  67.4221521
  70.7948219  68.0612488  66.6196432  71.3234315  68.2342227  65.7765825
  71.2767650  67.2110296  67.4988657  70.5885388  66.9981055  68.6398223
  69.7211529  67.4894898  68.8019433  70.9439033  66.3483131  69.3265432
  72.4354640  66.5752802  67.2603489  72.9374602  66.7519225  66.4019216
  72.7995909  65.9234161  67.9404839  68.3410694  68.8254976  62.4550933
  68.1338619  70.0358901  62.2348887  69.2868821  68.1483620  61.8253634
  69.4615911  67.1768724  62.0393357  70.1296874  68.7946186  60.8607539
  70.4997971  69.7791842  61.1466710  71.3467966  67.8761089  60.5532379
  70.9824420  66.9358852  60.1393231  72.2850053  68.5388848  59.5561428
  72.6501575  69.4790098  59.9695777  73.1287746  67.8784935  59.3560535
  71.7493522  68.7347691  58.6272694  72.0002839  67.4900001  61.7940583
  72.7501684  66.9235853  61.5979767  69.4127234  69.1523602  59.5522575
  69.5920584  70.2195489  59.0286199  68.6387437  68.2444173  58.9881326
  68.7244628  67.2630103  59.2108251  67.6946394  68.6385518  57.9414831
  68.2573095  68.9085321  57.0478321  66.7592667  67.5382835  57.6211434
  66.3440064  67.1371403  58.5456668  65.6348608  68.0577824  56.7458799
  66.0493328  68.4586936  55.8209021  64.9489872  67.2432467  56.5130501
  65.0970192  68.8452953  57.2737520  67.5554891  66.4653712  56.8846774
  67.9200160  66.9042293  55.9559016  68.4025861  66.1927569  57.5141276
  66.7939872  65.3092292  56.5926233  65.9469108  65.5809947  55.9627782
  67.4180810  64.5852218  56.0687727  66.4294788  64.8695234  57.5210048
  66.8924305  69.9327287  58.2865745  66.8856099  70.9014508  57.4729776
  66.2961815  69.9588373  59.4906544  66.3106212  69.1319128  60.0703843
  65.4879258  71.0858058  59.9193509  64.8739747  71.4136275  59.0804849
  64.5621209  70.7405641  61.1018459  65.1903611  70.2853500  61.8674787
  64.1312585  71.6642962  61.4880798  63.4218150  69.7590020  60.7174968
  62.8911081  69.7999963  59.5424786  63.0556707  68.9604897  61.6386382
  66.3188166  72.3503280  60.2034109  65.9407908  73.4445155  59.7506326
  67.4632972  72.2075944  60.8756329  67.7189428  71.3427178  61.3303120
  68.3441208  73.3955332  61.0693341  67.7317759  74.2205096  61.4334041
  69.4838640  73.1534046  62.0672741  70.0259163  72.2548374  61.7725614
  70.1600823  74.0080519  62.0471028  68.9817385  72.9722074  63.4697855
  67.8673258  73.3453757  63.7806550  69.8113823  72.3928958  64.3324478
  69.5204600  72.2481986  65.2887567  70.7286649  72.1002260  64.0274267
  68.9148961  73.9311891  59.7935202  68.9343178  75.1281895  59.5800868
  69.4027491  73.0364804  58.9256205  69.5933308  72.0764256  59.1747646
  69.8147658  73.5092014  57.5815066  70.5669583  74.2911885  57.6854378
  70.4043860  72.3740319  56.7594334  69.7423273  71.5110022  56.8298414
  70.4733866  72.6945238  55.7199027  71.7652127  72.0002724  57.2572009
  72.4745312  72.8182576  57.1312314  71.7384088  71.7014258  58.3050913
  72.2827515  70.6261341  56.2743665  72.8919851  71.4655845  54.8000184
  73.7070888  72.1356109  55.0734588  73.2537421  70.7273517  54.0843056
  72.0840286  72.0421013  54.3495343  68.6707066  74.2236657  56.8458039
  68.8764586  75.2607409  56.2130045  67.4657398  73.6963782  56.9642774
  67.3219925  72.8124232  57.4312459  66.2867251  74.3962816  56.4096274
  66.4099036  74.4306767  55.3271565  65.4093364  73.7983453  56.6561242
  66.0827911  75.8166896  56.9319272  65.6522917  76.7069807  56.1987657
  66.4484847  76.0483284  58.1878702  66.8611457  75.3121102  58.7426611
  66.1506159  77.3239662  58.8394830  65.0810541  77.5261946  58.7825573
  66.5591824  77.2843685  60.2989810  67.5294846  76.7941514  60.3783537
  66.6378062  78.3066221  60.6690024  65.5368344  76.5221427  61.1289854
  64.6898947  77.1808361  61.3211233  65.2018923  75.6588085  60.5540332
  66.1187643  76.0576652  62.4389931  66.6658536  75.1318716  62.2609522
  66.8073218  76.8227576  62.7976318  65.0453024  75.8170998  63.4798926
  64.2395081  76.5440498  63.3782076  64.6388016  74.8098120  63.3891871
  65.7021148  75.9769336  64.8395605  66.0784758  76.9103817  64.9239801
  65.0161950  75.8235973  65.5648893  66.4485337  75.3031311  64.9341549
  66.7545886  78.5126625  58.1337366  66.1986588  79.5974336  58.1354014
  67.8836882  78.2534682  57.4955811  68.2203530  77.3018582  57.5301421
  68.6285443  79.2107117  56.7307718  68.7588904  80.1477648  57.2721039
  69.9780446  78.6041384  56.4914562  70.5221462  78.6221327  57.4357702
  69.8267865  77.5707399  56.1795128  70.7714567  79.3332226  55.4421005
  70.3017463  79.2292915  54.4640047  70.7876019  80.3852378  55.7268855
  72.1679701  78.8138627  55.3802155  72.8029992  78.6550826  56.4791981
  72.5868044  78.5335646  54.2309601  68.0390225  79.5312108  55.3540661
  68.4169858  80.5446547  54.7008011  67.1448998  78.6672910  54.8775861
  66.8225118  77.8674945  55.4034100  66.6901085  78.8183964  53.5027421
  67.4186603  79.3956190  52.9334218  66.4875913  77.4691450  52.8423078
  65.6807917  76.9332453  53.3422942  66.1337169  77.6750384  51.4106040
  66.9403017  78.2105083  50.9098110  65.9866158  76.7080979  50.9294721
  65.2148332  78.2574366  51.3430442  67.7861642  76.6754655  52.9961064
  68.5001585  77.0736764  52.2751757  68.1567709  76.8473689  54.0066505
  67.6173311  75.2086745  52.7709097  67.2471659  75.0359455  51.7603444
  68.5776579  74.7084462  52.8959832  66.9037761  74.8096384  53.4918183
  65.4373708  79.6694224  53.4873796  64.4277578  79.2831974  54.1059432
  65.5177082  80.8830430  52.8641670  66.7432706  81.5784653  52.4116479
  67.1444302  81.0378071  51.5544082  67.4675633  81.5562964  53.2259008
  66.3074114  83.0016623  52.0572061  66.8373168  83.3519005  51.1714112
  66.5050297  83.6776164  52.8891523  64.7624645  82.8766142  51.7902602
  64.5930386  82.6766056  50.7322477  64.2250037  83.7797438  52.0793836
  64.2745312  81.6798920  52.6353602  63.8973347  81.9871734  53.6107571
  63.1807579  80.9019094  51.8855975  63.4311774  80.3627896  50.7937248
  61.9746765  80.8459629  52.4463575  61.7474727  81.3761245  53.2754573
  60.9224082  80.0150192  51.8393304  61.2452053  78.9740319  51.8550360
  59.6035725  80.1202219  52.5553882  58.9422203  80.7857454  52.0005982
  58.9597358  78.7288442  52.6594717  59.6203453  78.0628445  53.2145745
  58.0045396  78.8078370  53.1785666  58.7969784  78.3274922  51.6592081
  59.8429359  80.6480707  53.8492822  59.0114147  80.7230059  54.3231572
  60.6370149  80.4249810  50.4040983  60.3771959  79.5746232  49.5340198
  60.6430302  81.7227413  50.1591577  60.8072898  82.4151126  50.8759144
  60.2222734  82.1655043  48.8823266  59.8076418  81.3262925  48.3238435
  59.1471414  83.2525033  49.0036496  58.8283159  83.5052073  47.9924176
  58.3069988  82.8285351  49.5536600  59.6267760  84.4917015  49.7008981
  60.8675500  84.7391427  49.7905566  58.7409156  85.2372371  50.1786702
  61.3918560  82.5619377  47.9911267  61.1693921  82.9063813  46.8632126
  62.6208361  82.4693095  48.4849383  62.7533567  82.2320035  49.4576785
  63.7910282  82.7602015  47.6838919  63.5545932  82.6018834  46.6316880
  64.1794945  84.1714933  47.8728244  64.4280275  84.3433959  48.9200974
  65.0470699  84.3962543  47.2524248  63.3506851  84.8185813  47.5856812
  64.9769224  81.8049692  48.0408682  66.1010532  82.2364990  48.3813109
  64.7218777  80.4954068  47.9396787  63.4964907  79.8778525  47.4235515
  63.0847814  80.4844412  46.6169252  62.7599436  79.7876987  48.2219685
  63.9859687  78.5534883  46.9505182  64.3549719  78.6385983  45.9284164
  63.1752866  77.8256390  46.9841530  65.1009776  78.1700769  47.9141156
  65.8616143  77.5921610  47.3891927  64.7360241  77.5987722  48.7676491
  65.6914456  79.4945768  48.3884031  65.7443425  79.5478423  49.4758143
  67.0626428  79.7050162  47.8099039  68.0182651  79.4052667  48.4877434
  67.1478420  80.1881446  46.5652940  66.2923036  80.3632760  46.0578668
  68.4386441  80.4450954  45.8785114  69.0387848  79.5354524  45.8566025
  68.1834301  80.8939128  44.4469452  69.1087449  81.2743027  44.0142845
  67.8014720  80.0809932  43.8293938  67.1611294  82.0274467  44.3591597
  67.4074790  83.3737462  44.4788907  68.4455645  83.6705548  44.6284997
  66.2571230  84.0699310  44.3807743  66.1718535  85.0736550  44.4540326
  65.2194803  83.1942074  44.1669874  63.8527268  83.4485276  43.9776807
  63.5142527  84.4846338  43.9819045  63.0132262  82.3587199  43.7959668
  61.9479571  82.5195887  43.6303682  63.5165235  81.0206847  43.8210812
  62.8640409  80.1550536  43.7068506  64.8910432  80.7916836  43.9972488
  65.2387690  79.7586902  44.0078371  65.7552035  81.8957634  44.1645681
  69.2475242  81.5071818  46.6208686  70.4340911  81.6499477  46.4290565
  68.5968716  82.2505724  47.5009797  67.6367421  82.0499923  47.7418494
  69.2808324  83.3534966  48.2079329  70.0608823  83.7781879  47.5760637
  68.2778253  84.4492198  48.5459397  67.3293303  83.9357855  48.7035523
  68.6206160  84.8756085  49.4886949  68.0933315  85.5329783  47.5520990
  69.0577349  86.0255160  47.4278677  67.7653802  85.1304641  46.5936995
  67.0675284  86.5438565  48.0566912  66.7389134  86.5010082  49.2783197
  66.5581922  87.3478940  47.2375176  69.8340393  82.8550513  49.5211296
  70.3541468  83.6657203  50.3128587  69.6600458  81.5408785  49.8007686
  69.1129138  80.9517356  49.1894941  70.2297896  80.9478959  51.0038234
  69.7058898  81.3063563  51.8899015  70.1456209  79.3998183  50.9707580
  70.6736296  79.0253710  50.0937768  70.6032747  78.9912227  51.8717036
  69.1007126  79.0931681  50.9235180  71.6834755  81.3896430  51.1184565
  72.3863375  81.4831407  50.1053557  72.1252806  81.6425583  52.3542911
  71.4664592  81.6484013  53.1198102  73.5110382  81.9610719  52.6376051
  73.7397429  82.9543261  52.2512897  73.7944433  81.9449245  54.1612411
  72.8563864  82.1575354  54.6740228  74.1323426  80.9424370  54.4238106
  74.8561652  82.9717484  54.5889484  75.4160401  83.2222149  53.6878893
  74.3593814  83.8650700  54.9674777  75.8692325  82.4545517  55.6853553
  75.4853332  81.7848591  56.6813650  77.1552995  82.8095454  55.5082424
  77.8544450  82.5115707  56.1734552  77.4154398  83.3723101  54.7109192
  74.3940053  80.9630320  51.9117460  75.2229414  81.3544637  51.1173449
  74.1743972  79.6679309  52.1577165  73.5016953  79.4137205  52.8669052
  74.9299109  78.5798999  51.4796305  75.9145455  78.9429695  51.1850556
  75.1086906  77.3940903  52.4111982  74.1507215  76.9992381  52.7495563
  75.6584021  76.6125293  51.8867178  75.8922315  77.7178831  53.6351998
  75.2986555  77.9586219  54.8569356  76.2366487  78.2147620  55.7477021
  75.9727385  78.4230235  56.7845616  77.4137685  78.1616337  55.1452659
  78.3114280  78.3096579  55.5838957  77.2249692  77.8712290  53.8180771
  78.0815166  77.8069614  53.1470351  74.3625506  78.0291428  50.1586953
  74.7273299  76.9278028  49.7499224  73.5124840  78.7830710  49.4800274
  73.2999801  79.7270671  49.7695315  72.7812362  78.2274982  48.3626302
  72.1358670  77.4494874  48.7704254  71.9208675  79.2761914  47.7195924
  72.5533303  80.0577217  47.2985210  71.3270122  78.8230737  46.9257912
  71.2566552  79.7103228  48.4668883  73.6847689  77.5679797  47.3459390
  73.3847456  76.4796780  46.7947010  74.8153025  78.1952478  47.0961279
  75.1061099  79.0251457  47.5929175  75.6320618  77.7384190  45.9695358
  74.9948613  77.5587285  45.1036340  76.6717287  78.7830502  45.5989803
  76.9679518  79.3186059  46.5009400  77.5339387  78.2561831  45.1901954
  76.1474887  79.7763553  44.5674869  75.8322671  79.3216084  43.4113305
  76.0408961  80.9889174  44.9229193  76.2650453  76.3865012  46.2528629
  76.1603677  75.4585204  45.4133433  76.8627929  76.2839975  47.4414506
  77.0121648  77.1391189  47.9577400  77.3877505  75.0369859  47.9980982
  78.1772501  74.6306872  47.3658713  77.9792487  75.3411371  49.3922991
  78.9630386  75.7731553  49.2089498  77.3277185  76.0961339  49.8322857
  78.1149687  74.1410634  50.3701744  77.1924045  74.0551138  50.9442728
  78.2649411  73.2328918  49.7863639  79.3114081  74.3357963  51.3401222
  80.1736768  74.6791599  50.7685515  79.0433412  75.0895716  52.0804345
  79.6673704  72.9948369  52.0663321  79.0773836  72.9658492  52.9823975
  79.3533596  72.1858233  51.4067918  81.1650560  72.8253234  52.4125802
  81.4561190  73.5746350  53.0240654  81.3052212  71.9389086  52.8759618
  81.7118878  72.8517271  51.5638300  76.3561270  73.8802354  48.0775154
  76.6060434  72.7852938  47.5969682  75.1977991  74.1512799  48.6792940
  75.0355343  75.0748022  49.0546284  74.1748267  73.1272965  48.8905104
  74.6523994  72.2259751  49.2747542  73.1050612  73.5719378  49.8812889
  72.6939937  74.5276892  49.5562320  72.3035849  72.8362462  49.9483239
  73.6152115  73.7764174  51.2713535  74.8457194  73.4216531  51.7393520
  75.5180804  72.9388740  51.0301588  74.9736047  73.7739326  53.0875880
  75.7967728  73.6380604  53.6568265  73.7977930  74.3451523  53.5090914
  73.4411975  74.8589552  54.7785583  74.1805008  74.8184695  55.5784897
  72.1800093  75.3792171  54.9249850  71.8696939  75.7844269  55.8881097
  71.2773691  75.4012104  53.8579972  70.2754994  75.8124384  53.9814807
  71.6364257  74.8888253  52.5797023  70.8924943  74.9269618  51.7839559
  72.9126605  74.3613885  52.4001830  73.5150650  72.7023377  47.5833878
  73.1175832  71.5446698  47.4390160  73.3819356  73.6327197  46.6564898
  73.6898498  74.5823391  46.8098233  72.7256370  73.3320596  45.4524197
  71.8297046  72.7513154  45.6718292  72.3164877  74.5920359  44.6912401
  71.9573863  75.3100937  45.4284907  73.1949024  74.9967275  44.1885350
  71.2207308  74.3271554  43.6645796  70.2624556  73.5554353  43.9564339
  71.3016306  74.8652841  42.5456378  73.5956187  72.4417314  44.5838037
  73.0718120  71.6930773  43.7852571  74.9082236  72.5735977  44.7102692
  75.2600953  73.3826341  45.2019456  75.8760433  71.6552554  44.0999320
  75.6474767  71.5497570  43.0394007  77.3057646  72.1595596  44.2417184
  77.3851632  72.6756191  45.1985244  77.9676642  71.2935414  44.2405639
  77.7147260  73.1226579  43.1009019  77.5136281  72.6131962  42.1585064
  77.0802743  74.0055692  43.1786232  79.2375883  73.5606921  43.1499465
  79.7445084  72.8744678  43.8283470  79.6369961  73.4369064  42.1433433
  79.4769195  75.0642133  43.6365373  80.2206385  75.4950229  42.9661749
  78.5291308  75.5878067  43.5114544  79.9609937  75.2108220  45.1132333
  80.8394395  74.7260806  45.2292440  80.0849581  76.1891751  45.3313111
  79.2717897  74.8120683  45.7345967  75.8044055  70.2402096  44.6268420
  76.0680653  69.3321140  43.8604668  75.4460400  70.0436035  45.9041792
  75.3204236  70.8187479  46.5393729  75.2556916  68.6728756  46.4247084
  76.0785022  68.0394999  46.0931710  75.2197273  68.6667238  47.9477966
  74.3788922  69.2792221  48.2732831  75.0720093  67.6401284  48.2830296
  76.4845273  69.2050547  48.5347989  77.3128052  68.5563400  48.2497977
  76.6584585  70.2080005  48.1449916  76.3815623  69.2772275  50.3150411
  77.0332935  67.7140562  50.8519534  78.0615504  67.6102340  50.5055320
  77.0105003  67.6649365  51.9406078  76.4282402  66.9066115  50.4395885
  74.0016275  67.9911541  45.9526968  72.9733468  68.6520635  45.7693321
  74.0786603  66.6764495  45.7660960  74.9661777  66.2429156  45.5552392
  72.8944152  65.8388859  45.7982655  72.0356642  66.3747708  45.3939473
  73.0367973  64.4730774  45.0378497  72.0532996  64.0036382  45.0164170
  73.5621902  64.6321482  43.5951131  74.5459228  65.1011295  43.6157638
  73.6375263  63.6515651  43.1251340  72.8746411  65.2562357  43.0242439
  73.8779475  63.5827908  45.7632709  73.9542782  62.7537751  45.2852468
  72.5201437  65.5696377  47.2705363  73.3387569  65.6341647  48.1796010
  71.2503700  65.3245475  47.4931765  70.5615521  65.5091485  46.7779481
  70.7991149  64.8483273  48.7598624  71.0693688  65.5618926  49.5382496
  69.2699069  64.6738528  48.7620230  68.9416491  64.6074682  47.7247482
  69.0428984  63.7392456  49.2749329  68.5828675  65.7576022  49.4138803
  68.8796385  66.6624620  48.8835440  67.5197206  65.5765163  49.2556755
  68.8943440  65.9782361  51.1959880  69.1573623  67.6576889  51.1160517
  68.2652626  68.1475168  50.7257623  69.3741293  68.0399112  52.1135580
  70.0013994  67.8628543  50.4575611  71.4384747  63.5293645  49.1910621
  71.5388184  63.3073289  50.4175254  71.7576741  62.6297307  48.2492995
  71.3598385  62.6439648  47.3210627  72.6159653  61.4825842  48.6283247
  72.1275828  60.9307120  49.4314553  72.8722820  60.5171498  47.4512813
  71.8986248  60.2332069  47.0519479  73.4262337  61.0736376  46.6952662
  73.6474038  59.2685054  47.8288808  74.7092121  59.5146583  47.8374120
  73.3377609  58.9629566  48.8283123  73.3949951  58.1113024  46.8352420
  72.3547649  58.1386914  46.5107888  74.0479421  58.2328981  45.9709654
  73.6841642  56.7669232  47.5076190  72.8430330  56.5079856  48.1506977
  73.7985041  56.0058352  46.7357571  74.9406232  56.8382992  48.3307412
  74.8347201  57.5431844  49.0462978  75.1107694  55.9418458  48.7637786
  75.7202288  57.0778052  47.7349635  73.9604040  61.8758077  49.2872890
  74.3153661  61.3203314  50.3033889  74.6680004  62.8577769  48.7155428
  74.2884506  63.2861201  47.8833389  75.9185837  63.3884652  49.2605395
  76.6759478  62.6045763  49.2646803  76.4233112  64.5410491  48.4324033
  75.6035387  65.2541936  48.3458171  77.2435607  64.9967424  48.9870513
  76.8984025  64.1578461  47.0634557  77.6832515  63.4064242  47.1499312
  76.0460020  63.7328279  46.5334819  77.4442192  65.3940428  46.2683584
  78.1883257  66.2627469  46.8641836  77.1450816  65.4649552  45.0603016
  75.7029308  63.9351997  50.6074382  76.5242283  63.6815414  51.5024007
  74.6344946  64.7336986  50.7941743  74.0151397  64.9841748  50.0367045
  74.3834229  65.3175793  52.1245906  75.2795247  65.8292459  52.4757287
  73.2310102  66.3308654  52.0657245  73.4074354  66.9962233  51.2205782
  72.3309674  65.7436605  51.8834791  73.0487491  67.1627685  53.3416524
  72.6976947  66.4828581  54.1179149  74.2870476  67.8538145  53.8086140
  74.6384640  68.5342873  53.0330097  74.0687926  68.4184979  54.7150346
  75.0592363  67.1138975  54.0192037  72.0286290  68.2473771  53.0430600
  71.0839644  67.7881476  52.7518272  71.8760076  68.8582243  53.9328204
  72.3926706  68.8753564  52.2299089  74.0704122  64.2612398  53.1929052
  74.5776928  64.2934890  54.3218407  73.1719525  63.3515746  52.8439146
  72.7152421  63.3972811  51.9442336  72.7919493  62.3071626  53.7453768
  72.3255040  62.7176854  54.6409208  71.8100473  61.3554943  53.0478447
  72.1598909  61.1734322  52.0316935  71.7099861  60.0065963  53.8097837
  71.3597360  60.1878121  54.8259463  71.0082702  59.3496205  53.2958982
  72.6915971  59.5339234  53.8432406  70.4202002  62.0348673  52.9663514
  70.0048097  61.9486574  53.9704029  70.6304706  63.0821568  52.7493940
  69.3927494  61.4861497  51.9304822  69.1816152  60.4389620  52.1470928
  68.4698718  62.0627793  51.9928882  69.8072775  61.5724594  50.9260834
  74.0830180  61.6409377  54.1430851  74.3821846  61.5901792  55.3167788
  74.8639698  61.1577829  53.1765017  74.5765851  61.2861919  52.2168035
  76.1126174  60.4003628  53.4418246  75.9026042  59.5399650  54.0772057
  76.6906538  59.9123345  52.1525949  76.8455195  60.7389869  51.4592251
  77.6536330  59.4758507  52.4176478  75.8081974  58.8411332  51.4848866
  76.0128943  58.5305565  50.2941782  74.9398682  58.2464519  52.1612419
  77.1378109  61.2689891  54.1884977  78.0119259  60.7763727  54.9066599
  77.0457530  62.5820801  54.0071464  76.4624918  63.0234503  53.3106566
  77.9503692  63.4164288  54.7758685  78.9108018  62.9081077  54.8611800
  78.1743076  64.7689187  54.1350186  78.9478577  64.6656971  53.3740556
  77.2432246  65.0859091  53.6652298  78.6002169  65.7963734  55.1456555
  77.7786458  66.4958200  55.3002396  78.8272375  65.2902592  56.0839583
  79.8105488  66.5440876  54.6764453  80.2073462  66.0459268  53.7918626
  79.5142984  67.5607415  54.4180851  80.9180199  66.5886761  55.7942386
  80.8113899  67.5184566  56.3530220  80.7693432  65.7428677  56.4655080
  82.3168271  66.5171826  55.1885811  82.4549531  67.3010767  54.5668650
  83.0053235  66.5476524  55.9269200  82.4159845  65.6555024  54.6711123
  77.4542335  63.5248337  56.2126256  78.2544974  63.6060179  57.1065629
  76.1376399  63.5336117  56.3959233  75.5182799  63.4334097  55.6044360
  75.5484394  63.7218446  57.7139814  76.1169767  64.4525203  58.2892879
  74.0805234  64.1758531  57.6163301  73.5863226  63.6101604  56.8264834
  73.3608106  63.9394731  58.9350462  73.8541929  64.5052481  59.7253456
  72.3245922  64.2661526  58.8476808  73.3870798  62.8773595  59.1786109
  74.0036076  65.6508685  57.2152035  74.4628761  66.2289688  58.0170596
  74.5874082  65.7691543  56.3023591  72.5941362  66.1470910  56.9797726
  72.0098165  66.0295479  57.8923809  72.6211844  67.2000595  56.6993711
  72.1343476  65.5697314  56.1776815  75.6198583  62.4343612  58.5240745
  75.9811760  62.4488357  59.7012168  75.2720076  61.3197807  57.8886761
  75.1750471  61.3130121  56.8833641  74.9717000  60.0940466  58.6207986
  74.7143833  60.3345539  59.6523235  73.7846299  59.3567768  57.9770745
  74.0043526  59.1869653  56.9230417  73.6505056  58.3984068  58.4787095
  72.1521934  60.1903284  58.0282891  71.4864439  59.2315076  57.3908423
  76.1721553  59.1404164  58.6960687  76.7178571  58.8043137  57.6811729
  76.5577746  58.6670412  59.8722110  76.1845692  59.0322552  60.7367547
  77.6023790  57.6192524  59.9453221  78.2659706  57.7500354  59.0905467
  78.4597734  57.6502544  61.2529971  79.0432997  58.5705219  61.2795293
  77.8405159  57.5873860  62.1477975  79.4951324  56.4548479  61.3336937
  80.6528760  56.3116923  60.5601737  80.8669891  57.1017146  59.8403681
  81.3091779  55.1319391  60.8977003  82.1745615  54.8154173  60.4841489
  80.5981722  54.4670770  61.8719381  80.8725098  53.2108848  62.5118640
  81.7647401  52.6676824  62.2004884  79.9924019  52.7628725  63.4835250
  80.1867144  51.8271759  64.0077526  78.8363200  53.5033195  63.8109495
  78.1274749  53.1412103  64.5556071  78.5545906  54.7804352  63.1598627
  77.6472259  55.3129721  63.4448090  79.4496154  55.2586486  62.1861094
  76.9069319  56.2687455  59.8053997  77.3356807  55.4253640  59.0581740
  75.8279531  56.0332562  60.4988372  75.4773102  56.6299227  61.2344581
  75.2858262  54.7195665  60.3775529  76.0993493  53.9978786  60.3037564
  74.4381553  54.3717891  61.5839155  74.2947329  53.2928916  61.6431650
  75.1714748  54.8606583  62.8429685  75.3148573  55.9396116  62.7846525
  74.5786454  54.6206133  63.7255957  76.1417589  54.3689668  62.9128898
  73.1583657  55.0214244  61.4855106  72.6259966  54.7973978  62.2523193
  74.6347149  54.4089858  59.0223383  74.1938501  55.2933069  58.2667509
  74.5810439  53.1258988  58.7168140  75.0017566  52.4448587  59.3326749
  73.9314559  52.6480384  57.4919344  74.2374885  53.2706242  56.6512025
  74.3200362  51.1906938  57.1913246  74.7949593  50.8118297  58.0963159
  73.3846188  50.6573900  57.0219683  75.2508206  50.9757559  56.0003422
  74.7674118  51.3690000  55.1060404  76.1776939  51.5201788  56.1809292
  75.5718495  49.4462762  55.7942593  76.0650315  49.0900165  56.6986649
  74.6222549  48.9258158  55.6697979  76.5011348  49.1603863  54.5367520
  76.1156747  49.7373121  53.6961108  77.5080211  49.5004582  54.7788889
  76.5404614  47.6745300  54.1611557  75.6076178  47.3593201  53.9363330
  77.1416617  47.5456391  53.3598784  76.8980105  47.1398086  54.9398281
  72.4320505  52.7146440  57.5994572  71.7802948  52.9092966  56.5945722
  71.8908468  52.4547990  58.7906315  72.4790945  52.1610776  59.5573072
  70.4386869  52.5080699  59.0076214  69.9487989  51.8453591  58.2942327
  70.0234315  52.0688466  60.4761717  69.0998866  52.5898470  60.7286071
  69.8010817  50.4882514  60.6197969  70.7243993  49.9665626  60.3679537
  69.5192968  50.2522178  61.6459473  69.0081050  50.1694151  59.9433119
  71.0564391  52.4594831  61.3919180  70.8111796  52.1965694  62.2820441
  69.9253126  53.9356986  58.6974150  69.0168367  54.1022083  57.9083535
  70.5486850  54.9409577  59.3019009  71.2887499  54.7130736  59.9503391
  70.1544629  56.3400486  59.1654367  69.1263917  56.4053388  59.5216755
  71.0177185  57.2066468  60.0321346  72.0489075  57.1588477  59.6821855
  70.6651423  58.2368572  59.9825671  70.9676657  56.8552283  61.0627165
  70.1583332  56.8293699  57.7142807  69.1675506  57.4211519  57.2339373
  71.2796607  56.6166750  57.0395136  72.1003571  56.3493666  57.5640162
  71.4031916  56.7740824  55.5963930  71.3733302  57.8303370  55.3289352
  72.7246872  56.1933325  55.1306026  72.9520573  55.3400779  55.7696321
  72.5900802  55.8522000  54.1041477  73.8052804  57.1300899  55.1837902
  73.7237849  57.8408621  54.3614385  73.7864213  57.6681035  56.1315706
  75.0797853  56.3823753  55.0657175  75.1941587  55.6885979  55.8985985
  75.1131216  55.8303081  54.1264572  76.1803795  57.3222555  55.0905467
  75.9358272  58.2979908  54.9998050  77.4643770  56.9973659  55.1910763
  77.8325538  55.7141682  55.3010570  77.1295193  54.9890478  55.3075952
  78.8115188  55.4775925  55.3769460  78.3800324  57.9760828  55.2140820
  78.0855808  58.9404145  55.1552372  79.3602289  57.7447247  55.2901542
  70.2949599  56.1153822  54.7734000  69.6812362  56.7584602  53.9674677
  70.0988246  54.8193647  54.9378648  70.6764157  54.3164338  55.5963086
  69.0787504  54.0776832  54.2056427  69.3159866  54.1048583  53.1421204
  68.9950628  52.5934886  54.6579387  69.3531420  52.5715765  55.6872095
  67.9373428  52.3310925  54.6361079  69.8043325  51.5652036  53.8031419
  69.5363973  50.5609013  54.1313012  69.5232299  51.6923751  52.7577182
  71.3167227  51.7649177  53.9531560  71.6198499  52.6101488  53.3352585
  71.5378859  51.9817132  54.9982330  72.0840622  50.5876735  53.5460979
  72.5659917  50.6569714  52.6612018  72.2049612  49.4534243  54.2543579
  71.5908828  49.2861526  55.4497109  71.0224488  50.0291948  55.8303303
  71.7041031  48.4191135  55.9552048  72.9425875  48.4685998  53.7393101
  73.3887033  48.5923398  52.8416636  73.0516123  47.6036749  54.2493269
  67.7518455  54.6968626  54.4262089  66.9804088  54.8131580  53.4983928
  67.4824728  55.0722184  55.6717049  68.1514881  54.9391095  56.4165538
  66.1680705  55.6306481  56.0087923  65.3992235  54.9963944  55.5675488
  65.9227605  55.7192011  57.5177255  66.2383872  54.7792176  57.9703954
  66.4547399  56.5455628  57.9891323  64.5011741  55.8897953  57.8505494
  63.6411403  54.7666443  57.8484005  64.0461008  53.7778234  57.6331326
  62.2398247  54.9242113  58.1281453  61.5822956  54.0548701  58.1295504
  61.7133637  56.2115439  58.4023196  60.6517929  56.3446700  58.6107536
  62.5794003  57.3286637  58.4037007  62.1876035  58.3205815  58.6288552
  63.9707505  57.1580357  58.1095650  64.6327867  58.0236070  58.0851856
  65.9870725  56.9957635  55.3979947  64.8830344  57.3601543  54.9731439
  67.0819276  57.7440207  55.3215781  67.9896918  57.3903529  55.5880037
  66.9856883  59.0734259  54.9038006  66.1565945  59.6182100  55.3553679
  68.2801121  59.8103536  55.2172930  69.1186844  59.2817661  54.7639809
  68.2291710  60.8223032  54.8154681  68.4207407  59.8554574  56.2972413
  66.6825070  59.0040297  53.3999937  65.9223408  59.8085506  52.9043786
  67.1980048  57.9846532  52.7090650  67.6699281  57.2531784  53.2212489
  67.0386892  57.8272261  51.2632858  67.3938723  58.7201572  50.7488753
  67.8611445  56.6106992  50.7686600  67.5119657  55.7737838  51.3734294
  67.5460159  56.4677953  49.7350390  69.3876370  56.6821212  50.8306384
  70.1331581  55.4997761  50.7268294  69.5996201  54.5584229  50.5953348
  71.5141034  55.5088778  50.7877245  72.0701283  54.5715643  50.7681952
  72.2161942  56.7623237  50.9423440  73.6066292  56.7551880  50.9392760
  73.9769847  55.8763319  50.8295103  71.5149301  57.9491516  51.0287399
  72.0215795  58.9092217  51.1270879  70.0845131  57.8954532  50.9860843
  69.5018097  58.8123050  51.0751891  65.5718447  57.5016395  50.9889669
  64.9796245  58.0030201  50.0536768  65.0077130  56.6266635  51.8185044
  65.5820908  56.0725496  52.4374933  63.6056644  56.4094245  51.8274985
  63.2695209  56.0247427  50.8646244  63.2827612  55.3996033  52.8854601
  63.9275341  54.5441864  52.6838936  63.5037071  55.7948172  53.8769686
  61.8357227  54.9643699  52.8276459  61.1860894  55.8018112  53.0821447
  61.5325480  54.5046498  51.4504417  62.1815148  53.6668646  51.1953790
  60.4912877  54.1873819  51.3937084  61.7017267  55.3213809  50.7487085
  61.5726702  53.8675346  53.8778976  61.7903210  54.2565268  54.8725899
  60.5280627  53.5600985  53.8291183  62.2133203  53.0091444  53.6758267
  62.8771148  57.7368275  52.0732907  62.1147855  58.1410159  51.2422770
  63.1467826  58.4393008  53.1831278  63.7487560  58.0574893  53.8986328
  62.5473261  59.7641815  53.4095654  61.5083647  59.6617694  53.7228864
  63.3029895  60.4724430  54.4861333  63.4819294  59.8331263  55.3506296
  64.2573149  60.7813245  54.0595711  62.6359376  61.7249418  55.0053928
  61.6441318  61.6478541  55.9670818  61.3449067  60.6591534  56.3149828
  61.0547341  62.7427473  56.4703326  60.2525554  62.6671695  57.2044293
  61.4736898  63.9565155  56.0500649  61.0146261  64.8520955  56.4687496
  62.4643857  64.0699511  55.1080633  62.7884808  65.0575091  54.7797466
  63.0429191  62.9535856  54.5830431  63.8257003  63.0480002  53.8304213
  62.5400446  60.6340213  52.1265144  61.5030855  61.1898516  51.7720647
  63.6600819  60.7179838  51.4231342  64.5401023  60.3766778  51.7825414
  63.6614718  61.4068301  50.1774352  63.3575355  62.4251844  50.4196676
  65.0466021  61.4534467  49.5034480  65.4909584  60.4581353  49.5048306
  64.8758391  61.9496674  48.0185342  64.4319332  62.9451791  48.0163532
  65.8508886  61.9861310  47.5326851  64.2263395  61.2616145  47.4773917
  65.8953939  62.4798579  50.1998886  66.0066874  62.2083365  51.2496466
  66.8777674  62.5195886  49.7292897  65.4181598  63.4570815  50.1265224
  62.6526561  60.8597241  49.2212161  61.8618357  61.6588733  48.6622727
  62.6813554  59.5213657  49.0105454  63.3380873  58.9350083  49.5055075
  61.7655330  58.8885435  48.0598028  61.9958655  59.2791150  47.0685914
  61.8469184  57.3399397  48.0136770  61.5592258  56.9493755  48.9897875
  61.1248530  57.0136698  47.2651655  63.2420023  56.7663729  47.6409197
  63.5464496  55.6549728  48.0547888  64.0491887  57.4716068  46.8736321
  64.9571676  57.1035746  46.6282213  63.7559331  58.3767196  46.5347033
  60.3310127  59.2436737  48.4204688  59.5198790  59.5020951  47.5558379
  60.0288515  59.1584329  49.7091575  60.7475391  58.9234816  50.3787734
  58.6870115  59.2812554  50.1733298  58.1090591  58.6128577  49.5351175
  58.5132614  58.8543591  51.6671237  59.3147563  59.2734603  52.2754497
  57.1593651  59.3956688  52.1594597  56.3572861  58.9766209  51.5518671
  57.0112833  59.1120333  53.2014402  57.1492448  60.4822872  52.0742704
  58.4473630  57.2992562  51.7943451  57.4166359  57.0156649  51.5815578
  59.1012363  56.8983282  51.0198737  58.8643130  56.7291440  53.1639592
  58.2105508  57.1292877  53.9389301  58.7825780  55.6423641  53.1458453
  59.8951511  57.0119532  53.3772470  58.2057940  60.7052917  49.9291691
  57.0472225  60.9416908  49.6027927  59.1133347  61.6648821  50.0168457
  60.0779611  61.5050078  50.2698979  58.6383123  63.0380320  49.9421583
  57.5668913  63.0608304  50.1412475  59.3482986  63.9341388  50.9703454
  60.4320756  63.8182231  50.9608466  59.0908340  64.9601491  50.7074482
  58.8550975  63.6584357  52.3384187  57.6705063  63.8543027  52.6103117
  59.7207917  63.1190302  53.2020212  59.4263223  62.9144860  54.1462401
  60.6655193  62.9184037  52.9064887  58.6522073  63.6154584  48.5714943
  57.7429809  64.3826547  48.2313203  59.6877255  63.2906941  47.7974891
  60.4518895  62.7312570  48.1484632  59.8393472  63.9324522  46.4786114
  58.9442939  64.4880141  46.1987366  61.0627122  64.8825985  46.3836744
  61.1924163  65.1892902  45.3457841  60.8472160  66.1528486  47.2814472
  60.7178895  65.8469665  48.3196243  61.7157006  66.8066195  47.2013301
  59.9582627  66.6879175  46.9474339  62.3735771  64.1669986  46.7470284
  62.5349559  63.3338013  46.0630392  63.2047149  64.8677267  46.6677204
  62.3119922  63.7912687  47.7683683  59.7792796  62.9301018  45.3333990
  60.1125180  63.2727394  44.1829532  59.3116036  61.7214426  45.6712396
  59.0188232  61.5846194  46.6281400  59.2480730  60.6059263  44.7758061
  59.3548617  59.6537931  45.2955538  57.9325569  60.5988710  44.0146282
  57.9345489  59.7486111  43.3326059  56.7211498  60.4906747  44.9690030
  56.7182237  61.3408941  45.6510720  55.7990652  60.4886596  44.3877500
  56.7908371  59.5660775  45.5420337  57.8649729  61.7732785  43.2227871
  57.0381192  61.7832518  42.7351255  60.3528219  60.4955506  43.7367714
  60.1210689  60.1985897  42.5511771  61.5503134  60.7108706  44.1988756
  61.6724075  61.0488820  45.1427721  62.7158370  60.5135865  43.3930048
  62.5416601  59.6912565  42.6990776  63.0550204  61.7787830  42.5818861
  64.0542324  61.6818641  42.1572907  62.3293889  61.9009499  41.7777503
  63.0115799  62.9104236  43.4325290  63.2229092  63.6988504  42.9272342
  63.8535923  60.1495356  44.2963878  63.7123333  60.1134147  45.5481074
  64.9625741  59.7987121  43.6346234  64.9542103  59.9000011  42.6297503
  66.1321847  59.2275850  44.2542289  65.8377102  58.5940506  45.0908997
  66.9090383  58.3696727  43.2364003  67.0159481  58.9816950  42.3408009
  67.8914171  58.1925237  43.6741791  66.2396049  56.9728983  42.8492439
  65.4251487  57.2173887  42.1673448  66.9941100  56.3913487  42.3195070
  65.6860195  56.1407332  44.0397537  66.0620528  56.3481037  45.2102909
  64.8559702  55.2302514  43.7996453  67.0120446  60.3229912  44.8365183
  67.2189699  61.3652814  44.2500808  67.5347111  60.1006215  46.0241182
  67.3915269  58.9211734  46.9099932  67.5920725  58.0137514  46.3403732
  66.3758778  58.8851764  47.3040238  68.4182383  59.1675380  47.9877210
  69.2268747  58.4538939  47.8298659  67.9361851  58.9639711  48.9439044
  68.9030816  60.5440380  47.9309423  69.9916477  60.5885479  47.9647313
  68.4911946  61.0863692  48.7820155  68.3902349  61.1695629  46.6057944
  67.7259065  62.0090548  46.8107812  69.5768084  61.6518166  45.7281296
  69.9982519  62.7955558  45.8618788  70.1417644  60.8008774  44.8769737
  69.8779232  59.8261787  44.8981743  71.2134140  61.2084291  43.9728305
  71.9105535  61.8341826  44.5300811  71.9999342  60.0116154  43.3588688
  72.9480938  60.3317147  42.9268629  72.1891273  59.2979301  44.1607162
  71.2631349  59.2588951  42.2749828  70.4886820  58.1287819  42.5330021
  69.9781959  57.6740401  41.3961522  69.3340724  56.7947754  41.3862748
  70.3958622  58.4565575  40.4121566  70.1556833  58.3556280  39.4363353
  71.2192459  59.4428014  40.9297928  71.6832044  60.1703958  40.2638722
  70.7167539  62.1182336  42.8412571  71.5212677  62.7864792  42.1977788
  69.3983020  62.1877068  42.6543082  68.7782343  61.6521008  43.2448517
  68.8116861  63.0030102  41.5930376  69.4918550  63.0774228  40.7445494
  67.5158494  62.3403642  41.1238847  66.8663209  62.1827077  41.9849052
  67.0193564  62.9981280  40.4104833  67.7914469  61.0922119  40.5042333
  68.3890945  61.2936700  39.6152267  68.3587931  60.4599376  41.1872023
  66.5678260  60.4129863  40.1204032  65.6431057  60.2153024  40.9662255
  66.5569124  60.0419156  38.9200202  68.4948452  64.4294171  41.9929567
  68.2317229  65.2689312  41.1399427  68.4609655  64.7156939  43.2865145
  68.7320334  64.0552930  44.0010018  67.8526915  65.9881846  43.7071105
  67.5854171  66.5324328  42.8013194  66.6098846  65.7615489  44.5140908
  66.1463749  66.7220291  44.7393369  65.6254368  64.8925204  43.7218478
  66.0881030  63.9316295  43.4966154  64.7244152  64.7315086  44.3137395
  65.3631145  65.3958946  42.7913086  66.9569386  65.0255065  45.7341498
  67.6719727  65.6052530  46.3178640  66.0571776  64.8572455  46.3259421
  67.3999823  64.0661824  45.4667357  68.8828107  66.8691511  44.4122811
  69.8113236  66.3603981  44.9856764  68.7637901  68.1806179  44.2360657
  68.0101155  68.5294001  43.6612397  69.6000887  69.1356335  44.9202762
  70.6493392  69.0163725  44.6501848  69.1439114  70.5033381  44.4860109
  69.3909744  70.6494591  43.4344845  68.0651330  70.5835951  44.6197867
  69.7932244  71.4974551  45.2675531  69.4993844  72.3673209  44.9872116
  69.3133360  69.0221949  46.4246370  68.1549884  69.0240389  46.8173413
  70.3482163  68.9293104  47.2615553  71.2452108  68.6245899  46.9113473
  70.2024416  69.1529882  48.7177627  69.5075063  68.3861855  49.0600750
  71.5510653  68.9596833  49.4491971  72.2546616  69.7258734  49.1236130
  71.3966460  69.0424961  50.5250209  71.9538766  67.9742281  49.2152733
  69.6021127  70.5043450  49.0706607  68.8463912  70.5909975  50.0279513
  69.9059820  71.5459255  48.2943249  70.5049640  71.4323055  47.4890855
  69.3545221  72.8908299  48.5746269  69.6366862  73.1817199  49.5864893
  69.8763759  73.9645136  47.5871438  70.9594193  74.0165528  47.6985356
  69.6311307  73.6184249  46.5830634  69.2682170  75.3664553  47.8109571
  68.1860050  75.3057960  47.6958981  69.5906446  75.8589289  49.1582359
  70.6727513  75.9203012  49.2738959  69.1541255  76.8478361  49.2982875
  69.1844348  75.1742719  49.9027752  69.7820160  76.4393305  46.8241571
  69.5379689  76.1422518  45.8042136  69.3080633  77.3952990  47.0468549
  70.8628807  76.5381465  46.9244857  67.8095578  72.8611630  48.4335516
  67.0790889  73.2405523  49.3309383  67.3495694  72.4335447  47.2596303
  68.0122056  72.2327382  46.5243144  65.9503614  72.2599375  46.9819047
  65.4183755  73.2025445  47.1106766  65.7766860  71.7991157  45.5552159
  66.0309575  72.6397685  44.9096557  66.3588843  70.9260994  45.2602791
  64.3867940  71.4792566  45.2918292  63.3843515  72.3645543  45.0755817
  63.6783295  73.4124582  45.0157979  62.1811488  71.7283190  44.9760981
  61.2767252  72.1703051  44.8938443  62.4023313  70.3795821  45.0611933
  61.4935894  69.3040016  44.9831000  60.4389423  69.5112946  44.8018609
  62.0137559  68.0371403  45.1449869  61.3443787  67.1793006  45.0806048
  63.4136704  67.8128945  45.3963974  63.8079437  66.8075019  45.5441602
  64.3061004  68.8810022  45.4577552  65.3706306  68.6662355  45.5513045
  63.7935852  70.1938931  45.3132097  65.3522359  71.2427330  47.9244576
  64.2470854  71.4154498  48.4366883  66.0338072  70.1636581  48.2091890
  66.9123762  69.8616612  47.8129395  65.3362357  69.2554885  49.1314465
  64.3068450  69.1290778  48.7960746  65.9957428  67.8942705  49.1924225
  66.0398744  67.4950476  48.1791245  66.9983307  67.9109734  49.6197847
  65.2249019  66.9479224  49.9784705  64.0887577  66.3075654  49.4014357
  63.8672455  66.4592507  48.3450154  63.2668136  65.4955748  50.1743109
  62.3535855  65.0670140  49.7614539  63.6189053  65.2366042  51.4723898
  63.0227236  64.5449632  52.0676208  64.7607780  65.8682771  52.0452092
  65.0241075  65.6788903  53.0858294  65.5330347  66.7197608  51.2821555
  66.3974650  67.2151027  51.7243053  65.1710131  69.8291559  50.5646957
  64.1232948  69.7039855  51.1907720  66.2105488  70.4508146  51.0959357
  67.1051544  70.4551143  50.6271484  66.1013956  71.1301821  52.3990130
  65.8519085  70.4088763  53.1771989  67.4472708  71.7996335  52.7591713
  67.7216835  72.4598920  51.9364589  67.3490540  72.3825805  53.6749366
  68.5396213  70.7320225  52.9458314  68.6249274  70.0979231  52.0633680
  69.7753019  71.4533853  53.1411038  69.6909182  72.0873985  54.0237167
  70.5920779  70.7450742  53.2799311  69.9769271  72.0729434  52.2672643
  68.2254669  69.7984320  54.1532733  67.2746873  69.2928206  53.9845287
  69.0176710  69.0567703  54.2555077  68.1639799  70.3917349  55.0655835
  65.0071830  72.1993756  52.4250475  64.3767817  72.4066502  53.4393658
  64.8237363  72.8671284  51.3039742  65.4087649  72.6467973  50.5106929
  63.8506753  73.8670458  51.1555578  63.9202290  74.5708965  51.9849284
  64.0535769  74.6451726  49.8254136  64.9275536  75.2951863  49.8671993
  64.1407930  73.9744554  48.9706436  62.8618534  75.5386539  49.5549927
  62.5956558  76.7972796  50.1046372  63.3343207  77.1978186  50.7989300
  61.3701351  77.2919194  49.6135960  60.9283983  78.1636833  49.8685389
  60.8623693  76.3682499  48.7340970  59.6955913  76.3919641  48.0006362
  59.0381580  77.2579420  48.0778518  59.4377726  75.2992636  47.2069453
  58.5404937  75.2981968  46.5880839  60.2825314  74.1992040  47.1688246
  60.0098673  73.3211271  46.5833891  61.4546783  74.1737297  47.8434629
  62.1086138  73.3105386  47.7194867  61.7697439  75.2576848  48.6767432
  62.4626299  73.2234021  51.1382649  61.5447826  73.6869482  51.8332436
  62.3329228  72.1537902  50.3351756  63.1144182  71.8446291  49.7750117
  61.0839152  71.4674638  50.1955076  60.3215923  72.1437067  49.8086503
  61.2461230  70.3225150  49.2305045  61.7426729  70.7325558  48.3510706
  61.8741167  69.5502289  49.6746870  59.9255755  69.7242180  48.8272119
  59.3372815  68.6936198  49.5858275  59.8455149  68.3395414  50.4827259
  58.1244041  68.1283956  49.2044967  57.6475262  67.3447680  49.7932386
  57.5117238  68.6030934  48.0622298  56.3243105  68.0626114  47.6752066
  56.0169693  67.3707147  48.2654776  58.0951376  69.6086994  47.2794362
  57.5996799  69.9517853  46.3711883  59.2879276  70.1593814  47.6570227
  59.7455326  70.9388047  47.0477633  60.5591150  70.9744437  51.5427532
  59.4196287  71.1724048  51.8161162  61.3725955  70.3419226  52.3948563
  62.3153014  70.0875994  52.1365452  60.8793304  69.9501759  53.7492598
  59.9203672  69.4384297  53.8305286  61.9200420  69.1057966  54.3744574
  62.8904524  69.4872257  54.0567866  61.8485914  69.1006635  55.9312009
  60.8785699  68.7188974  56.2496563  62.6379409  68.4632199  56.3295645
  61.9792156  70.1162801  56.3047806  61.9415098  67.6798837  53.7464847
  62.1503556  67.7553855  52.6793460  62.7166559  67.0825385  54.2265126
  60.9725534  67.2028563  53.8936895  60.5530476  71.1820128  54.6595928
  59.4813853  71.2424528  55.3518470  61.4725506  72.1645960  54.6549535
  62.3646201  72.0233553  54.2028888  61.2258851  73.4493852  55.3224241
  61.2054077  73.2886242  56.4003089  62.2908536  74.4741918  55.0071661
  63.2658448  74.0531330  55.2525249  62.2522203  74.7034026  53.9422389
  62.0804300  75.7075969  55.7820620  61.0520937  75.7602327  56.1396299
  62.7622532  75.7428115  56.6317556  62.3567343  76.8826025  54.8634872
  63.3969499  76.8482597  54.5396492  61.7035272  76.8192734  53.9931945
  62.0988584  78.1824062  55.5936785  61.8505870  78.9700583  54.8822953
  61.2780709  78.0598509  56.3003519  63.2792442  78.5356971  56.2970055
  64.0398275  78.6497287  55.6423227  63.1289456  79.4026895  56.7928225
  63.5092342  77.8061680  56.9565439  59.8845527  74.0553697  54.9385230
  59.1367853  74.4177466  55.8460262  59.5637505  74.1634444  53.6273130
  60.2043915  73.9044210  52.8907091  58.3317483  74.8447401  53.2617452
  58.1595052  75.6824630  53.9375055  58.4162417  75.3738867  51.8480707
  57.4585366  75.8574251  51.6554810  59.2060069  76.1250367  51.8600930
  58.6939211  74.3799777  50.7765111  59.3546789  74.8255384  50.0328879
  59.1789329  73.5091117  51.2174851  57.4117764  73.9246655  50.0803115
  56.5198924  74.7261030  49.8490218  57.3211594  72.6504011  49.7448346
  56.4895512  72.3108329  49.2830743  58.0838933  72.0214475  49.9516091
  57.0430873  73.9978559  53.5185199  55.9439252  74.4762462  53.3095309
  57.2065551  72.7574275  53.8827858  58.1175856  72.3280025  53.8071760
  56.1084480  71.9544063  54.3757601  55.1538069  72.3531749  54.0326227
  56.2639973  70.5471797  53.8431076  57.2535902  70.1302665  54.0301596
  55.5046285  69.8638500  54.2232649  56.0682337  70.5712885  52.1033383
  56.2474639  69.2655213  51.9251621  56.0766457  71.9324101  55.9086785
  55.4012024  71.0965963  56.5318909  56.7912802  72.8117175  56.5984663
  57.3967393  73.5376515  56.2427440  56.6491077  72.6696256  58.0829139
  56.5582615  73.6747617  58.4946754  55.7271087  72.1178273  58.2660421
  57.8003479  71.9535585  58.7740311  57.8638425  71.9161355  60.0348217
  58.7121778  71.3815020  58.0026307  58.7043304  71.4435416  56.9945688
  59.7694365  70.6323944  58.6326758  60.7062629  70.8577164  58.1230822
  59.8403056  70.9412898  59.6755855  59.5262403  69.1479492  58.5769355
  58.4793285  68.7408853  58.0853516  60.4833233  68.3515047  59.0808297
  61.2837390  68.7978223  59.5053703  60.4738915  66.8764150  58.9818842
  60.3430570  66.6135903  57.9321677  61.7988451  66.2092825  59.5057948
  61.6568536  65.1290970  59.5395298  62.9812396  66.5403478  58.5887518
  63.1241483  67.6204076  58.5548780  63.8842394  66.0667947  58.9740285
  62.7774986  66.1696459  57.5841771  62.1087327  66.6976968  60.8116577
  62.9178838  66.2859265  61.1236194  59.3593839  66.1633048  59.6601907
  58.7377845  65.1793665  59.0974575  59.0739389  66.6436385  60.8696959
  59.6509967  67.3336057  61.3290965  57.9554583  66.0839603  61.6037057
  58.0333894  64.9971296  61.5749809  57.9139488  66.5296321  63.0559865
  57.6744179  67.5919438  63.1030936  56.8344795  65.7246218  63.8132403
  57.0735960  64.6621806  63.7669626  56.8054538  66.0449528  64.8547031
  55.8616900  65.8979515  63.3530904  59.1948681  66.2937330  63.6486555
  59.1786545  66.5723763  64.5671844  56.6182245  66.3818219  60.9370954
  55.8244435  65.4574506  60.7393036  56.3719662  67.6334328  60.5774846
  57.0186308  68.3841470  60.7733224  55.1097007  67.9604604  59.9071199
  54.2668081  67.6457900  60.5224358  55.0161333  69.4391061  59.6872542
  55.2134093  69.9078966  60.6513169  55.8112553  69.6984381  58.9882349
  53.7051984  69.9269897  59.1545507  53.8836626  70.8627359  58.6248051
  53.3264586  69.1810384  58.4558270  52.6981164  70.1518212  60.2378354
  51.7338210  70.3734614  59.7805509  52.6162007  69.2438476  60.8353078
  53.0648720  71.2597543  61.1175827  53.8199005  71.8631009  60.8243180
  52.4520167  71.5222732  62.2753660  51.4902843  70.7633656  62.7026599
  51.2001083  69.9651732  62.1560460  51.0363451  70.9743748  63.5798794
  52.8078076  72.5409062  63.0167362  53.5591771  73.1440405  62.7137958
  52.3292728  72.7188941  63.8881852  54.9065859  67.2748794  58.5597131
  53.7918127  66.8596323  58.2361616  55.9712114  67.1900468  57.7643886
  56.8171430  67.6568207  58.0587033  55.9310706  66.6148472  56.4359658
  55.0270595  66.9580709  55.9329145  57.1751160  67.0059347  55.5893609
  57.4190356  68.0429678  55.8199382  58.4208746  66.1016268  55.8736739
  58.1778527  65.0644324  55.6428738  59.2553200  66.4257796  55.2518005
  58.6981086  66.1840997  56.9245966  56.8307136  66.8959440  54.1238412
  56.5491603  65.8593822  53.9384543  55.9709311  67.5424433  53.9480225
  57.9215058  67.2758434  53.2179886  58.7815396  66.6294347  53.3929098
  57.5907975  67.1681002  52.1849723  58.2033120  68.3124958  53.4024799
  55.6876439  65.1031920  56.4580301  55.0752875  64.5264021  55.5316765
  56.0890602  64.4398144  57.5296757  56.4219013  64.9238293  58.3512873
  56.1414816  62.9829675  57.5170573  56.0237690  62.6150579  56.4978000
  57.4887328  62.4988370  58.0593553  58.2991764  63.1266882  57.6891078
  57.4760333  62.5278627  59.1488948  57.8257402  61.0910806  57.6719050
  58.0587170  60.7671969  56.3392313  57.9885042  61.5387794  55.5725303
  58.3771961  59.4759542  55.9883222  58.5571915  59.2314142  54.9414685
  58.4729655  58.4548349  56.9894629  58.7249140  57.4365481  56.6932974
  58.2481838  58.7531180  58.3255206  58.3158026  57.9983545  59.1090128
  57.9240404  60.0796675  58.6543539  57.7397992  60.3542571  59.6929855
  54.9969064  62.3842772  58.2909935  54.6485646  61.2133049  58.1013201
  54.3989886  63.1956438  59.1575295  54.6221554  64.1806103  59.1458276
  53.4417381  62.7145271  60.1494907  53.7446160  61.7345705  60.5183392
  53.3842741  63.7004413  61.3488989  53.2488242  64.7104087  60.9619641
  52.5332042  63.4350112  61.9760567  54.5767277  63.6450118  62.1206728
  54.5130895  64.2627870  62.8527273  52.0212362  62.5592939  59.5765263
  51.6194483  63.2426601  58.6354232  51.2579776  61.7055784  60.2190518
  51.6978793  61.0110922  60.8058012  49.8211144  61.6164857  60.0028517
  49.5081700  62.0475120  59.0518621  49.3000353  60.1497196  60.0803427
  49.5470155  59.7257336  61.0536545  47.7997634  60.1402607  59.8928969
  47.5520189  60.5637041  58.9195423  47.4328167  59.1152941  59.9466948
  47.3313444  60.7349576  60.6771296  50.0646915  59.2671949  59.0432670
  51.1313740  59.2848140  59.2668289  49.6992950  58.2417539  59.0985463
  49.8978463  59.6581994  58.0395842  49.1851027  62.5929053  60.9786140
  48.8965387  63.7568487  60.6004930  49.0599006  62.2046508  62.2488305
  49.1651666  61.2324811  62.5016240  48.6352250  63.1550103  63.2907663
  47.6194434  63.4766111  63.0608536  48.6395495  62.4983834  64.6771254
  49.6696555  62.2497083  64.9323557  48.0334984  63.4544294  65.7932204
  47.0031862  63.7031812  65.5388999  48.0568678  62.9478567  66.7580712
  48.6242894  64.3687312  65.8490669  47.8076749  61.3264895  64.5994437
  47.7887942  60.8902419  65.4543892  49.4517137  64.4339687  63.2771383
  50.6779601  64.3739790  63.3498498  48.7837596  65.5823032  63.1500543
  47.7949030  65.5750264  62.9446060  49.4826849  66.8896474  63.1964520
  48.7417170  67.6723657  63.0339165  50.2228160  67.1738739  64.5468779
  49.6331521  66.7313065  65.3497040  51.2112460  66.7148318  64.5272181
  50.3873365  68.7020390  64.8319295  49.5821510  69.5530222  64.3786880
  51.4559618  69.0603370  65.5716231  51.6131732  70.0343887  65.7875111
  52.0944983  68.3530901  65.9065466  50.4563940  67.0397923  62.0390255
  51.3447981  67.9356271  62.0598141  50.2149805  66.2631206  60.9944746
  49.4530354  65.6001571  60.9901850  51.0450835  66.3508636  59.8309425
  51.6021807  67.2857327  59.8922740  51.7403572  65.5118101  59.8570801
  50.2910650  66.3177271  58.5407568  49.0404917  66.3307245  58.5310843
  51.0508136  66.2095650  57.4517729  52.0220184  65.9535291  57.5581036
  50.5435207  66.4442687  56.1116262  50.0089604  67.3941106  56.0995863
  51.3852285  66.4928650  55.4207819  49.6166178  65.3595967  55.6724546
  48.8271266  65.5183363  54.7415506  49.6634564  64.2538969  56.3771128
  50.3091160  64.1731121  57.1495743  48.8526089  63.0761092  56.0177573
  48.4008978  63.1990225  55.0334055  49.7761464  61.8548518  55.9833814
  50.4917652  61.9507769  56.7999519  49.1648640  60.9659474  56.1392110
  50.5437271  61.7269647  54.6325377  50.9402203  60.7250152  54.4682481
  49.8031023  61.9543034  53.8657951  51.6726304  62.7154778  54.5187867
  51.6917343  63.5772639  53.6369065  52.5641520  62.6624058  55.4603293
  53.3488849  63.2980624  55.4449538  52.4690710  61.9856960  56.2040530
  47.6851972  62.8692989  56.9511160  47.0626022  61.7874076  56.9795361
  47.3476253  63.9136108  57.7171753  47.7854378  64.8182804  57.6172126
  46.3806597  63.7321910  58.7809513  46.7072531  62.9192278  59.4294317
  46.2275374  65.0130923  59.6333693  47.2178478  65.3649816  59.9224340
  45.7310958  65.7774589  59.0355488  45.3966519  64.7299251  60.8945476
  44.4356288  64.3479812  60.5500854  45.9056946  63.9607251  61.4753283
  45.1750504  65.9381717  61.7523418  46.0243310  66.1994934  62.6264581
  44.1304958  66.6388695  61.5837434  44.9876500  63.2945325  58.3062270
  44.2896877  62.5987686  59.0038767  44.5874742  63.7576283  57.1321918
  45.2756921  64.1156133  56.4854289  43.2049787  63.7868488  56.7411542
  42.6458389  63.0067623  57.2578040  42.6230015  65.1100568  57.1043897
  43.3770617  65.8841360  56.9619332  41.7675819  65.3139409  56.4603488
  42.1907195  65.1027377  58.4998107  41.4910718  64.2779267  58.6350169
  43.0675422  64.9412238  59.1268652  41.5582336  66.3297219  58.8723658
  41.9725166  67.1685147  58.3129953  40.4818517  66.2802003  58.7078996
  41.8073466  66.5512371  60.3109928  42.7601223  66.6137082  60.6402575
  40.8170198  66.6662799  61.1998483  39.5777961  66.6115736  60.7622116
  39.3987787  66.4853954  59.7762441  38.8110392  66.6960019  61.4141742
  41.0674796  66.8395336  62.5006058  42.0224823  66.8854620  62.8261214
  40.3006862  66.9237950  63.1525464  43.0390125  63.5657680  55.2601902
  43.9824863  63.6840258  54.5180781  41.8271332  63.1954501  54.8651281
  41.1361115  63.0482755  55.5868815  41.4353796  63.0127980  53.5077249
  42.1645179  63.4635124  52.8344396  41.3571273  61.5033612  53.2095183
  41.0808829  60.9950638  54.1333267  40.5765321  61.3509717  52.4641669
  42.6411011  60.9479670  52.7031297  42.8845298  61.4592161  51.7717502
  43.4130402  61.1564196  53.4439128  42.5680171  59.4285137  52.4510854
  43.5558599  59.0267170  52.6765295  41.8432478  59.0288350  53.1603568
  42.1423949  59.0024266  50.9463686  41.6081123  58.0569465  51.0396967
  41.4563832  59.7738185  50.5964522  43.3222838  58.8394876  49.9113448
  43.9578438  58.1244416  50.2351849  42.9469462  58.5741360  49.0120061
  43.8172264  59.7155989  49.8243976  40.0485112  63.6647937  53.3806398
  39.4811052  64.0428748  54.3649620  39.5424890  63.8318286  52.1496000
  40.0836201  63.5314267  51.3514552  38.2358115  64.3979208  51.9163264
  37.9544064  65.0336191  52.7558489  38.2358265  65.2278994  50.6648168
  38.6440030  64.6207801  49.8567962  37.2351398  65.5654945  50.3950840
  39.0918688  66.4535095  50.7543511  40.1776908  66.6013942  49.9090826
  40.3926835  65.8015579  49.2004643  40.9923283  67.7421058  49.9471594
  41.8166724  67.8707437  49.2457253  40.7396529  68.6940040  50.8773475
  41.3684769  69.5816420  50.9464782  39.6339836  68.5265610  51.7757907
  39.4219005  69.2926254  52.5216234  38.8488529  67.4130027  51.6990998
  38.0195585  67.2819359  52.3942201  37.2140574  63.3030836  51.7271727
  37.4863715  62.2617407  51.1218075  36.0586018  63.5481340  52.3159491
  35.9684847  64.3838045  52.8759786  34.9289740  62.6721330  52.2161431
  35.2449190  61.6367822  52.3439191  33.8029055  62.9769666  53.2397969
  33.4572906  64.0021382  53.1068581  32.6028650  61.9848268  53.0081432
  32.9476246  60.9594044  53.1413749  31.8110284  62.1975841  53.7263560
  32.2178325  62.1095398  51.9960670  34.3292451  62.8745152  54.6785364
  35.1371828  63.5919107  54.8223505  33.5218940  63.0923424  55.3777039
  34.7028454  61.8664572  54.8583771  34.4610730  62.8860095  50.7888214
  34.1506006  64.0022967  50.3623899  34.4547833  61.7891731  50.0444261
  34.7992336  60.9058915  50.3926601  33.9454434  61.8406505  48.6975052
  33.4875365  60.8875995  48.4327141  33.2060500  62.6362771  48.6059900
  35.0804478  62.1169758  47.7526824  34.8631193  62.0965480  46.5550296
  36.2811877  62.4141264  48.2577193  36.4276632  62.5918875  49.2411039
  37.4382208  62.4875263  47.3573600  38.2527464  61.9361309  47.8270518
  37.1580533  61.9968655  46.4252348  37.9110341  63.9053908  47.0495648
  37.1517729  64.8352793  47.1053752  39.1883419  64.0615693  46.7285428
  39.8159577  63.2776349  46.6206329  39.7263131  65.4244187  46.5222847
  39.2755050  66.1196656  47.2304535  41.2515775  65.4154296  46.7439802
  41.6524488  66.4251096  46.6548305  41.4877725  65.0171011  47.7307154
  41.8200696  64.6034214  45.7683218  42.7726452  64.5815106  45.8854523
  39.4077887  65.8650458  45.0898773  39.4971042  67.0527350  44.7614476
  38.9906816  64.9072809  44.2479616  38.9537936  63.9374649  44.5275961
  38.5720448  65.2559550  42.8789037  39.4185547  65.6658519  42.3279911
  38.2035718  64.3661178  42.3684951  37.4678816  66.2895731  42.9255629
  37.4188717  67.2173482  42.1076745  36.6670243  66.2003672  43.9944983
  36.8521287  65.4890106  44.6871798  35.5753251  67.0932796  44.2163048
  34.8684687  67.0408061  43.3882348  34.8667894  66.7076581  45.4740696
  35.5332009  66.9874788  46.2899712  33.9685216  67.3239366  45.5116977
  34.4923948  65.2809622  45.6099905  33.8231796  65.0500338  44.7811817
  35.3106442  64.5610461  45.6270403  33.7225608  65.1638272  46.8960492
  32.4904997  65.1512499  46.8738373  34.4414937  65.1981477  48.0549847
  33.9661582  65.1228343  48.9429518  35.4458600  65.2987140  48.0198274
  35.9278773  68.5298709  44.4011003  35.0147764  69.3705658  44.2764534
  37.1987076  68.8477495  44.7572793  37.9052115  68.1664059  44.9954443
  37.5149421  70.2549423  44.9255295  36.7431085  70.6768298  45.5692554
  38.8912378  70.5000644  45.5798990  39.6293388  69.8561335  45.1017159
  39.3015351  71.9276308  45.4247885  38.5641038  72.5721919  45.9031577
  40.2741785  72.0795676  45.8927420  39.3662078  72.1745422  44.3650934
  38.8213071  70.2208350  47.0614436  38.5297406  69.1830123  47.2227359
  39.7982394  70.3973760  47.5114839  38.0853609  70.8801653  47.5216256
  37.3628264  70.9010044  43.5216454  36.7587011  71.9915974  43.3468979
  37.8929046  70.2085221  42.5258140  38.2734832  69.2871594  42.6881413
  37.9501032  70.7512171  41.1752380  38.1959925  71.8125513  41.2099843
  39.0107731  70.0363404  40.3736873  38.9433579  68.9624650  40.5478880
  38.8713851  70.2411646  39.3122175  40.2693100  70.4953602  40.7753857
  40.9503046  70.0453705  40.2700586  36.6389153  70.6009398  40.4580797
  36.2608519  71.4774804  39.6593942  35.9693419  69.4807243  40.7172491
  36.3745070  68.7306260  41.2588145  34.6638746  69.2654094  40.1076891
  34.7645890  69.3417296  39.0250391  34.0812921  67.9004072  40.4470645
  34.0391763  67.8197027  41.5332561  33.0705026  67.8621028  40.0409398
  34.8864253  66.7621941  39.8921071  34.5674618  66.5578704  38.8700431
  35.9387951  67.0461201  39.8938557  34.6926438  65.4865943  40.7599889
  33.6265009  65.3659302  41.4449740  35.5933206  64.6003399  40.7559348
  33.6573269  70.3837287  40.4541148  32.9166182  70.8451435  39.5666149
  33.6225742  70.7780116  41.7246746  34.2218621  70.3379594  42.4082734
  32.6879042  71.7552055  42.1748414  31.7160306  71.5655927  41.7192012
  32.5323450  71.7101619  43.6909658  33.5162091  71.7611994  44.1573412
  31.9311798  72.5583890  44.0183969  31.8503981  70.4246145  44.0945799
  30.9447984  70.3229924  43.4965306  32.5277289  69.6006114  43.8702056
  31.4914312  70.3951869  45.5583172  32.3840378  70.4207818  46.1833750
  30.8404703  71.2290363  45.8210804  30.7723957  69.1367734  45.8143535
  30.6111807  68.5394034  45.0160690  30.3010745  68.7599730  46.9884433
  30.4938562  69.5194851  48.0584795  31.0026767  70.3877242  47.9726742
  30.1309589  69.2261384  48.9542210  29.6602385  67.5851868  47.0973357
  29.5435678  66.9996618  46.2826894  29.2977520  67.2923198  47.9934000
  33.0307478  73.1545850  41.7384686  32.1275063  73.9784364  41.6135255
  34.3081832  73.4625210  41.5327014  35.0644153  72.8080864  41.6738669
  34.6302864  74.7901583  41.0757400  34.0349042  75.5690951  41.5520558
  36.1617731  75.1399740  41.2157633  36.7522481  74.3085737  40.8307787
  36.4965015  76.4150242  40.4252616  35.9067108  77.2470211  40.8100066
  37.5571959  76.6418761  40.5328082  36.2632990  76.2616342  39.3716073
  36.6122678  75.1962790  42.6990668  36.3566154  76.1895136  43.0681571
  36.0270243  74.4485692  43.2343421  38.1620022  74.9255112  42.9360652
  38.7479198  75.6731560  42.4014365  38.3830226  74.9853926  44.0017403
  38.4183292  73.9322117  42.5676192  34.2251135  74.7727733  39.6137008
  33.7430327  75.7489621  39.1088854  34.4086429  73.6562431  38.9308427
  34.8575519  72.8355340  39.3116533  34.0573974  73.6560535  37.5365542
  34.5196072  74.5106370  37.0424404  34.5461807  72.3632357  36.8467114
  35.6132800  72.4577236  36.6455390  34.3769888  71.5233833  37.5205972
  33.8111584  72.1251553  35.5540560  32.7934259  71.8620106  35.8422855
  33.8057863  73.0868706  35.0410484  34.4446785  70.8867399  34.4613279
  33.8526394  69.3242437  35.1932892  32.7631645  69.3280030  35.2268922
  34.1940156  68.4857411  34.5862667  34.2464780  69.2240282  36.2046988
  32.5372054  73.8847623  37.3829362  32.0661733  74.5637597  36.4414239
  31.7824145  73.3167411  38.3273294  32.2042428  72.6912277  38.9988152
  30.3456959  73.6019645  38.4475641  29.8332676  73.2049803  37.5712537
  29.7311146  72.9761138  39.6973604  30.3439594  73.2517845  40.5555714
  28.7349352  73.4038009  39.8105434  29.6268837  71.4776274  39.6167111
  29.7761339  70.8939093  38.5205092  29.4065822  70.8972290  40.6902278
  30.0893867  75.0701538  38.5639763  29.2434709  75.5752357  37.8798054
  30.7667732  75.7469783  39.4708315  31.4589932  75.2935574  40.0499172
  30.5307467  77.1584227  39.6640982  29.4745398  77.3230247  39.8772467
  31.3421571  77.6961588  40.8111742  32.3857023  77.5289693  40.5444152
  31.1445383  78.7674207  40.8491853  31.0671829  77.0907002  42.1516737
  31.1602142  76.0048047  42.1350289  32.1152867  77.6650041  43.0412015
  32.0225945  78.7509138  43.0587212  31.9899418  77.2738321  44.0508420
  33.1012343  77.3910395  42.6657671  29.6388364  77.4787786  42.6065751
  28.9130435  77.1070872  41.8832704  29.4358671  77.0389406  43.5830213
  29.5607161  78.5638758  42.6741059  30.8960634  77.9549774  38.4248979
  30.2477864  78.9409853  38.1429982  31.9200937  77.5436488  37.6940513
  32.4798515  76.7599641  37.9983681  32.3196316  78.2488561  36.4852903
  32.1885967  79.3238354  36.6091793  33.8004031  77.9646599  36.2064546
  33.8986570  76.8980737  36.0043673  34.0812972  78.5297114  35.3176827
  34.7095231  78.3460212  37.3544116  34.4428614  77.7945698  38.2560178
  36.0869601  77.9953679  36.9524969  36.3545214  78.5468185  36.0511578
  36.7773805  78.2549445  37.7550182  36.1468793  76.9252135  36.7543060
  34.5877672  79.8062554  37.6045890  33.5554331  80.0471042  37.8583167
  35.2399796  80.0894949  38.4307219  34.8784820  80.3544267  36.7084349
  31.4874593  77.9242511  35.2417101  31.6680177  78.5712065  34.1955550
  30.6148323  76.9230901  35.3276852  30.4980133  76.4419541  36.2080038
  29.7984674  76.4808249  34.1707721  29.2958501  75.5588786  34.4631591
  29.0551018  77.2558967  33.9843035  30.5788585  76.2338786  32.9032697
  31.5936183  75.5436436  32.8895502  30.1531250  76.8682801  31.8326518
  29.3071793  77.4177586  31.8831359  30.7851656  76.6944155  30.5360942
  31.1890907  75.6849027  30.4597558  29.7582605  76.9099237  29.3791105
  30.2639087  76.6700581  28.4437584  28.9377549  76.2101469  29.5378025
  29.1945558  78.3653420  29.3076374  28.2056465  78.5924769  28.5348870
  29.7129263  79.2937729  30.0059905  32.0357437  77.5802634  30.3814398
  32.6678014  77.6289575  29.3060622  32.4202278  78.2601029  31.4583688
  31.8155970  78.4144206  32.2525394  33.6903537  78.9649086  31.4121699
  33.8621828  79.3470548  30.4059203  33.6910958  80.1353159  32.3831916
  33.6277944  79.7529751  33.4019692  34.6175253  80.6969833  32.2633666
  32.5110678  81.0447498  32.1114567  31.5913087  80.4619063  32.1608272
  32.4950122  81.8139989  32.8835319  32.5864927  81.7387909  30.7186767
  33.4891113  82.5310095  30.4740681  31.6499548  81.4247563  29.8160732
  31.6684061  81.8557923  28.9028542  30.9288615  80.7581127  30.0521073
  34.9023988  78.0274141  31.5802587  36.0027438  78.5136728  31.7371993
  34.6847981  76.6976857  31.5629576  33.7382921  76.3556170  31.4780184
  35.7733898  75.7181647  31.6455888  36.7448849  76.2077095  31.5774542
  35.7522107  74.8326819  32.9214782  34.7456149  74.4396146  33.0641740
  36.7515919  73.6549070  32.7803174  37.7585442  74.0472160  32.6380437
  36.7242447  73.0443530  33.6828563  36.4752893  73.0443071  31.9207091
  36.0324755  75.6448577  34.1485121  35.2746364  76.4214684  34.2517480
  36.0110543  74.9981275  35.0256556  37.0159675  76.1068191  34.0622795
  35.6103373  74.8313047  30.4577024  34.5567710  74.2041627  30.2844946
  36.6319980  74.7628441  29.6172338  37.4581253  75.3293887  29.7462308
  36.5493205  73.9343037  28.4433363  35.5361615  73.5518938  28.3193573
  36.9126413  74.7641195  27.2111867  37.7274061  75.4386374  27.4744035
  37.2417373  74.0883389  26.4218095  35.7197939  75.5761651  26.7198518
  34.9993509  74.8802125  26.2900694  35.2760585  76.0698408  27.5844240
  36.1012574  76.6258786  25.6735215  37.0771748  77.0288981  25.9441864
  36.1704938  76.1257133  24.7075295  35.0629436  77.7918802  25.5832009
  35.0484270  78.2630244  26.5660096  35.4579577  78.4947591  24.8496994
  33.6432459  77.3911871  25.1903442  33.2768743  76.7402161  25.8701298
  33.0572100  78.2132761  25.1615061  33.6564181  76.9549802  24.2794934
  37.4440777  72.7211423  28.6179153  38.6388021  72.8544632  28.7790370
  36.8765881  71.5191697  28.6020872  35.8726699  71.4103902  28.5817241
  37.7043502  70.3130800  28.6596677  38.5855512  70.4843847  29.2779222
  36.9040753  69.1960776  29.2640905  36.1446835  68.8676641  28.5544653
  37.6362639  68.4011344  29.4057424  36.2497487  69.5198613  30.5880266
  35.5675293  70.3654041  30.5000775  35.4854680  68.3053521  30.9568737
  36.1671247  67.4594242  31.0454676  34.9825915  68.4674756  31.9102530
  34.7436218  68.0943948  30.1866389  37.3199772  69.7392262  31.6111350
  37.9561124  70.5679695  31.3003038  36.8621100  69.9738977  32.5720659
  37.9222063  68.8357901  31.7071678  38.1880355  69.9401716  27.2783442
  37.7362853  70.5023254  26.3204977  39.0971397  68.9917509  27.1668594
  39.4638705  68.5681144  28.0071807  39.7229691  68.6561467  25.8940230
  40.6590202  68.1280432  26.0757210  38.8020046  67.7509232  25.0462661
  37.9881302  68.3257222  24.6043228  39.4092394  67.3134313  24.2538226
  38.2086390  66.6306121  25.8760566  38.9010505  65.6937742  26.1949218
  36.9490591  66.7461333  26.2592477  36.5240431  66.0164745  26.8133769
  36.4173232  67.5635408  25.9961837  40.2549564  69.8246502  25.0680006
  40.1191284  69.8305252  23.8450728  40.9001433  70.7843541  25.7176954
  40.9278894  70.7977605  26.7272249  41.5325837  71.8484504  25.0098437
  41.5832396  71.6115793  23.9470995  40.7364161  73.1388295  25.1845089
  40.4531843  73.2136798  26.2344024  41.2934036  74.0297860  24.8945752
  39.4671843  73.1534441  24.3974625  39.2893671  73.9433230  23.2779745
  38.0938593  73.7162629  22.7594856  37.7686352  74.2335738  21.8568684
  37.4804891  72.8229069  23.5151397  36.5412059  72.4771296  23.3799176
  38.3301828  72.4303040  24.5292578  38.0149519  71.6653614  25.2389010
  42.9494737  72.0145424  25.5135402  43.2121117  72.9257769  26.2634601
  43.8551224  71.1156433  25.1110147  43.6122210  69.8299088  24.3965089
  43.4402196  70.0366439  23.3402057  42.7309771  69.3481711  24.8201091
  44.8626056  69.0409059  24.6317569  45.1034496  68.4658626  23.7376548
  44.7114643  68.3613004  25.4704428  45.9463181  70.0571256  24.9460844
  46.4972764  70.2605511  24.0278458  46.6368071  69.7075553  25.7136293
  45.2259887  71.3506224  25.4287558  45.3084445  71.4851441  26.5072748
  45.7780912  72.6000500  24.7117318  45.6875962  72.6885067  23.4550079
  46.3234838  73.5575143  25.4688375  46.3775952  73.4699797  26.4735807
  46.9144177  74.7462384  24.8406797  46.3002383  75.1589471  24.0403333
  47.1525595  75.8256653  25.8726764  47.6610928  75.3840602  26.7296933
  47.9859983  76.9241135  25.3138266  47.4778697  77.3665446  24.4569947
  48.1418702  77.6868214  26.0767690  48.9497280  76.5248749  24.9977010
  45.8075233  76.3352674  26.3968264  45.2589424  75.5112004  26.8529784
  45.9781399  77.1134049  27.1407965  45.2264353  76.7445557  25.5704362
  48.2543319  74.3862042  24.2633397  49.0599427  73.7313614  24.9479053
  48.5085914  74.7967555  23.0129734  47.8320203  75.3534812  22.5105719
  49.7442609  74.4715947  22.3573460  50.3424419  73.8250976  22.9994678
  49.4695614  73.7353331  21.0398408  50.3903253  73.7008996  20.4575107
  48.9617894  72.2542242  21.3158392  48.0407431  72.2878603  21.8977686
  48.7734576  71.7514527  20.3672344  49.7225491  71.7064819  21.8720079
  48.4523477  74.4731785  20.3372523  48.2572509  74.0361485  19.5050610
  50.5234893  75.7399077  22.0395941  51.7419035  75.6806192  21.8319145
  49.8441502  76.8802109  21.9868867  48.8907529  76.9464736  22.3136008
  50.5386372  78.1280316  21.5869401  51.6161406  77.9925494  21.6803750
  50.2135121  78.4948086  20.1268995  49.1327775  78.4966515  19.9850951
  50.6148771  79.4749980  19.8695384  50.7692324  77.5364647  19.1407180
  51.8358674  77.8514181  18.3386800  52.1498455  76.8006326  17.6044236
  52.9852282  76.8424258  16.9055043  51.3086448  75.8215914  17.8939229
  51.3082846  74.8943952  17.4934147  50.4218127  76.2706866  18.8394515
  49.6261948  75.6159414  19.1949820  49.9669657  79.2071999  22.3523501
  48.7273843  79.2876586  22.4848049  50.8305238  80.0866723  22.7737581
  51.8186175  79.9549865  22.6111876  50.3928006  81.3161246  23.4592771
  49.3371964  81.5481195  23.3179358  50.6868884  81.2434573  24.9907476
  51.7302143  80.9620030  25.1334146  50.4234377  82.6053413  25.6715835
  49.3801257  82.8872616  25.5297308  50.6361946  82.5263548  26.7376961
  51.0678886  83.3644584  25.2282711  49.9111187  80.1303170  25.6105516
  50.1963124  79.1858978  25.1470444  50.1240694  80.0891110  26.6787528
  48.8452886  80.3013800  25.4594076  51.1943798  82.4742466  22.8793795
  52.4416735  82.4288897  22.8779567  50.4974375  83.5125138  22.4251091
  49.5014689  83.5508736  22.5884320  51.1216784  84.5997553  21.6406410
  52.2016662  84.5680011  21.7845757  50.8188397  84.4680201  20.1212544
  51.2772928  83.5444392  19.7678164  49.7368346  84.4029736  20.0066510
  51.3622843  85.6772885  19.2794856  51.7024328  86.7572360  19.8284477
  51.4615587  85.5610584  18.0418890  50.6361432  85.9247268  22.1462486
  49.4838715  86.3005969  21.9040635  51.5474178  86.6257599  22.8107997
  52.4617077  86.2101980  22.9179522  51.2926089  87.9098126  23.4516406
  50.2347718  88.1600548  23.3712748  51.6725451  87.8503288  24.9438012
  51.2878960  88.7706072  25.3833827  51.1297351  86.9982650  25.3530013
  53.1819332  87.7099285  25.2765779  53.5339564  86.7124165  25.0136135
  53.7472196  88.4538574  24.7152197  53.4244326  87.9358409  26.7683267
  52.7169775  88.7392659  27.4112727  54.4118534  87.2282545  27.3310840
  54.6126888  87.3409221  28.3144825  54.9514300  86.5850049  26.7696676
  52.0459695  89.0457666  22.7365928  52.4442173  90.0334638  23.3417632
  52.2153469  88.8752592  21.4327955  51.8896312  88.0169326  21.0117443
  52.8874365  89.8657662  20.5710296  53.8771914  90.0889330  20.9693777
  53.0440296  89.3229706  19.1442972  52.0591955  89.2506777  18.6828053
  53.6643191  90.0108964  18.5697547  53.6534790  88.0389887  19.1631685
  53.7438732  87.7144541  18.2642213  52.1359482  91.1631379  20.5151631
  52.7278336  92.2264021  20.3616873  50.8309758  91.0713563  20.6388815
  50.4152483  90.1775837  20.8589737  49.9515022  92.1955975  20.3914148
  50.5168381  93.1009570  20.1704654  49.0900715  91.8416924  19.1648773
  49.4999331  92.3412865  18.2870855  49.1150401  90.7626265  19.0129123
  47.7662830  92.2546752  19.3611276  47.2424778  92.0275399  18.5893520
  49.1386639  92.4645907  21.6918127  49.3391924  91.7515859  22.7001631
  48.2344670  93.4383612  21.7506258  48.1245006  94.1823537  21.0764731
  47.6327263  93.6061874  23.0723321  48.3477217  93.2305724  23.8043117
  47.2544268  95.0615313  23.4508155  46.9495241  95.5695429  22.5359069
  46.4171903  95.0367593  24.1483265  48.4546527  95.8337955  24.1022414
  48.5522497  97.0850263  23.9203309  49.3143748  95.1790768  24.7882060
  46.5760701  92.5653639  23.3934522  46.2897063  92.3006189  24.5681159
  46.0054554  91.9517450  22.3755167  46.1576927  92.2036140  21.4093463
  45.1620230  90.8077488  22.6630502  44.7316490  90.9420793  23.6554376
  44.0272546  90.6184494  21.6610999  44.4320131  90.6737660  20.6505506
  43.5979155  89.6302950  21.8263840  42.9219210  91.6595993  21.8009627
  42.1400808  91.8702177  20.8518643  42.8293935  92.3083399  22.9783595
  42.1110672  93.0056236  23.1121601  43.4787850  92.0943764  23.7217377
  46.0921530  89.6600797  22.5358503  46.6809407  89.5069427  21.4872473
  46.2441897  88.8871589  23.6188171  45.8310002  89.2094869  24.4822280
  46.9664755  87.6122864  23.6277902  47.9047886  87.6297228  23.0733863
  47.2293398  87.1467164  25.0580058  46.2845473  87.0909704  25.5987090
  47.8899348  85.7643537  25.0409004  48.8350726  85.8194078  24.5007298
  48.0752632  85.4369718  26.0639230  47.2300862  85.0518686  24.5458610
  48.0264541  88.2216985  25.8232817  48.9423981  88.4016841  25.2604739
  47.4195247  89.1270804  25.8277411  48.3832075  87.8332206  27.2777803
  48.9905645  86.9281218  27.2741043  48.9430592  88.6439460  27.7440308
  47.4676905  87.6535159  27.8413712  46.1379002  86.5525433  22.9136218
  44.9525260  86.4869617  23.1010571  46.7514422  85.7372648  22.0671253
  47.7547824  85.7556046  21.9527949  45.9815235  84.7631972  21.2896157
  44.9118847  84.9055906  21.4435511  46.2990445  84.8566478  19.7920953
  47.3820282  84.8431256  19.6693602  45.6717885  83.6751103  18.9946461
  44.5887039  83.6882495  19.1165298  45.9192563  83.7772784  17.9380374
  46.0677642  82.7316709  19.3704449  45.8076190  86.1868188  19.2520340
  44.7755735  86.0729132  18.9203590  45.8527712  86.9290986  20.0489540
  46.6599612  86.6404912  18.0943380  46.6149371  85.8988867  17.2967821
  46.2899752  87.5960094  17.7225926  47.6921359  86.7550699  18.4253770
  46.3930967  83.4228476  21.7997768  47.5744235  83.1356044  21.9024232
  45.4353522  82.5996112  22.1657445  44.4517039  82.8159199  22.0899432
  45.8153463  81.3079031  22.7007403  46.8947989  81.2548139  22.8423839
  45.0987929  80.9895240  24.0474949  44.0238476  80.9387267  23.8742537
  45.5827663  79.6678076  24.6048473  46.6576263  79.7179932  24.7787958
  45.0722929  79.4607615  25.5454054  45.3673424  78.8716668  23.8922103
  45.3219626  82.1254136  25.0502890  44.8960195  83.0321015  24.6206492
  44.7840572  81.8690407  25.9629939  46.7875197  82.3595272  25.3753726
  47.3260235  82.6164195  24.4631666  46.8753964  83.1769998  26.0909950
  47.2140620  81.4533573  25.8055095  45.4148908  80.3465078  21.6775636
  44.3472799  80.5067943  21.1142083  46.2464007  79.3428847  21.4099577
  47.2172296  79.3298339  21.6882025  45.7582141  78.2690319  20.5191614
  44.6970313  78.4268044  20.3265531  46.5028687  78.2391885  19.1735935
  46.3782044  79.2164947  18.7072988  47.5585938  78.0705286  19.3859573
  45.9939542  77.1524023  18.2236273  45.9438870  76.2120909  18.7726341
  44.9959620  77.4263462  17.8814791  46.8950191  76.9934076  17.0485227
  47.6503147  77.9563013  16.8029389  46.8671147  75.9372773  16.3624097
  45.7466573  76.8973431  21.1544017  46.6775680  76.5097392  21.8394488
  44.6828038  76.1637710  20.9110524  43.9202741  76.5057292  20.3438555
  44.5876256  74.8473283  21.4483676  45.2724121  74.7737635  22.2932077
  43.1826442  74.5744175  21.9395631  43.1598198  73.5878309  22.4024088
  42.7398580  75.6328886  22.9661727  42.7619837  76.6197524  22.5038849
  41.7267035  75.4123131  23.3022731  43.4169595  75.6170430  23.8202119
  42.3031436  74.6536531  20.8252375  41.4037976  74.4833537  21.1146768
  44.9345667  73.8401295  20.3623790  45.0726663  74.1893757  19.1907627
  45.0163639  72.5750044  20.7562084  44.7944060  72.3535671  21.7163124
  45.4478622  71.5250391  19.9066814  46.4133239  71.7610329  19.4591439
  45.5935566  70.2678219  20.7354323  46.3361534  70.5835556  21.4682088
  44.6354504  70.1154630  21.2323420  46.0424788  68.9633460  20.0873170
  45.3942830  68.7858411  19.2291591  47.4940750  68.9775261  19.6316808
  48.1429500  69.1545307  20.4894275  47.7431689  68.0171214  19.1803761
  47.6375125  69.7711005  18.8983557  45.8044143  67.8038213  21.0608378
  44.7432756  67.7437984  21.3026670  46.1247793  66.8697157  20.5994114
  46.3756348  67.9721210  21.9737898  44.4991757  71.2752734  18.7363169
  44.9340472  70.8136970  17.6933677  43.2159348  71.5845342  18.9116952
  42.8954336  71.8766605  19.8238578  42.1996241  71.4145908  17.8216137
  42.5399811  70.6377256  17.1369701  40.8074080  71.0098341  18.3790187
  40.1615186  70.7078572  17.5545576  40.9690108  70.1607218  19.0430918
  40.0852378  72.1570962  19.1924741  38.8887566  72.0199603  19.5478099
  40.7996864  73.2399318  19.5075537  40.3691910  73.9917331  20.0267534
  41.7674284  73.3023924  19.2252860  42.0833785  72.6808500  16.9423751
  41.0649598  72.9177618  16.2958411  43.1119025  73.5063875  17.0258270
  43.7590993  73.3087606  17.7756132  43.2257096  74.7826009  16.3340949
  44.0669736  75.3397869  16.7463059  43.4541413  74.5931593  14.8214721
  42.5965687  74.2579508  14.2381166  43.7857591  75.5642454  14.4538833
  44.5595659  73.6324741  14.5451453  44.3279445  72.3511464  14.1108864
  45.4778841  71.7033147  13.9978020  45.5122186  70.6759158  13.6353499
  46.4421758  72.5175901  14.3865282  47.4279007  72.2991183  14.4132936
  45.8904978  73.7243423  14.7540079  46.5291902  74.5237209  15.1297298
  42.2261792  75.8454526  16.6449102  42.1491826  76.8088728  15.8934761
  41.5313638  75.7440452  17.7713542  41.4162014  74.8576429  18.2415966
  40.7543156  76.9063433  18.2629069  40.2758056  77.4003595  17.4172857
  39.7009287  76.4961535  19.2328871  40.1576150  75.9293361  20.0442161
  39.2172829  77.3847790  19.6385119  38.6670638  75.6329206  18.5323520
  38.3002628  76.1811686  17.6646067  39.1683299  74.7233183  18.2015120
  37.5104447  75.2719436  19.4222121  37.4137062  74.0906663  19.8141696
  36.7001499  76.1662707  19.7374237  41.5804829  78.0560054  18.8106218
  42.6839195  77.8450530  19.2679889  41.0671880  79.2840965  18.7087653
  40.1787663  79.4005349  18.2426663  41.7731141  80.4682940  19.1443402
  42.6399971  80.1674025  19.7326237  42.2532565  81.3216064  17.9663168
  41.3522642  81.7222293  17.5017594  42.9241413  82.1413309  18.2233486
  42.9452039  80.5158949  16.9269705  44.3221759  80.4113657  16.8621428
  44.6517121  79.5778780  15.8892537  45.6974004  79.3717177  15.6609276
  43.5353351  79.1213149  15.3397699  43.4806368  78.4613213  14.5771976
  42.4555343  79.6868774  15.9702993  41.4441940  79.4273306  15.6573659
  40.9110094  81.2628975  20.0906270  39.7047281  81.4265098  19.9148391
  41.5538232  81.6452690  21.1621248  42.5232353  81.3840124  21.2720538
  40.9385211  82.4360947  22.1960938  39.9209880  82.6982264  21.9062443
  40.8858290  81.6456722  23.5130132  41.9338326  81.4248028  23.7155090
  40.4586156  82.1844772  24.3587543  40.1324950  80.3578035  23.3062959
  40.8111651  79.2205172  22.8949813  41.8913741  79.2571133  22.7538832
  40.1511415  78.0912495  22.6733682  40.6970435  77.1797684  22.4298626
  38.8007404  78.0572014  22.8128370  38.2035112  76.8652068  22.5225348
  38.8283739  76.1888746  22.2510189  38.0756044  79.1646573  23.1576981
  36.9909481  79.1187570  23.2552403  38.7185398  80.3169253  23.3763152
  38.1543752  81.2204660  23.6074702  41.8229053  83.6362697  22.3188966
  42.9962929  83.6023920  21.9763285  41.2274770  84.7125981  22.7554092
  40.2426174  84.7238224  22.9790720  41.9823177  85.8998880  22.9721079
  43.0497575  85.7218073  22.8418826  41.5362876  86.9016080  21.9519892
  40.4504847  86.8500003  21.8715661  41.8279284  87.8943423  22.2948074
  42.1487839  86.6369219  20.6117225  43.2254248  86.5417739  20.7527618
  41.7482120  85.6971615  20.2316020  41.8665219  87.7426774  19.6197583
  41.7976040  88.9564344  20.0168103  41.7113589  87.3477437  18.4454463
  41.6446970  86.3957426  24.3577119  40.5441913  86.1465616  24.8835692
  42.5870871  87.1030832  24.9633050  43.4245552  87.3994046  24.4827426
  42.4258566  87.4731721  26.3402792  41.4081773  87.8230540  26.5135152
  42.6912927  86.2670367  27.2507159  42.5236389  86.5425244  28.2919161
  42.0284461  85.4445993  26.9817714  44.3719164  85.6030015  27.1719663
  44.1791310  84.6311651  28.0592464  43.4322025  88.5401154  26.5460316
  44.2116216  88.7964412  25.6417059  43.3770212  89.1892898  27.7163519
  42.6344274  88.9796504  28.3680459  44.3600616  90.1867049  28.0920269
  44.7882438  90.6270974  27.1915750  43.7473019  91.2809794  28.9163740
  43.0551543  90.8248072  29.6241436  44.5467271  91.7819650  29.4622978
  43.0122425  92.2838825  28.0732316  43.2912396  93.2818152  28.4114500
  43.3247696  92.1512676  27.0374506  41.4459580  92.1124135  28.1760962
  41.0174913  92.5497201  27.2742767  41.2428525  91.0416200  28.1918714
  40.8008978  92.7871981  29.4435559  40.1759780  92.0358533  29.9263156
  41.6162623  93.0646291  30.1116217  39.9654090  94.0133953  29.1297996
  39.2095634  93.7564528  28.5111093  39.5859006  94.3903962  29.9865047
  40.5443856  94.7098981  28.6828444  45.4587535  89.5935268  28.9047911
  46.5336081  90.1735594  28.9306948  45.1990933  88.4610639  29.5854036
  44.3493497  87.9516264  29.3891675  46.1571045  87.8819594  30.5566098
  47.1626410  88.2201746  30.3063981  45.8467479  88.2962698  31.9871270
  44.8058583  88.0362253  32.1795459  46.4949626  87.6920334  32.6218049
  46.0610886  89.7348741  32.2881100  45.0038858  90.6383766  32.2118764
  44.0198832  90.2692200  31.9228060  45.1855076  91.9954623  32.4975561
  44.3627170  92.7059176  32.4177391  46.4678482  92.4428353  32.8616550
  46.6683599  93.7602620  33.1650358  45.8685090  94.2867787  33.0970779
  47.5416273  91.5431407  32.9490117  48.5388745  91.8799288  33.2321586
  47.3148543  90.1978129  32.6659992  48.1321122  89.4802637  32.7388877
  45.9921539  86.4228961  30.5107876  44.9043234  85.9326549  30.2068316
  47.0746470  85.7288194  30.8432696  47.9081015  86.2201438  31.1331890
  47.0880357  84.3034233  30.8658262  46.0908491  83.8749153  30.7653317
  47.9865563  83.7598084  29.7017607  48.9893988  84.1656922  29.8346682
  48.0549687  82.2217145  29.6761347  47.0524858  81.8150861  29.5427837
  48.6899542  81.8994457  28.8508852  48.4709616  81.8602881  30.6165721
  47.4958999  84.2641117  28.3718274  47.5274967  85.3536072  28.3616666
  48.1331727  83.8752377  27.5776233  46.4710652  83.9293550  28.2113513
  47.7193625  83.9935073  32.1814635  48.7286233  84.6494011  32.5704313
  47.1246078  83.0219027  32.8780870  46.1998849  82.7418087  32.5839199
  47.7221801  82.3374235  33.9950259  48.6470687  82.8103767  34.3251707
  46.7321909  82.2825380  35.1625322  45.8473740  81.7371595  34.8342617
  47.3199014  81.6041973  36.3651570  48.2045559  82.1493065  36.6943122
  46.5841348  81.5872824  37.1691856  47.5985163  80.5825781  36.1067639
  46.2352189  83.6819069  35.5334913  47.1121046  84.2696171  35.8050953
  45.7777946  84.1048508  34.6390747  45.2047184  83.7105734  36.7086721
  45.6616084  83.2881825  37.6036232  44.9057009  84.7401372  36.9053598
  44.3272989  83.1234138  36.4376031  48.0354824  80.8920337  33.4899160
  47.1385907  80.1685776  33.1309403  49.3147732  80.5304613  33.4197844
  49.9867846  81.2712940  33.5600226  49.8031742  79.2101629  33.1760354
  49.2103245  78.7343177  32.3948825  51.2614438  79.2578531  32.7216376
  51.3247296  79.8329984  31.7978941  51.8361293  79.7585179  33.5008497
  51.8615530  77.8902532  32.4816117  51.9937861  77.4750870  31.3388621
  52.2422153  77.1869458  33.5496678  52.6471317  76.2696502  33.4283769
  52.1237048  77.5750839  34.4745488  49.6999952  78.4257802  34.4844940
  50.3036081  78.7996296  35.4818456  48.8661131  77.3805420  34.5110972
  48.3451591  77.0747201  33.7016658  48.6447679  76.6851136  35.7845864
  49.3086802  77.0611611  36.5629872  47.2084787  76.8992626  36.2268991
  46.5316107  76.5193676  35.4616348  47.0328959  76.3683538  37.1625309
  47.0281574  77.9640510  36.3745781  48.9907626  75.1695229  35.5994749
  48.2479637  74.2790732  36.0679257  50.1091138  74.8891419  34.8900129
  50.7123911  75.6317098  34.5663639  50.4660529  73.5121563  34.5573521
  49.8735910  72.7814744  35.1079808  50.3657488  73.2194885  33.0398124
  50.6776309  72.1906695  32.8599195  48.9768864  73.4067632  32.5543485
  48.6644423  74.4355429  32.7334901  48.9332410  73.1951367  31.4859806
  48.3108053  72.7274412  33.0862854  51.3761327  74.0446938  32.2545343
  51.2536184  75.0814398  32.5679809  52.3671076  73.6934177  32.5420642
  51.2179406  73.9470714  30.6863659  50.2273075  74.2986380  30.3980141
  51.9763712  74.5644796  30.2050246  51.3407945  72.9106148  30.3720977
  51.8943006  73.3268307  35.0410823  52.5778474  74.3079294  35.1465679
  52.3645062  72.0956094  35.2708861  51.7601415  70.7365550  35.1613270
  51.3922463  70.6001923  34.1443911  50.9268987  70.6686639  35.8607526
  52.9050706  69.7622399  35.5133334  53.3121909  69.3265984  34.6008815
  52.5282613  68.9680315  36.1578093  53.9699261  70.6239765  36.2569305
  54.9711062  70.2816188  35.9951507  53.8410916  70.5755689  37.3382066
  53.7655747  72.0775214  35.7652876  53.8330376  72.7913736  36.5862396
  54.7874375  72.4359487  34.6975534  54.4660406  72.3652712  33.5381467
  56.0506212  72.7683863  35.1023077  56.4433321  72.7706730  36.5151764
  56.3442085  71.7598234  36.9107241  55.7825387  73.4415219  37.0641871
  57.8328380  73.2381688  36.5066270  58.3949386  72.6597754  37.2398412
  57.8437721  74.2908301  36.7892681  58.3805189  73.0497306  35.1247404
  58.8221852  72.0642740  34.9767363  59.1192762  73.8169460  34.8929691
  57.1749193  73.2102979  34.2330863  56.9543814  74.2450551  33.9709053
  57.4227456  72.4097791  32.9666576  57.6916058  72.9895437  31.9013660
  57.4238725  71.1002916  33.1472517  57.3361659  70.7563623  34.0928307
  57.6142353  70.1516182  32.0965616  58.5763374  70.3327552  31.6173455
  57.6178783  68.7040349  32.6953055  58.3462793  68.6794111  33.5058152
  56.2613433  68.2863059  33.2233067  55.5324626  68.3102388  32.4132081
  56.3231975  67.2752949  33.6259604  55.9506177  68.9722991  34.0113191
  57.9711105  67.8033504  31.6631788  57.9795170  66.9078241  32.0089565
  56.5617945  70.2503168  30.9554989  56.8876139  70.0174537  29.7756962
  55.3000777  70.5742628  31.3127757  55.0503321  70.5656989  32.2913733
  54.2612366  70.8656480  30.3390957  54.3782140  70.2449557  29.4507509
  52.9075274  70.5611349  30.9714770  52.7213455  71.3020607  31.7489501
  52.1217428  70.6201784  30.2183791  52.9150028  69.1653707  31.5903725
  53.4979830  69.1748178  32.5113208  51.5159759  68.7609760  31.8936702
  50.9324538  68.7508483  30.9730736  51.5129659  67.7648173  32.3361176
  51.0759133  69.4705220  32.5943768  53.5325863  68.1258192  30.7046811
  54.5672885  68.3958236  30.4935212  53.5051236  67.1581244  31.2055941
  52.9751103  68.0664434  29.7699116  54.3706662  72.3391075  29.8584958
  54.1296137  72.6622383  28.6823299  54.7633320  73.2393031  30.7466543
  54.8086632  73.0426018  31.7362769  54.9974191  74.6164632  30.3000680
  54.0809114  75.0126161  29.8628316  55.4083014  75.5194161  31.4926843
  56.3862538  75.1910423  31.8446502  55.4764566  76.9947587  31.1044147
  54.4986828  77.3239968  30.7527611  55.7679778  77.5863045  31.9722788
  56.2114250  77.1285295  30.3106721  54.4221363  75.3685337  32.5272397
  54.6576781  75.9202205  33.2767475  56.0043267  74.6023194  29.1376335
  55.8313959  75.2918877  28.1253972  56.9949291  73.7250226  29.2778955
  57.0345171  73.1975497  30.1383050  58.0631415  73.5841525  28.3516668
  58.4827845  74.5853528  28.2537028  59.1142945  72.6789714  28.8757648
  58.7117770  71.6704801  28.9707657  59.9608872  72.6685438  28.1892720
  59.4439704  73.0315870  29.8530443  57.6029322  73.1557970  26.9590552
  58.3776268  73.2651335  25.9846093  56.3506741  72.7582228  26.8036838
  55.6679783  72.6773038  27.5436014  55.9590728  72.3800863  25.4670364
  56.8508652  72.2678275  24.8504301  55.1951207  71.0716334  25.4562516
  54.1744575  71.2982800  25.7644355  55.1923831  70.7149843  24.4262545
  55.7565405  70.0226488  26.3405496  56.7911060  69.7889392  26.0892432
  55.6924987  70.2998380  27.3927696  54.8586094  68.7661517  26.0762431
  53.8251761  69.0962088  25.9705219  55.1861570  68.2964673  25.1487688
  54.9531826  67.7895503  27.1833165  55.7862356  68.0634229  27.8307089
  54.0264054  67.8091373  27.7567271  55.1719313  66.4312278  26.6486108
  56.0308766  66.4127563  26.1176009  55.2346803  65.7744621  27.4133469
  54.3999071  66.1770908  26.0490342  55.0985903  73.4287006  24.7976741
  54.8985464  73.3989642  23.6142198  54.5243142  74.3281659  25.5568336
  54.4613499  74.2360875  26.5606545  53.8170923  75.4116268  24.9250334
  53.1026681  75.0911687  24.1667433  53.0982132  76.2556642  25.9776391
  53.8009086  76.5179811  26.7685306  52.5663841  77.4938109  25.3587484
  51.8632137  77.2322881  24.5680159  52.0559158  78.0888365  26.1160247
  53.3885362  78.0717222  24.9366304  52.0108029  75.3663524  26.6864038
  51.3872227  74.9427449  25.8991268  52.5431863  74.5647473  27.1983577
  51.1276643  76.1145106  27.6898257  50.5945716  76.9160308  27.1784772
  50.4085843  75.4225873  28.1283064  51.7505361  76.5380354  28.4777073
  54.7992860  76.1900988  24.0155325  55.9866752  76.3029141  24.3220870
  54.2995959  76.6156845  22.8504352  53.3625020  76.3334688  22.6008179
  55.0207651  77.4804991  21.9413871  56.0914045  77.2987716  22.0352252
  54.5988465  77.2122386  20.4709783  53.5110807  77.2779563  20.4476128
  55.0200143  77.9076342  19.7449323  54.9527808  75.8440904  20.0050063
  56.2408380  75.4881713  19.6789369  56.2666678  74.2028594  19.3508147
  57.1982477  73.7299592  19.0399719  55.0447588  73.7119624  19.4794711
  54.7660656  72.7573527  19.3029768  54.2035451  74.7135931  19.8952757
  53.1483438  74.5022884  20.0684853  54.6515666  78.8841791  22.3162630
  53.5589336  79.3247630  22.0267878  55.5522713  79.5790286  22.9806125
  56.4507694  79.1922887  23.2320739  55.2555604  80.9443366  23.3757649
  54.1799527  81.0873587  23.4792637  55.9116487  81.2245733  24.7112954
  56.9403233  80.8648166  24.6888732  55.9056258  82.2932487  24.9257637
  55.2518607  80.5554392  25.8642830  55.7427067  79.3497633  26.3413708
  56.6154897  78.9000881  25.8679346  55.1304508  78.7150161  27.4148082
  55.5212356  77.7661567  27.7823047  53.9935211  79.3035566  28.0342337
  53.5291614  78.8104424  28.8882293  53.4765972  80.4955479  27.5584393
  52.5927959  80.9474966  28.0087034  54.1171893  81.1290433  26.4663072
  53.7320105  82.0733768  26.0816366  55.7675943  81.9660654  22.3588497
  56.8969080  81.8224129  21.8658390  54.9614688  82.9771481  22.0342521
  53.9832427  82.7928805  21.8633179  55.5465055  84.1854605  21.4666131
  56.5375939  84.3063174  21.9039193  55.6810552  84.1854100  19.9450923
  56.2501291  85.0776101  19.6838777  56.2578808  83.2979826  19.6846217
  54.4699904  84.1798385  19.2374003  53.8215813  83.3938565  19.6245679
  53.9755542  85.1450118  19.3472882  54.7531384  83.9243102  17.7808460
  55.6667121  83.3376169  17.6845495  53.9214437  83.3758862  17.3385627
  54.9253094  85.1849381  17.0517944  55.6065638  85.8509627  17.3870601
  54.2169997  85.4930042  15.9798048  53.2949155  84.6230944  15.5310425
  53.1533095  83.7477812  16.0146484  52.7481683  84.8490009  14.7124257
  54.4302338  86.6463468  15.3517912  55.1338370  87.2833408  15.6971627
  53.8875268  86.8796137  14.5325511  55.2006150  85.5466923  22.0602466
  54.1072571  85.8021413  22.4771343  56.2026483  86.4020976  22.1799637
  56.0044785  87.8111990  22.5782436  55.3736442  87.8483103  23.4663714
  55.5179442  88.3495545  21.7648823  57.4030851  88.3079955  22.8405312
  57.4991918  88.4612047  23.9154216  57.5130505  89.2629578  22.3266674
  58.4402408  87.2754898  22.3197720  59.1277227  87.0385135  23.1317510
  59.0049298  87.6349264  21.4595213  57.6298667  86.0131343  21.9303157
  57.7213467  85.7356487  20.8802055  58.0940321  84.8315801  22.8182044
  57.4549512  84.5510808  23.8570026  59.2083296  84.1898630  22.4369889
  59.5518793  84.3501203  21.5008316  59.8808007  83.1919740  23.2580504
  59.2685888  82.2925648  23.3240730  61.2388681  82.8179382  22.6395714
  61.7356056  83.7383442  22.3326450  61.8345530  82.3224341  23.4062104
  61.0883350  81.8760667  21.4112250  60.3527021  81.1162004  21.6749452
  60.7017892  82.4878306  20.5961013  62.4092285  81.1849342  20.9599368
  63.5020999  81.4768991  21.5454193  62.3610192  80.3345661  20.0173367
  60.0171747  83.6546504  24.7184759  60.0297992  84.8366169  24.9751349
  59.9920264  82.7199329  25.6740682  59.8508598  81.7480577  25.4382082
  60.1935684  83.0725369  27.0889945  59.5527346  83.9187813  27.3365859
  59.8575511  81.9114946  28.0314519  60.5570989  81.1597807  27.6658588
  60.1267680  82.1930045  29.0494767  58.4370892  81.3356971  28.0196423
  58.2612441  80.8470838  27.0612915  58.2603923  80.3259427  29.1430693
  58.4356365  80.8139638  30.1018309  57.2458718  79.9281416  29.1185104
  58.9728483  79.5109865  29.0151900  57.3834494  82.4488739  28.0564620
  57.5033302  83.0923081  27.1848426  56.3870021  82.0071662  28.0470607
  57.5098809  83.0396703  28.9636961  61.6453081  83.4152329  27.2683970
  62.5041273  82.9584389  26.4899672  61.9574185  84.1975056  28.3085227
  61.1595293  84.9473906  29.3032515  60.8638687  84.2890377  30.1201092
  60.2690241  85.3639558  28.8325361  62.0831281  85.9624153  29.7205751
  61.8131806  86.3611297  30.6984576  62.1257238  86.7758375  28.9962607
  63.4336443  85.1956295  29.7735539  63.5281261  84.5291816  30.6308865
  64.2813710  85.8804351  29.7511849  63.3897369  84.3871453  28.4964448
  63.7361061  85.0200009  27.6793643  64.2198046  83.0674951  28.5185333
  63.7190273  81.9560900  28.8885911  65.4510265  83.1545272  28.0026245
  65.7617286  83.9963501  27.5390539  66.3086902  81.9613953  27.9303860
  65.7148287  81.2752351  27.3265549  67.5767257  82.2561814  27.2073106
  68.1862891  82.9350479  27.8036937  68.1243751  81.3286773  27.0402281
  67.3489690  82.7208947  26.2480047  66.5662789  81.2492533  29.2934791
  66.7000090  80.0190097  29.3074095  66.6042362  81.9912037  30.4084929
  66.4409283  82.9839869  30.3201112  66.7357684  81.4257213  31.7543320
  67.6868705  80.9010469  31.8450009  66.6890899  82.5315261  32.7982702
  66.1983922  83.3663819  32.2979394  66.0386585  82.1460746  33.5834238
  67.9745805  82.9983922  33.4011997  68.6880326  82.1778132  33.4769425
  68.3813496  83.7741109  32.7524328  67.7153893  83.5861294  34.8058668
  66.7159194  84.3350536  34.9756627  68.4886891  83.2692545  35.7466212
  65.5121923  80.5758604  32.0679671  65.6165785  79.4878227  32.5966697
  64.3538069  81.1264405  31.7379524  64.3586213  82.0611230  31.3552713
  63.0905205  80.4949111  31.9705724  63.0421646  80.1411824  33.0004447
  61.9524409  81.4652485  31.7385504  62.1542691  82.3681567  32.3148500
  61.9275093  81.7105147  30.6767958  60.6124073  80.8883802  32.1556536
  59.8174104  81.5934405  31.9128146  60.4373711  79.9493045  31.6306763
  60.6244156  80.6443363  33.6041833  61.1050486  79.6814763  33.7773636
  61.2136643  81.4332643  34.0715995  59.3012532  80.6232977  34.2178818
  58.8598142  79.7264276  34.3622943  58.6631469  81.7134773  34.6169680
  57.4717148  81.5761236  35.2101976  57.0806903  80.6544936  35.3436072
  56.9688320  82.3946996  35.5218738  59.2297620  82.9364354  34.4467509
  60.1395574  83.0123838  34.0147737  58.7386640  83.7641820  34.7529486
  62.8970861  79.2571670  31.1290591  62.4683110  78.2330682  31.6185083
  63.2463815  79.3338502  29.8736590  63.5115312  80.2086886  29.4441792
  63.1498613  78.1737548  29.0444477  62.1460415  77.7519814  29.0949689
  63.4411918  78.5636978  27.6036660  62.8055765  79.4070909  27.3338871
  64.4877392  78.8559433  27.5174621  63.1814066  77.4571880  26.6621020
  62.0282929  76.9697650  26.5198283  64.2570135  77.0162744  25.9847210
  64.1577009  76.2607610  25.3218211  65.1588876  77.4428023  26.1421941
  64.0645243  77.0616797  29.5587770  63.6558000  75.8776692  29.6064071
  65.2758998  77.4231311  30.0091395  65.6064216  78.3733248  29.9197724
  66.1612995  76.4359460  30.6278009  66.3263273  75.6049379  29.9420235
  67.5124851  77.0691786  30.9623271  67.3206955  78.0453990  31.4076470
  68.0080223  76.4286340  31.6918787  68.4070207  77.2352081  29.7435800
  68.0917689  78.0654603  29.1116003  69.4154782  77.4225400  30.1123918
  68.4238967  75.9634385  28.9042598  68.7780396  74.8767896  29.3859133
  67.9767066  76.0845910  27.6626564  67.9613939  75.2788858  27.0538001
  67.6532615  76.9820710  27.3309722  65.5299804  75.8884852  31.9033043
  65.4392991  74.6601062  32.1030465  65.0763545  76.7956282  32.7679037
  65.1775676  77.7860122  32.5976253  64.4740881  76.3678753  34.0270064
  65.2493569  75.9243403  34.6517737  63.8219626  77.5321700  34.8023484
  64.6577272  78.2010533  35.0077551  63.1049590  78.0359027  34.1540745
  63.1412353  77.1514265  36.1141863  62.3705290  76.4163773  35.8822051
  64.1018253  76.5716248  37.1501139  64.8726029  77.3063235  37.3829627
  63.5515622  76.3230273  38.0575887  64.5679265  75.6710903  36.7502544
  62.4446988  78.2721479  36.6904930  61.6822145  78.6232704  35.9952018
  61.9715568  77.9658107  37.6234429  63.1522988  79.0769529  36.8897172
  63.4521218  75.2830609  33.7300914  63.6155641  74.1736886  34.1730548
  62.4203643  75.6150742  32.9641640  62.4162237  76.5007345  32.4786869
  61.1981288  74.7390933  32.8630112  60.9079660  74.3706801  33.8469707
  60.0002261  75.4788626  32.2147987  59.1294251  74.8233181  32.2065894
  59.6860117  76.7218109  33.0097545  60.5562487  77.3781034  33.0180271
  58.8435963  77.2420102  32.5538711  59.4308275  76.4447114  34.0325918
  60.3289898  75.8017361  30.7495539  61.2571120  76.3732665  30.7561014
  60.4938756  74.8477669  30.2486996  59.2705397  76.5749856  30.0169138
  59.1054215  77.5293444  30.5169489  59.5946301  76.7538374  28.9916935
  58.3421839  76.0038454  30.0095492  61.3758853  73.4337693  32.1228504
  60.5252957  72.5440080  32.1950252  62.4386671  73.3401170  31.3524420
  63.0300408  74.1435678  31.1948248  62.8318724  72.0495200  30.7444890
  61.9352195  71.4637024  30.5421760  63.5903281  72.2416159  29.4422624
  64.6006890  72.5409699  29.7209330  63.6211478  71.2636131  28.9619910
  63.0128237  73.2531977  28.4850581  62.0698659  72.8430087  28.1235661
  62.8412115  74.2466615  28.8994022  63.9540852  73.3731054  27.3323071
  64.1594930  72.3968954  26.6299406  64.6216428  74.5335355  27.1804163
  65.2654606  74.6451499  26.4102590  64.4752177  75.2865527  27.8373990
  63.7596153  71.2899266  31.6165355  64.1341601  70.1621036  31.2798617
  64.2460808  71.8950897  32.6877007  64.2000399  72.8927823  32.8379971
  65.1479205  71.0972225  33.5471721  65.3162502  70.1212678  33.0918955
  66.5011622  71.7958419  33.7227444  66.3231463  72.7831784  34.1488621
  67.1031938  71.2056650  34.4136491  67.2544810  71.9426342  32.3780538
  67.7246013  70.9950003  32.1152275  66.5537336  72.2297503  31.5940772
  68.3016723  72.9946315  32.5178042  67.8261176  73.9465693  32.7539419
  68.9827138  72.7196357  33.3231981  69.0734569  73.1492905  31.2830597
  68.7772332  73.8518131  30.6206302  70.1440346  72.4066015  30.9885289
  70.7826764  72.5899973  29.8559665  70.4621114  73.2947400  29.2073712
  71.5914979  72.0254645  29.6386875  70.5784312  71.4714361  31.8272609
  70.0952644  71.3168736  32.7006225  71.3896860  70.9196956  31.5873718
  64.5523195  70.5630545  34.8438301  65.2346655  69.9652286  35.6341352
  63.2673538  70.7929561  35.0586564  62.7419901  71.3485225  34.3987790
  62.5679022  70.2944064  36.2781628  63.2966120  70.0439520  37.0491062
  61.6314118  71.3684930  36.8230159  60.8993415  71.5956401  36.0480472
  61.1222508  70.9523813  37.6923295  62.3654315  72.6573674  37.2277281
  62.8856556  73.0664221  36.3616207  61.3826586  73.6518576  37.7299039
  60.8623286  73.2436694  38.5963553  61.9035795  74.5653723  38.0166670
  60.6599745  73.8772318  36.9456626  63.3911763  72.3943336  38.3308789
  64.1287557  71.6737343  37.9775903  63.8913252  73.3268027  38.5925157
  62.8856567  71.9947015  39.2099939  61.7898501  69.0080494  35.9222954
  60.7016061  69.0580735  35.2940211  62.3777892  67.8721939  36.2010299
  63.7515777  67.5722278  36.6476554  63.8053744  67.5853754  37.7362477
  64.4485212  68.3050749  36.2410794  63.9696710  66.1740461  36.0653597
  64.6261732  65.6149954  36.7321177  64.4423478  66.2708030  35.0879569
  62.5933959  65.5062221  35.9444967  62.4614960  64.9270297  36.8584100
  62.4577664  64.8560950  35.0801824  61.5812308  66.6453615  35.9023494
  61.0570596  66.7846858  34.9568699  60.5924980  66.3886761  36.9834252
  60.7714945  66.7909166  38.1473177  59.5724040  65.6396425  36.6214502
  59.4273498  65.3857871  35.6546948  58.6212809  65.1857367  37.5934360
  58.4084814  65.9554942  38.3352507  57.3546171  64.8713821  36.8513526
  57.5876395  64.1113654  36.1055817  56.6412508  64.4678716  37.5699540
  56.7602813  66.0653736  36.1765672  57.4726131  66.3824942  35.4149120
  55.8412013  65.7294953  35.6963801  56.3898797  67.4554521  37.2546356
  54.7874520  66.9989384  38.0052070  54.8967004  66.0648028  38.5561648
  54.4673255  67.7869197  38.6868998  54.0411802  66.8724116  37.2208788
  59.1411381  63.9705635  38.3238027  59.9677259  63.2480807  37.7863119
  58.6126338  63.7022047  39.5170368  58.0304180  64.4029684  39.9529890
  58.8315946  62.4508298  40.2240836  59.8939864  62.2130172  40.1705300
  58.5442401  62.5955297  41.2655195  58.0406868  61.2987912  39.6516075
  57.3250716  61.4636001  38.6840498  58.2144280  60.1104261  40.2264652
  58.7769929  60.0532053  41.0633319  57.6480123  58.8779008  39.6879035
  56.9377418  59.0885622  38.8883806  58.7550194  57.9476617  39.1339429
  59.4690433  57.7203285  39.9255169  58.3059240  57.0221376  38.7736391
  59.2704577  58.4447622  38.3121682  56.8697574  58.1681524  40.8276217
  57.4482799  57.8067757  41.8871507  55.5524450  58.0145437  40.6228357
  55.0687961  58.4928497  39.8762391  54.7702807  57.2712714  41.5772168
  55.4123968  56.5332112  42.0578968  54.1304663  58.1762814  42.6856713
  54.9208969  58.6928371  43.2301793  53.2826119  59.1126164  42.0996689
  52.4915986  58.5967773  41.5553261  52.8408137  59.7387830  42.8748012
  53.8507956  59.7362772  41.4095123  53.3212784  57.3502846  43.6904842
  53.9745112  56.6241488  44.1743394  52.8929075  58.0114817  44.4437547
  52.5198306  56.8266561  43.1693360  53.7240524  56.3991861  40.8638840
  53.1181927  56.8021171  39.8737519  53.5171299  55.2083481  41.4033580
  54.1571087  54.7929895  42.0651764  52.3413095  54.4878192  41.0599773
  51.8986910  55.1150981  40.2862142  52.6399975  53.1361545  40.4949338
  53.1129044  52.5201609  41.2597942  51.3669616  52.4851279  40.0463506
  50.8936820  53.1003523  39.2811016  51.5873620  51.5001149  39.6349217
  50.6925604  52.3807099  40.8962795  53.4333078  53.2338322  39.2196582
  52.7344426  53.3442257  38.3905011  54.0680230  54.1179553  39.2793435
  54.3072487  51.9908274  38.9904587  53.6731510  51.1063002  38.9301970
  54.8626539  52.1032046  38.0593327  55.0067303  51.8800286  39.8190413
  51.6274993  54.3610711  42.3672473  52.2135721  53.9034155  43.3798895
  50.3997508  54.8831862  42.3802261  50.0445295  55.3893059  41.5816273
  49.5693893  54.7912723  43.5562697  50.1880327  54.6526603  44.4429299
  48.7733021  56.0591209  43.7183902  49.4392771  56.8938156  43.4996182
  47.9677431  56.0357052  42.9844785  48.1917781  56.2295518  45.0956528
  47.6633598  55.3187313  45.3772215  48.9981670  56.4152343  45.8051321
  47.2055117  57.4240990  45.1111963  47.5197196  58.1434495  44.3549509
  46.2091032  57.0546667  44.8687311  47.1775717  58.0995953  46.4714089
  47.3456306  57.3676718  47.2614372  47.9426472  58.8740769  46.5256031
  45.8596906  58.7049953  46.6415301  45.1506380  57.9874518  46.5917750
  45.8130032  59.1626966  47.5406573  45.7039382  59.3835523  45.9098193
  48.6742657  53.5134462  43.3525288  48.0987340  53.3134299  42.2771932
  48.6717347  52.6237667  44.3499785  49.0847099  52.8888125  45.2327591
  48.0236374  51.2863807  44.2466597  47.5109114  51.1948403  43.2891465
  49.0739332  50.1814462  44.3455968  49.5890924  50.1806978  45.3061745
  48.6573537  49.1920933  44.1565404  50.3245658  50.4300880  43.1181864
  51.0524110  49.3655767  43.4436941  47.0965917  51.1113334  45.4227246
  47.5228412  51.2718808  46.5722158  45.8359864  50.8036373  45.1655040
  45.4732373  50.7534600  44.2242312  44.9126834  50.5759130  46.2779676
  45.4231823  50.7671869  47.2218449  43.7124117  51.4961246  46.1814098
  43.5813456  51.7634517  45.1328598  42.8394664  50.9420127  46.5264121
  43.8703640  52.7653886  47.0136754  42.9344765  53.3196042  47.0848120
  44.2396526  52.5468248  48.0156524  45.0952738  53.7737659  46.1333202
  45.9050056  54.7085888  47.4158554  46.3737762  54.0249448  48.1236577
  46.6664569  55.3504216  46.9727491  45.1708599  55.3231164  47.9368997
  44.4571141  49.1272759  46.3032302  43.9309526  48.6212527  45.3190449
  44.6764353  48.4612361  47.4204205  45.1209705  48.8901457  48.2194977
  44.2979916  47.0516637  47.5112925  44.0839790  46.6480129  46.5216644
  45.4598649  46.2638346  48.1198800  46.3847242  46.7301546  47.7803507
  45.3844496  46.3543308  49.2034957  45.4626057  44.7485893  47.7216615
  46.2641557  44.2985537  48.3073974  44.5026400  44.3599702  48.0615779
  45.6892616  44.3298907  45.9928626  47.4393003  44.4416919  45.7843847
  47.9313151  43.7365527  46.4543094  47.6987877  44.2035706  44.7528493
  47.7695109  45.4540604  46.0171342  43.0505140  46.9607573  48.3682200
  43.0685074  47.3831061  49.4946474  41.9504569  46.4342063  47.8448964
  41.9263186  46.1607505  46.8729198  40.7206019  46.3168321  48.6294229
  40.7534147  47.0076203  49.4719394  39.5030763  46.6516226  47.7711457
  39.6017276  46.0371400  46.8762836  38.5576709  46.4253704  48.2642164
  39.5315440  48.0755706  47.3942559  40.2939097  48.5010289  46.3382319
  40.8524058  47.7741335  45.7484822  40.3568551  49.8434427  46.0195958
  40.9235709  50.1835153  45.1528284  39.6707299  50.7479871  46.7878090
  39.7931769  52.0630636  46.4796718  40.3695126  52.2201563  45.7281674
  38.9167459  50.3624355  47.8420439  38.3565879  51.0839866  48.4367601
  38.8667055  49.0268687  48.1569949  38.2956234  48.6921591  49.0229827
  40.5898221  44.9639855  49.2381895  40.9137987  43.9801579  48.6044700
  40.1209661  44.8978653  50.4709028  39.9497526  45.7493321  50.9864507
  39.8268014  43.6037542  51.1330408  39.9047629  42.7851064  50.4176130
  40.8303346  43.3701767  52.2492292  40.7676042  44.2477731  52.8926486
  40.5558603  42.4823123  52.8188437  42.2246073  43.2240987  51.7433796
  43.1090270  44.2995355  51.7965448  42.7740709  45.2442834  52.2247451
  44.4321413  44.1749666  51.3012712  45.1132633  45.0231760  51.3699414
  44.8627665  42.9908176  50.7540353  46.1693996  42.9068169  50.3100705
  46.6615231  43.7213732  50.4362138  43.9834185  41.8993253  50.6347981
  44.3054732  40.9750019  50.1552072  42.6659917  42.0107280  51.1464212
  41.9835511  41.1631072  51.0838604  38.4192717  43.6339044  51.7230569
  37.8158024  44.7246124  51.7831063  37.8769768  42.4722584  52.1501599
  38.3891208  41.6095814  52.0335569  36.5552760  42.4214262  52.8322047
  35.8122255  42.9238205  52.2128703  36.0964422  40.9734412  53.0730198
  37.0051789  40.3813052  53.1810565  35.5535095  40.9805235  54.0181515
  35.2066009  40.3541138  51.9732138  34.4164244  41.0638169  51.7281763
  35.8214859  40.1768355  51.0908358  34.5617634  38.9914929  52.4479725
  34.5988507  38.2975104  51.6082631  35.1700561  38.6046158  53.2655332
  33.0874350  39.1481750  52.9270897  32.5201949  39.5957668  52.1110009
  32.6992803  38.1509823  53.1345549  32.9544205  40.0071765  54.1628747
  33.3136427  40.9313698  53.9707139  31.9810889  40.0719813  54.4246494
  33.4796170  39.5923777  54.9193201  36.6365588  43.0690488  54.1868999
  35.7398524  43.7859517  54.6185359  37.7273698  42.7748275  54.8740907
  38.4845541  42.2782245  54.4267019  37.8694338  43.1292744  56.2705789
  37.1101349  43.8609353  56.5466889  37.6975560  41.8825280  57.1586028
  38.0876317  41.0201762  56.6179648  38.2745625  42.0297602  58.0715575
  36.2057081  41.6343235  57.5228423  35.9937655  42.1469523  58.4611348
  35.6301327  42.0947220  56.7198197  35.8102015  40.1362846  57.6503689
  36.3183236  39.4420586  58.5925261  34.9626146  39.6806387  56.8194867
  39.2356642  43.7159467  56.4111778  40.1612177  43.2594016  55.7670479
  39.3362835  44.7651505  57.2174930  38.4843414  45.1580540  57.5915529
  40.5987434  45.3818927  57.5856913  41.2308805  45.5724669  56.7184063
  40.3098129  46.6729174  58.2540478  39.6850841  46.4974387  59.1298453
  41.2449486  47.1399236  58.5631218  39.7866260  47.3321490  57.5613803
  41.3731635  44.4690087  58.5295924  41.5692915  44.7772568  59.7139774
  41.8235130  43.3386069  57.9930887  41.6274786  43.1336981  57.0237166
  42.5052033  42.3196340  58.7939642  41.8422854  41.9794791  59.5895355
  42.9001365  41.1100101  57.9332971  43.3635206  40.3144356  58.5167658
  41.9986581  40.7296947  57.4528838  43.8731303  41.4553004  56.8198109
  43.4152068  41.7442887  55.5317107  42.3487073  41.6929540  55.3125227
  44.3098264  42.0945237  54.5363856  43.9407645  42.3181792  53.5354499
  45.6833825  42.1627342  54.8084976  46.3914963  42.4221597  54.0214949
  46.1356916  41.8988562  56.0820736  47.2014074  41.9678073  56.3002381
  45.2541154  41.5510489  57.0730425  45.6191175  41.3428495  58.0787892
  43.7191346  42.9194614  59.5317364  44.1663062  42.3967012  60.5480993
  44.2693559  44.0090812  59.0381848  43.9375030  44.4569217  58.1959189
  45.4729663  44.5692903  59.7069073  46.1961035  43.7673162  59.8552630
  46.1421969  45.6910351  58.8833181  46.7817863  46.2799925  59.5407023
  46.7359888  45.2933776  58.0602873  45.1430744  46.6555259  58.2714466
  44.7411933  47.8654890  58.7768087  45.1930873  48.1890214  59.7144751
  43.8054758  48.4319924  57.9408548  43.3662961  49.3306381  58.0810568
  43.5801645  47.5914931  56.8788752  42.7258346  47.7429646  55.7559812
  42.1428726  48.6600570  55.6711545  42.6857585  46.7231133  54.8433695
  42.0319782  46.8008291  53.9746742  43.4714240  45.5737302  55.0016290
  43.4352256  44.7617773  54.2753220  44.3435027  45.4324818  56.1204648
  44.9249791  44.5146491  56.2074642  44.4018982  46.4585082  57.0587723
  45.1171727  45.0828583  61.0704662  45.8978215  44.9799536  61.9924662
  43.9306388  45.6624950  61.1661349  43.4302947  45.8701762  60.3137127
  43.3863416  46.1329837  62.4049759  44.0823184  46.8289342  62.8733436
  42.0649315  46.8516420  62.1683083  41.4829758  46.2786350  61.4464427
  41.5233959  46.9017654  63.1129389  42.2865017  48.2527326  61.6390440
  42.8579818  48.8066096  62.3838470  42.8667958  48.1765088  60.7195058
  40.9998972  48.9721480  61.3598677  40.3695963  48.3655912  60.7095535
  40.4744162  49.1681126  62.2945158  41.3183345  50.2929467  60.6700421
  41.8780544  50.9041066  61.3780659  41.9472108  50.0677844  59.8086968
  40.1090778  51.0365889  60.2204651  39.5264218  51.2457038  61.0185144
  40.3901529  51.8977993  59.7739078  39.5905129  50.4706185  59.5640605
  43.2848261  45.0020744  63.4268241  43.7268062  45.2049619  64.5659778
  42.7985873  43.8022717  63.0379818  42.4340048  43.6694826  62.1054873
  42.7671985  42.6497238  63.9783744  42.0665233  42.9058966  64.7730623
  42.3463325  41.2786871  63.3657123  43.2724870  40.8728186  62.9587629
  42.0375461  40.6854425  64.2264166  41.2485111  41.2295264  62.2889553
  41.7432533  41.4616283  61.3458436  40.8944649  40.1988224  62.2688908
  40.0479845  42.1825521  62.4888300  39.4409390  41.8253715  63.3207054
  40.4176285  43.1831969  62.7128229  39.1796945  42.2271840  61.1934356
  38.1293698  42.2376262  61.4846563  39.4156799  43.1442931  60.6536941
  39.4493866  41.0068146  60.2793624  39.2303702  40.1569154  60.7791652
  38.8712016  41.0703547  59.4536719  40.4224939  40.9971920  60.0090500
  44.1184570  42.4402968  64.5900334  44.2116338  42.2625323  65.7917035
  45.1675945  42.4245815  63.7714727  45.0209493  42.4821501  62.7738353
  46.5568250  42.2750379  64.2708015  46.5959729  41.5073330  65.0435859
  47.4760898  41.8649542  63.1316980  47.3724313  42.6337879  62.3660291
  48.4884804  41.8886581  63.5349391  47.2072120  40.5009558  62.5189272
  46.7112444  39.8687763  63.2554501  46.5611671  40.6199951  61.6491240
  48.5644762  39.8280319  62.0774179  48.3729453  38.7706465  61.8947952
  48.8909447  40.3027131  61.1521096  49.6861907  39.9758910  63.1647924
  49.4789694  40.9062242  63.6936023  49.5630915  39.1352545  63.8476365
  51.1109182  39.9980864  62.6418967  51.2253139  40.7772210  62.0094707
  51.7521681  40.0958800  63.4160640  51.3032757  39.1359275  62.1522239
  47.1329258  43.5453964  64.9317553  48.3310739  43.6126425  65.2336513
  46.2904931  44.5687697  65.0968594  45.3783747  44.5198313  64.6658787
  46.6758214  45.8137586  65.7693128  45.8237761  46.4932153  65.7906845
  47.1276793  45.5494136  67.2097708  46.4554150  44.8085793  67.6425808
  48.1393700  45.1451741  67.1755326  47.1133490  46.8083750  68.0654149
  46.0847392  47.5611863  68.0367271  48.1414745  47.0347147  68.7657159
  47.7188597  46.5939406  64.9951966  48.6478786  47.1551871  65.5498120
  47.5500018  46.6056459  63.6883282  46.8364017  46.0039084  63.3025999
  48.2880123  47.4811017  62.7752626  49.0911354  47.9967726  63.3017377
  48.9014910  46.6268675  61.6637691  48.0701540  46.1586573  61.1367424
  49.3975054  47.3363505  61.0014220  49.8880498  45.5643035  62.0933832
  49.7945529  44.2844835  61.6031748  48.9938534  44.0240691  60.9109579
  50.7211066  43.3207201  61.9896750  50.6453812  42.3062308  61.5982944
  51.7493550  43.6519686  62.8931979  52.6524700  42.7026398  63.2721968
  52.4928087  41.8487048  62.8636593  51.8644275  44.9063966  63.3881754
  52.6563632  45.1830452  64.0841667  50.9316646  45.8561815  62.9821804
  50.9948146  46.8774217  63.3579205  47.2726728  48.4465589  62.1358035
  46.1149694  48.0632436  61.9030559  47.6718410  49.6786762  61.8230708
  48.6185123  49.9815313  62.0024908  46.7184457  50.6566619  61.2569258
  45.7164671  50.3987933  61.5999156  47.0204963  52.1075018  61.6682639
  46.3817988  52.7991089  61.1188602  46.8623168  52.2398536  62.7385733
  48.6829163  52.6185775  61.3515415  48.5400902  53.8548312  61.8207704
  46.6961748  50.5723916  59.7570006  45.7131731  51.0056838  59.1120048
  47.7678625  50.0133479  59.1980929  48.5601080  49.7750191  59.7774424
  47.8462771  49.7241224  57.7483751  48.1260779  48.6846777  57.5770119
  46.8922093  49.9279076  57.2622418  48.9081673  50.6263137  57.1491999
  49.1261491  50.6677976  55.9316248  49.5490912  51.3812651  58.0377069
  49.2156880  51.4276881  58.9899603  50.6502581  52.2004027  57.6687000
  50.5936492  52.4454548  56.6081133  50.6308092  53.4650334  58.4501979
  49.8034366  54.1331379  58.2110532  50.6886677  53.3314233  59.5304297
  52.1031103  54.3220029  57.9830983  51.9008117  55.3807710  58.7621899
  51.9598139  51.4052912  57.8610125  52.4137967  51.1322499  58.9956129
  52.5366893  51.0100353  56.7235356  52.0670945  51.2548923  55.8635210
  53.7757161  50.2440119  56.6412274  54.0892675  49.9306885  57.6370251
  53.5599693  48.9933346  55.7789562  53.3850321  49.3316943  54.7576781
  54.4818082  48.4128663  55.8159654  52.3892290  48.1200249  56.2340498
  52.6489622  47.6852233  57.1992374  51.5154075  48.7614731  56.3484279
  52.0055806  46.7992687  55.0744758  50.5535211  47.5110814  54.3284892
  50.8126275  48.4619123  53.8627816  50.1626931  46.8309710  53.5716510
  49.7952501  47.6766428  55.0938098  54.8294349  51.1463092  56.0307289
  54.6082162  51.7297402  55.0071291  55.9623521  51.2978466  56.6909138
  56.0707457  50.9052903  57.6151701  57.0897194  52.0246064  56.1101384
  56.7549436  52.6744869  55.3016338  57.7897882  52.8554631  57.1695995
  57.9953979  52.2272718  58.0363178  59.0548260  53.3949168  56.6436810
  58.8499695  54.0236315  55.7771636  59.5457127  53.9886376  57.4148013
  59.7066293  52.5724053  56.3491876  56.8650783  53.9698205  57.6126268
  56.7055271  54.6034469  56.7401810  55.9244416  53.4965030  57.8941810
  57.3800301  54.8324018  58.7885792  58.3204697  55.3064435  58.5075851
  56.6436674  55.6000348  59.0265056  57.5393865  54.1994987  59.6615849
  58.0045728  50.9482958  55.5724892  58.6205374  50.2185189  56.3358975
  58.0467031  50.7776388  54.2583403  57.5781819  51.4048984  53.6202709
  58.6680477  49.5719160  53.7136869  58.8868054  48.8751236  54.5228375
  57.7173760  48.9152587  52.7219881  57.4174242  49.6517629  51.9765413
  58.3971992  47.7430715  52.0311478  58.6970431  47.0058826  52.7759611
  57.7041410  47.2848100  51.3256214  59.2782919  48.0972964  51.4960782
  56.5019308  48.4251845  53.4783176  56.8466942  47.7392134  54.2520634
  56.0298841  49.2901057  53.9443464  55.5348636  47.7460342  52.6224099
  56.0060840  46.8806731  52.1563614  54.6857828  47.4178023  53.2219304
  55.1892755  48.4315652  51.8486425  60.0516162  49.8253646  53.1167716
  60.1951614  50.3138082  52.0130924  61.0670660  49.4523971  53.8659117
  60.8787091  48.8994589  54.6898537  62.4411432  49.8355356  53.5931374
  62.4853109  50.6002210  52.8176346  63.0318702  50.3972578  54.8556281
  62.4525663  51.2761373  55.1386068  62.9468173  49.6402188  55.6352164
  64.4615161  50.7783589  54.6881865  65.0114075  49.8623727  54.4721090
  64.5680836  51.4710118  53.8533364  65.0130639  51.4116261  55.9393502
  66.2453844  51.6387110  56.0003877  64.2043958  51.6401638  56.8633201
  63.1320162  48.5791699  53.1042523  63.7677210  47.8598363  53.8566037
  62.9925847  48.3174043  51.8221592  62.5854464  48.9478589  51.1462415
  63.6116431  47.1216112  51.3457494  64.5520123  46.8591686  51.8304440
  62.5536271  46.1295739  51.7744615  62.1596888  46.4925863  52.7237422
  61.7492221  46.0875621  51.0401131  63.1380417  44.7360352  51.9672194
  63.4572195  44.3715629  53.1724594  63.3189220  44.0446439  50.9130651
  63.6146153  47.2062930  49.8530347  62.5413146  47.3018162  49.2381590
  64.8129658  47.1539682  49.2735245  65.6372098  47.1213552  49.8563261
  64.9900820  47.3178364  47.8287093  64.6503361  48.3119264  47.5380946
  66.4577086  47.1597743  47.4109369  67.0351392  46.8142288  48.2684166
  66.5209743  46.4229375  46.6102066  67.0287506  48.5101428  46.9152232
  66.8624934  49.2383538  47.7090544  68.0992752  48.4004079  46.7419181
  66.3364728  49.0032230  45.6027201  65.4990644  49.9616105  45.6871978
  66.6206397  48.4108887  44.5076318  64.0888885  46.4688555  46.9424832
  63.5852024  46.9500516  45.9527385  63.8240492  45.2381303  47.3124855
  64.1992022  44.8320061  48.1577208  63.1217153  44.3810038  46.3987185
  63.1973529  44.7730669  45.3844874  63.7323801  42.9743118  46.4272207
  63.6164475  42.5963191  47.4429866  63.1848210  42.3328634  45.7366970
  65.2533152  42.9791036  46.0417413  66.0890900  42.7734024  46.9636207
  65.6158816  43.2117756  44.8317436  61.6168091  44.3924686  46.6059570
  60.8773894  43.7900015  45.8373837  61.1416134  45.1252201  47.6012406
  61.7701732  45.5615615  48.2604964  59.6899676  45.2935947  47.8024229
  59.1864507  44.3369466  47.6631589  59.4071640  45.7879487  49.1972911
  59.8973133  46.7496591  49.3488392  58.3316397  45.9037902  49.3311878
  59.7876531  45.0685493  49.9224062  59.1225123  46.2634258  46.7854700
  59.7340751  47.3060686  46.5453595  57.9805067  45.8992067  46.1411560
  57.3212315  44.5784482  46.1584838  57.4228887  44.1272903  47.1455109
  57.7780112  43.9273391  45.4131596  55.9170116  44.9157726  45.8291072
  55.3681351  45.1341095  46.7451654  55.4487310  44.0750844  45.3171912
  55.9865504  46.1105121  44.9376169  55.1380289  46.7564449  45.1631853
  55.9742714  45.8518829  43.8788158  57.2873485  46.8246619  45.2832112
  57.9075798  47.0059460  44.4054028  57.0012878  48.1429700  45.9811037
  57.4078561  49.1735418  45.4951120  56.3416121  48.1305150  47.1250595
  56.2355958  47.2686887  47.6409232  55.7222567  49.3479495  47.6675040
  55.4943736  50.0627612  46.8768000  54.4108633  48.9618216  48.4109457
  54.6238205  48.1465938  49.1024319  53.8833295  50.1055139  49.1539390
  53.6696818  50.9210385  48.4630157  52.9664324  49.8147404  49.6666291
  54.6200943  50.4344789  49.8867820  53.3648798  48.4573306  47.4167724
  53.8244562  47.7076731  46.7726421  52.5424589  48.0047087  47.9707189
  52.8240454  49.6211317  46.5495158  53.6458756  50.0739820  45.9948795
  52.0812395  49.2385613  45.8495312  52.3638802  50.3710192  47.1929571
  56.7348715  49.9823988  48.5976897  57.5540538  49.2566293  49.0845706
  56.7171507  51.3110205  48.8091778  56.0744770  51.8968252  48.2954633
  57.5974328  51.9409040  49.7838631  58.3919117  51.2402985  50.0408737
  58.2292528  53.2223253  49.2629832  57.5314785  54.0455170  49.4164945
  59.1454131  53.4143531  49.8214415  58.5285805  53.1125584  47.8989157
  58.9256702  53.9307759  47.5916050  56.8891888  52.3177927  51.0062572
  57.4717426  52.3277408  52.0770411  55.6310972  52.6858121  50.8684487
  55.1540933  52.5931705  49.9830199  54.8948350  53.2456943  51.9946121
  55.1369104  52.7544643  52.9370513  55.1546481  54.7638681  52.1237231
  56.2310847  54.9219706  52.1899672  54.5906137  55.5517165  50.9141343
  53.5140757  55.3944664  50.8475098  54.7946385  56.6144267  51.0449839
  55.0658714  55.2011439  49.9979858  54.5982175  55.3035914  53.4375863
  54.0353936  56.1961132  53.1642095  53.9109050  54.5360726  53.7934176
  55.6129768  55.6553970  54.5665231  56.3003779  56.4232412  54.2115654
  55.0735211  56.0261943  55.4380713  56.1758912  54.7632003  54.8407720
  53.4254237  52.9887048  51.7448667  53.0113459  52.9478893  50.6200362
  52.6549006  52.7953611  52.7905824  53.0271761  52.8441916  53.7281995
  51.2260853  52.5822988  52.6264954  50.9040173  52.9151520  51.6397937
  50.8586439  51.0676635  52.7886327  49.8086970  50.9507785  52.5202118
  51.7243968  50.1362627  51.9035195  52.7745042  50.2522582  52.1716970
  51.4220853  49.1008539  52.0604763  51.5865469  50.3994826  50.8547997
  51.0420674  50.7284048  54.1723554  50.8245031  49.8030553  54.3064986
  50.4486272  53.3191235  53.7442159  51.0482354  53.6960374  54.7682428
  49.1220758  53.4272856  53.5690382  48.7446757  53.1289276  52.6809780
  48.1810217  53.8412894  54.6241961  48.6470996  53.7005280  55.5994176
  47.7915809  55.3067618  54.4777498  47.4845350  55.4949829  53.4489666
  46.9492032  55.4848980  55.1461563  48.9571899  56.2582080  54.8510633
  49.8671289  55.9829917  54.3178018  48.5387887  57.6382092  54.4449364
  47.6291073  57.9143274  54.9781695  49.3314089  58.3454260  54.6892687
  48.3509984  57.6603531  53.3714631  49.1495812  56.1739178  56.3963800
  49.3886528  55.1483909  56.6778738  49.9642393  56.8322656  56.6980612
  48.2305105  56.4820995  56.8948096  46.9089449  53.0910689  54.4296614
  46.5546319  52.7925670  53.3034443  46.2029621  52.8559613  55.5252903
  46.6410206  52.9036896  56.4340951  44.8186817  52.4199569  55.4497327
  44.7722459  51.4761981  54.9063525  44.2052974  52.2164897  56.8358878
  44.6667964  51.3500671  57.3096279  44.4308272  53.1107340  57.4168899
  42.7245576  52.0216574  56.7764741  42.0346850  53.0213821  56.9499540
  42.2295497  50.9033738  56.5344368  43.9983580  53.3796652  54.6231191
  44.1824652  54.5723760  54.6864461  43.1237644  52.8189871  53.8018231
  43.1366861  51.8173785  53.6725456  42.3041922  53.6110150  52.9202846
  42.1912880  54.6119842  53.3367128  42.9282289  53.7285104  51.5243122
  43.9783388  53.9507266  51.7140182  42.8505607  52.8031423  50.9535569
  42.3012532  54.8731374  50.7268125  42.4102864  56.0701948  51.1602584
  41.6080204  54.5630207  49.7055359  40.8401928  53.1448518  52.9493995
  40.0698686  53.3132270  52.0275387  40.4564108  52.6518865  54.0988805
  41.1601622  52.5550367  54.8168313  39.1245361  52.2615351  54.4040110
  38.7160532  51.5758020  53.6617099  39.1142078  51.5768913  55.7513143
  39.5385940  52.2677538  56.4798098  37.6524236  51.1498708  56.2144983
  37.2275411  50.4585978  55.4866822  37.7069499  50.6631820  57.1882847
  37.0203590  52.0350037  56.2861547  39.9513247  50.4324708  55.6789049
  39.9559377  49.9851357  56.5282990  38.2677035  53.4967826  54.4553787
  38.7392604  54.5426461  54.8446314  37.0104714  53.3485525  54.0606837
  36.6823706  52.4431017  53.7563681  36.1203875  54.4223839  54.0207870
  36.5323574  55.2511647  53.4450246  34.8518275  53.9511466  53.3488122
  34.5736992  52.9953162  53.7928079  34.0730013  54.6860614  53.5523559
  35.0071604  53.7879446  51.8777953  35.8306520  53.1068685  51.6630912
  34.0873095  53.3920918  51.4473573  35.2982843  55.1189539  51.2849630
  34.5330064  55.8275146  51.6018074  36.2740019  55.4598143  51.6312127
  35.3039617  55.0248509  49.7721067  34.4662528  54.4189254  49.4268548
  35.2389822  56.0191402  49.3302180  36.5467548  54.4006494  49.3735685
  36.6069667  53.4791369  49.7825783  36.5777665  54.3248823  48.3668920
  37.3231151  54.9621783  49.6930195  35.8498993  54.9137970  55.4256394
  35.9287884  54.1369334  56.3675074  35.4574604  56.1786666  55.5773616
  35.0381664  57.1330179  54.5587886  34.0528111  56.8541784  54.1853937
  35.7539095  57.1227658  53.7367754  35.0273512  58.4449132  55.2930793
  34.2248757  59.0666223  54.8960781  35.9835923  58.9450435  55.1395416
  34.8197685  58.1447908  56.6960782  33.7498968  58.1906100  56.8994843
  35.3443230  58.8366980  57.3550218  35.3287019  56.7278981  56.9197744
  36.3095625  56.6868456  57.3934046  34.3195047  55.9655165  57.7743762
  34.4305131  56.0172759  58.9821958  33.3553076  55.2575580  57.1802754
  33.2889478  55.1814032  56.1753395  32.3610797  54.5676720  57.9926954
  32.2682668  55.0555667  58.9629756  31.0079626  54.6014534  57.3005431
  30.2683525  54.2867583  58.0367789  30.7974904  55.6246528  56.9893124
  30.9423992  53.6711407  56.0791640  29.8123600  53.4413802  55.5740754
  32.0021543  53.1556931  55.6419651  32.7548849  53.1339970  58.2048218
  31.9185313  52.3349806  58.6210950  33.9995714  52.7871801  57.8992740
  34.6238717  53.4592021  57.4765034  34.5037072  51.4424802  58.1591668
  35.5470694  51.5262315  58.4632724  33.9210158  51.0156075  58.9754694
  34.4132278  50.5298679  56.9621165  35.0702962  49.5137276  56.9138060
  33.6291223  50.9178625  55.9590866  33.1573651  51.8098948  56.0017803
  33.3917645  50.0653544  54.8008590  33.3241021  49.0177427  55.0941689
  32.0921838  50.4736841  54.1834427  31.8003757  49.7603135  53.4126965
  31.3131055  50.5249647  54.9440394  32.2655393  51.7387956  53.6068919
  31.4418486  52.0221133  53.2033270  34.4995792  50.1134208  53.7263884
  35.3474471  51.0032357  53.7158788  34.4606403  49.1353019  52.8282720
  33.7544412  48.4224396  52.9432049  35.4532267  48.9590947  51.7823980
  35.4357206  47.9211464  51.4500486  35.1916594  49.8625920  50.5769288
  35.4358649  50.8562076  50.9526826  35.8631641  49.6098506  49.7563782
  33.7557605  49.8484844  50.0787476  33.0840311  49.7607582  50.9326706
  33.4467390  51.1244150  49.3225573  34.1178070  51.2126123  48.4681641
  32.4148537  51.0989627  48.9723208  33.5849131  51.9809545  49.9823667
  33.4524837  48.6098725  49.2292408  33.6134857  47.7115672  49.8252487
  32.4154044  48.6427020  48.8953398  34.1125125  48.5929821  48.3619601
  36.8980325  49.1078919  52.2507732  37.5761178  49.9682242  51.8033956
  37.3570279  48.2116668  53.1153036  36.6147785  47.0302141  53.5869024
  36.6905507  46.2246846  52.8565045  35.5657899  47.2839380  53.7396969
  37.2931029  46.7222158  54.8251023  37.1518082  45.6711545  55.0769058
  36.9012744  47.3439927  55.6300652  38.7126806  47.0280705  54.5669877
  39.1003841  46.1676826  54.0215359  39.3413949  47.2197786  55.4365082
  38.6942172  48.2510186  53.6593451  38.8543956  49.2002492  54.1706203
  39.7131301  48.1085456  52.5100065  39.4463020  47.4339913  51.5208734
  40.8345669  48.8069150  52.6543310  41.0146056  49.1775405  53.5764601
  41.8306315  49.0302080  51.6128683  42.0431265  48.1189590  51.0537884
  41.4183533  50.0869374  50.6576632  41.2109047  51.0083863  51.2017194
  42.2201147  50.2618459  49.9402472  40.5205707  49.7684175  50.1279173
  43.0630294  49.4976041  52.2550009  42.9990542  50.2053155  53.2913544
  44.1843967  49.0986439  51.6266800  44.0815318  48.3366525  50.9717851
  45.5418416  49.6742833  51.8321565  45.5241522  50.3442221  52.6917891
  46.6042914  48.5787742  52.0562951  46.6338158  47.9378204  51.1751555
  47.9406646  49.1664755  52.2823018  47.9120438  49.8072379  53.1636105
  48.6674318  48.3689911  52.4369912  48.2299524  49.7574461  51.4132992
  46.2680291  47.6742499  53.2585033  45.2848279  47.2481199  53.0589300
  47.0135791  46.8791308  53.2648464  46.2544985  48.3732744  54.6246990
  45.5088124  49.1682730  54.6192745  46.0074969  47.6494451  55.4013332
  47.2375637  48.7992861  54.8251898  45.9268848  50.5189429  50.5633626
  45.7937592  50.0656580  49.4232045  46.3527980  51.7615210  50.7892199
  46.3424783  52.0948952  51.7425586  46.8816316  52.6313564  49.7657350
  46.4313888  52.4246244  48.7948372  46.5329695  54.0694281  50.1716828
  45.4456627  54.1151276  50.1102443  46.8407712  54.1415646  51.2148292
  47.1551871  55.2652540  49.3571923  46.8880987  55.0197554  48.3293328
  46.5633551  56.1170476  49.6922811  48.9351907  55.7018808  49.4297827
  49.0966141  56.4859678  51.0228913  48.8068887  55.7840948  51.8048968
  50.1318471  56.7914125  51.1748671  48.4499315  57.3624338  51.0642464
  48.3985616  52.4224612  49.8150324  48.9993720  52.5074388  50.8663671
  49.0389664  52.1083652  48.6956136  48.5555677  51.9004961  47.8335141
  50.5189467  52.0580405  48.7003788  50.8922273  52.5250677  49.6117769
  50.8440339  51.0182104  48.6661600  51.0773817  52.7799775  47.5214983
  50.4199457  52.9056865  46.4836812  52.2818399  53.3129250  47.7023887
  52.7659210  53.1537975  48.5744227  52.9799678  53.9712979  46.6549863
  52.2954183  54.2303311  45.8472779  53.6026936  55.2451736  47.1891540
  54.1224390  55.0644826  48.1300657  54.3113152  55.6161549  46.4486621
  52.6444651  56.3365875  47.4396090  53.0444408  57.4745239  48.1375812
  54.0641918  57.5495394  48.5151795  52.1394788  58.5198221  48.3540211
  52.4499267  59.4228205  48.8796794  50.8590286  58.4010695  47.9004959
  50.1244623  59.1798372  48.1055158  50.5073626  57.3181306  47.1989972
  49.4934263  57.2751140  46.8012751  51.3751302  56.2838020  46.9741761
  51.0456710  55.4075646  46.4158173  54.1719317  53.1726507  46.2264964
  54.8710250  52.6398088  47.0423280  54.4349091  53.1990161  44.9389511
  53.7981614  53.7169173  44.3503680  55.6173681  52.6427667  44.3397832
  56.1416215  52.0376679  45.0794541  55.2554939  51.7753769  43.1376555
  54.6191418  52.3486240  42.4634565  56.4803539  51.3537784  42.4204821
  57.1170378  50.7800421  43.0939515  56.2067644  50.7356971  41.5653651
  57.0202325  52.2347911  42.0734276  54.4865657  50.5072008  43.5609294
  55.0708776  49.9801070  44.3151526  53.5287862  50.8056496  43.9871760
  54.2385647  49.5529931  42.3251781  55.1959686  49.2537317  41.8986570
  53.6946075  48.6671112  42.6529325  53.6538788  50.0792756  41.5706790
  56.2630577  53.9277318  43.8461077  55.6234935  54.7424428  43.1830997
  57.5222294  54.1142175  44.1859779  58.1024542  53.3156310  44.3997495
  58.1316986  55.4333908  44.2045786  57.4661586  56.1848543  43.7797747
  58.4007965  55.7907537  45.6765973  58.3542406  54.7867789  46.0984578
  59.4225501  56.1647227  45.7419185  57.4698061  56.7149280  46.4587646
  57.9130635  57.7079249  46.3840580  56.0520548  56.7723773  46.0235778
  55.6079595  55.7797685  46.0984515  55.5031935  57.4645231  46.6621592
  56.0022964  57.1150919  44.9900541  57.6201188  56.3073527  47.9040707
  58.6580379  56.4342441  48.2118399  56.9782946  56.9307879  48.5265588
  57.3327417  55.2622372  48.0191659  59.4568387  55.4087393  43.4898479
  60.1490581  54.3913989  43.5252271  59.8231084  56.5317951  42.8752803
  59.1381026  57.2589029  42.7263485  61.1593196  56.7262675  42.3440466
  61.1788159  57.6645963  41.7897379  62.1336372  56.8108224  43.4483548
  62.1322434  55.8750216  44.0072600  63.1292768  56.9894014  43.0422617
  61.8603674  57.6306123  44.1127098  61.5367022  55.6319367  41.3821399
  60.6933496  55.1931800  40.6197181  62.8031566  55.2286128  41.4054859
  63.4285107  55.7592199  41.9949667  63.3658510  54.1239333  40.6035712
  63.4775700  54.4416366  39.5669022  64.7653833  53.7050632  41.1500821
  65.0054645  54.4125876  41.9437254  64.6391431  52.7101095  41.5769668
  65.9362581  53.6796883  40.0983890  65.8281497  52.7904876  39.4773130
  65.8632703  54.5697819  39.4734824  67.3960232  53.6524733  40.8408115
  67.3919418  54.4532591  41.5802874  67.4773721  52.6909469  41.3477126
  68.5803404  53.8267157  39.9555312  69.1799218  53.0192236  39.8630218
  68.9045014  54.9502765  39.2812762  68.1383396  56.0463357  39.3440646
  67.2987301  56.0403702  39.9054205  68.4034325  56.8741926  38.8297901
  70.0094943  54.9939856  38.5329145  70.6062695  54.1815023  38.4710257
  70.2434767  55.8393301  38.0321714  62.4324584  52.9136336  40.5730921
  62.0912356  52.4386054  39.5123433  61.9990993  52.4565846  41.7470300
  62.4638719  52.7849718  42.5814445  61.0434431  51.3693025  41.8733948
  61.4360509  50.4747908  41.3898588  60.7807033  51.0516966  43.3563062
  60.8661379  51.9740756  43.9307775  59.7699390  50.6556183  43.4541717
  61.8092274  49.9996826  43.9009230  61.3886245  49.0188202  43.6793309
  62.7238345  50.1407831  43.3250007  62.1379586  50.0947423  45.4406686
  62.8675100  49.3259306  45.6951923  62.5578525  51.0779230  45.6531403
  60.8623104  49.8894085  46.2794086  60.4924536  50.8793090  46.5466229
  60.1349240  49.3911312  45.6385281  61.0678128  49.0804632  47.5241922
  61.7414714  49.5422248  48.1183808  60.1903277  48.9910188  48.0162488
  61.4101234  48.1630160  47.2767795  59.7594217  51.5393685  41.0520243
  59.2269783  50.5720849  40.5619053  59.2970816  52.7650177  40.8337134
  59.7354019  53.5673262  41.2629868  58.1193189  52.9819045  40.0090460
  57.3367935  52.2868119  40.3133476  57.5958057  54.4192958  40.1837632
  58.3650973  55.1268292  39.8744303  56.7059712  54.5595523  39.5700670
  57.3452121  54.5905244  41.2306552  58.4245981  52.7194505  38.5519988
  57.5992237  52.1691657  37.8124735  59.6054657  53.1528336  38.1230979
  60.2192970  53.6738019  38.7329360  59.9962310  52.9833539  36.7330202
  59.1884650  53.3214666  36.0839492  61.2688049  53.8043269  36.4081294
  62.0646733  53.4696624  37.0734808  61.5453537  53.5909230  35.3756181
  61.0568115  55.3415450  36.5827578  60.1544653  55.9500897  35.9119309
  61.8035265  55.9307898  37.4041416  60.1690001  51.4853048  36.4115850
  59.7154315  51.0359969  35.3579689  60.8361581  50.7721014  37.3356749
  61.2002154  51.3406222  38.0869044  61.0363278  49.3269797  37.4014721
  61.7310402  48.9808422  36.6361861  61.6423924  49.0294651  38.7881800
  62.4585211  49.7458946  38.8817856  60.8483848  49.2905591  39.4878098
  62.1642255  47.6097077  39.1078990  61.7948600  47.3230312  40.0925241
  61.7699220  46.9233780  38.3585137  63.7115580  47.5489880  39.0996403
  64.0085063  46.7146496  39.7350929  64.0247044  47.3533416  38.0740861
  64.3905466  48.7734981  39.5771111  64.6835582  49.4134143  38.8527143
  64.6506674  49.0916097  40.8587414  64.2761768  48.2955961  41.8630278
  63.7867799  47.4344966  41.6652952  64.4839832  48.5581546  42.8159073
  65.2894119  50.2337190  41.1374272  65.5711347  50.8474339  40.3863704
  65.4869576  50.4769580  42.0975882  59.6910592  48.6143555  37.3018820
  59.4032920  47.9076446  36.3234962  58.8594186  48.8268239  38.3209678
  59.1501254  49.4225296  39.0830200  57.6249903  48.0899804  38.4603293
  57.8128215  47.0271655  38.3078723  57.0300342  48.2865398  39.8594525
  57.0985796  49.3309191  40.1638742  55.9902223  47.9628055  39.9051392
  57.8787683  47.4198955  40.8062366  58.8860088  47.8362282  40.7909210
  57.3977854  47.3558406  42.1897301  56.3907073  46.9391499  42.2058978
  58.0621913  46.7219306  42.7769471  57.3823566  48.3587521  42.6163808
  57.9336202  45.9995626  40.3003841  58.3797778  45.9844528  39.3059926
  58.5367132  45.3950764  40.9778623  56.9240546  45.5915571  40.2513160
  56.6265453  48.3524194  37.3577839  55.7679835  47.5061158  37.1004365
  56.7689563  49.5052558  36.7036010  57.5799858  50.0714910  36.9078270
  55.8057211  50.0007917  35.7124203  54.7935247  49.9336991  36.1112387
  56.0900509  51.4241494  35.3713113  57.0970059  51.5060876  34.9621318
  55.3686047  51.7722587  34.6320985  56.0126959  52.0361166  36.2699834
  55.8699790  49.1790937  34.4522432  54.9646817  49.2298050  33.6455844
  56.9672263  48.4516274  34.3013717  57.6478425  48.5118094  35.0451722
  57.2728317  47.6164924  33.1555966  56.8309092  48.0327277  32.2503055
  58.7791471  47.5551359  32.9761940  59.2229845  47.4759108  33.9685805
  59.0033389  46.6539567  32.4054804  59.3757775  48.8080436  32.2335154
  59.3570561  48.6207026  31.1598983  58.7583654  49.6770415  32.4609957
  60.8105468  49.0737477  32.6779940  61.4212430  49.3239846  31.8105087
  60.8263089  49.9037249  33.3843855  61.3752562  47.8127251  33.3559572
  60.6873097  47.5310245  34.1531240  61.4060241  47.0215460  32.6068323
  62.7687260  48.0161788  33.9366056  62.7403494  48.7489691  34.6310931
  63.0832844  47.1576627  34.3656781  63.4064374  48.2767985  33.1980255
  56.6960107  46.1993911  33.3475220  56.6870506  45.3856857  32.4368177
  56.1825659  45.9233327  34.5379409  56.3251064  46.5615076  35.3076905
  55.4976465  44.7180674  34.7877826  55.9378712  43.8915380  34.2299737
  55.6167274  44.4213657  36.2654090  55.6679052  45.4525176  36.6149887
  54.6931057  43.9635988  36.6196298  56.8265406  43.6310070  36.8141185
  56.6470690  42.5895896  36.5470221  58.2372889  44.0646108  36.3000426
  58.4176814  45.1058551  36.5671899  59.0005558  43.4351822  36.7575839
  58.2789472  43.9556405  35.2163034  56.7965578  43.5746936  38.3469038
  55.8804910  43.0835681  38.6751064  57.6584514  43.0131267  38.7072969
  56.8293968  44.5873180  38.7489143  54.0448764  44.8695543  34.3012967
  53.5802268  45.9798314  33.9631110  53.3489576  43.7350290  34.1933229
  53.8178211  42.8492172  34.3182382  51.9077652  43.7263760  33.9144115
  51.6794087  44.4449804  33.1272900  51.4560702  42.3243144  33.4490248
  51.8918644  41.5622227  34.0950889  50.3691315  42.2496329  33.4819933
  51.8664231  41.9853239  32.0497589  51.3657841  42.6496700  30.9423377
  51.9090193  42.1411435  29.8494487  51.6446795  42.5276056  28.8651366
  52.7410803  41.1757968  30.2090116  53.2983751  40.6120859  29.5831104
  52.7301502  41.0571669  31.5779474  53.3539299  40.3076720  32.0650384
  51.1680047  44.0830518  35.2067852  51.6961447  43.8795284  36.2982349
  49.9408860  44.5788512  35.0862384  49.5596148  44.7871366  34.1744551
  49.1478275  44.9174543  36.2601483  49.6532704  45.6920644  36.8368682
  47.7865035  45.4325639  35.8476973  47.9552020  46.1610007  35.0545896
  47.2381921  44.5801009  35.4467466  46.9871625  46.0683988  36.9494423
  46.6106843  45.3046890  37.6299658  47.6054649  46.7748880  37.5032267
  45.8174578  46.8054864  36.3187420  46.2007197  47.7400526  35.9091136
  45.4358993  46.1837985  35.5087935  44.6890376  47.1065257  37.3043159
  44.2122877  46.1778793  37.6180449  45.0867456  47.6232816  38.1777522
  43.6746627  47.9851080  36.6202496  43.3056987  47.5062817  35.8111199
  42.9220257  48.1922827  37.2611211  44.1161269  48.8458469  36.3298416
  49.0067116  43.7316295  37.2331385  49.1583372  43.8831449  38.4450802
  48.7329996  42.5494148  36.7097226  48.6115952  42.4050507  35.7174931
  48.4156955  41.4651243  37.6006244  47.8875987  41.8675452  38.4650725
  47.5254294  40.3814627  36.9358742  47.5886573  40.5688006  35.8639572
  48.0031084  39.4292532  37.1665688  45.9744917  40.3271729  37.3818416
  45.4696019  39.6145223  36.7296788  46.0142936  39.9268431  38.3948821
  45.1810326  41.6878547  37.3861771  44.9693639  42.3093030  36.3079103
  44.7186490  42.1156555  38.4819590  49.6811902  40.9331792  38.2114546
  49.6346540  40.3832693  39.2839384  50.8184929  41.1474007  37.5628054
  50.8257859  41.4146189  36.5888236  52.1005707  40.8276135  38.2074593
  51.9790192  39.9359425  38.8224774  53.2850041  40.6117626  37.2029262
  53.5600299  41.5779668  36.7799480  54.5122976  39.9882819  37.9020224
  54.2381521  39.0217742  38.3248790  55.3143392  39.8525312  37.1764869
  54.8520932  40.6497403  38.6989609  52.8766193  39.7318433  36.0260329
  52.0372199  40.2271043  35.5379490  53.7265860  39.7020568  35.3442933
  52.4670579  38.2713633  36.4129237  51.6167961  38.3003255  37.0943310
  52.1926272  37.7200854  35.5135464  53.3061621  37.7752786  36.9006777
  52.4517270  41.8730194  39.3079781  52.9889054  41.5332830  40.3535658
  52.1257650  43.1300904  39.0807399  51.7917479  43.3955508  38.1652823
  52.2529295  44.1554256  40.0854578  53.2728057  44.2146261  40.4655198
  51.9039912  45.4736672  39.4298282  52.0178979  45.3523085  38.3526111
  50.8627224  45.6975710  39.6616177  52.7614349  46.5845758  39.8934956
  52.2727806  47.0150071  40.7675934  53.7133525  46.1441470  40.1901055
  53.0061906  47.6705311  38.8664140  53.2965421  48.5907843  39.3732956
  53.8048672  47.3597908  38.1928744  51.8197271  47.9261417  38.0889246
  50.9614352  48.1393737  38.5767427  51.8091488  47.9201927  36.7581002
  52.9475241  47.6905136  36.0973656  53.8012078  47.5243757  36.6109046
  52.9491535  47.6840852  35.0873875  50.6747871  48.1130360  36.0917624
  49.8145464  48.2651979  36.5986478  50.6785817  48.1064695  35.0817915
  51.3127994  43.8677001  41.2915468  51.7382352  43.9103401  42.4543861
  50.0410746  43.5915007  41.0034343  49.7205566  43.7010173  40.0519230
  49.0651703  43.1890064  42.0251369  48.8968180  44.0183827  42.7120807
  47.7252953  42.7984930  41.3909885  47.3050009  43.6731598  40.8945917
  47.9018524  42.0137342  40.6554061  46.7580234  42.3001510  42.4347074
  47.0130454  41.2637800  42.6560661  46.8941287  42.9065005  43.3302060
  45.3363151  42.3783072  41.9934737  44.7647023  42.8746788  42.7776759
  45.2963975  42.9751737  41.0822896  44.7486027  41.0202714  41.7286611
  44.8452655  40.7628439  40.6739156  45.2490160  40.2644144  42.3339429
  43.2877760  41.0755418  42.1005571  42.8238093  41.7755768  41.5394994
  42.8634554  40.1744086  41.9331925  43.1979957  41.3136461  43.0779746
  49.5821182  42.0349375  42.8740438  49.7023162  42.1407294  44.1004656
  49.8828237  40.9278755  42.2006792  49.6985343  40.8970705  41.2081129
  50.3666708  39.7366118  42.8406820  49.5949224  39.3234747  43.4901598
  50.7392735  38.6772259  41.7817856  49.7904636  38.2825876  41.4183028
  51.2340228  39.2271743  40.9812358  51.6236934  37.5323673  42.2286124
  52.5974138  37.9197622  42.5284369  51.1604325  37.0222827  43.0731863
  51.8070885  36.5153057  41.0367680  51.8680882  37.0850991  40.1095607
  52.7403196  35.9739322  41.1919903  50.6420388  35.5135424  40.9472166
  50.7677825  34.8644592  41.8138076  49.7452198  36.1197399  41.0750432
  50.5014705  34.6440655  39.6644023  51.3322005  34.0819534  39.5460072
  49.6964633  34.0406045  39.7532742  50.3845151  35.2453190  38.8613365
  51.5202467  40.1122218  43.7491141  51.4605145  39.8225931  44.9257591
  52.5404574  40.7825492  43.2258003  52.5709249  40.9422628  42.2289740
  53.7049901  41.1799731  44.0315917  54.1620334  40.3023973  44.4888349
  54.7464987  41.8656005  43.1377630  54.2225670  42.2289524  42.2536984
  55.1436549  42.7122625  43.6977008  55.9083065  40.9444698  42.7049837
  56.5981865  40.8570030  43.5443382  55.4915918  39.9640743  42.4741685
  56.6550930  41.4786548  41.4870653  55.9284424  41.9738614  40.8429781
  57.3847637  42.2080744  41.8386718  57.3808423  40.3665560  40.6871646
  56.6148835  39.8766501  40.0859992  58.0861265  40.8764213  40.0308790
  58.1304732  39.3096321  41.5254673  57.4770456  38.8367659  42.1333568
  58.5643754  38.6371447  40.9093589  58.8405588  39.7633314  42.0822747
  53.4283892  42.0368436  45.2816037  54.1430545  41.9422444  46.2932486
  52.4079871  42.8809964  45.2104030  51.8332693  42.8945287  44.3799720
  52.0875864  43.7899977  46.2749940  52.9723902  44.2501910  46.7148161
  51.1357786  44.9086951  45.7242996  50.4676155  44.4484771  44.9963862
  50.3144809  45.5745015  46.8148815  50.9819959  46.0353743  47.5429754
  49.6754437  46.3392929  46.3734903  49.6957999  44.8273022  47.3118988
  51.9245894  45.9743793  44.9488329  52.4706155  46.5711729  45.6794447
  52.6324197  45.4516532  44.3055342  51.0398941  46.8951155  44.0943898
  50.3320637  47.4185681  44.7370976  51.6652084  47.6218769  43.5758349
  50.4938658  46.2990475  43.3631882  51.3968964  42.9747335  47.3795869
  51.6576781  43.1472265  48.5742412  50.4928241  42.0740381  46.9852747
  50.2805606  41.9573545  46.0047501  49.7742673  41.2474831  47.9528496
  49.2254270  41.8847487  48.6462225  48.8097487  40.3567346  47.2630373
  49.2427956  39.8940976  46.3761683  48.4238544  39.5814558  47.9249501
  47.4509438  41.2367242  46.7221875  46.8204110  40.1991143  46.1793317
  50.7382596  40.3987892  48.7545394  50.6207905  40.2829145  49.9552259
  51.7251198  39.8659670  48.0740187  51.7506471  39.9991806  47.0731681
  52.7232851  39.0759924  48.6659605  52.3218229  38.2086995  49.1901076
  53.5394253  38.6009204  47.5163294  52.8051783  38.1234589  46.8674757
  53.8847955  39.5258213  47.0544010  54.6912854  37.6876832  47.7149198
  55.5600512  38.0574338  48.2595586  54.2871484  36.8141477  48.2264940
  55.1076319  37.2992066  46.2940854  54.2597951  36.5746304  45.6397009
  56.1709581  37.8378007  45.8246175  53.5626967  39.8264394  49.7025330
  53.7434695  39.3461337  50.8045950  54.0374490  41.0128893  49.3574348
  53.9567129  41.3119589  48.3961136  54.6938232  41.8989357  50.3007542
  55.6233569  41.4571871  50.6598147  55.0156627  43.2015576  49.6031808
  55.7890931  42.9662382  48.8720656  54.1090572  43.5134405  49.0846295
  55.4967370  44.3282878  50.5049040  54.7252188  44.5599632  51.2391975
  56.7563784  43.9029915  51.2168665  57.5285568  43.6715794  50.4831856
  57.0999277  44.7111770  51.8625529  56.5523492  43.0183976  51.8201625
  55.7496727  45.5143181  49.6400354  54.8273102  45.7986634  49.1335824
  56.0972780  46.3450100  50.2542200  56.5097871  45.2684331  48.8985061
  53.7834146  42.1515405  51.5101496  54.2113733  42.0221755  52.6528656
  52.5189733  42.4960537  51.2754952  52.1601253  42.6161232  50.3390600
  51.6430016  42.8128040  52.3974064  52.1309898  43.5545739  53.0296597
  50.2921766  43.3746440  51.9356905  49.9216998  42.6302077  51.2309488
  49.6415650  43.4021697  52.8097882  50.3034396  44.7415423  51.2693541
  49.1315783  45.2396468  50.6861030  48.2360514  44.6204918  50.7388112
  49.0849406  46.4672623  50.0607766  48.1510394  46.8464016  49.6458264
  50.2469959  47.2413562  49.9890063  50.1848548  48.4443368  49.3200592
  49.3141378  48.6289967  48.9604035  51.4411859  46.7710143  50.5639105
  52.3455817  47.3785775  50.5317277  51.4638463  45.5112103  51.1816875
  52.3940630  45.1253667  51.5987267  51.4367172  41.6011957  53.3121792
  51.4659532  41.7182762  54.5319330  51.2334239  40.4241228  52.7336655
  51.0853488  40.3490111  51.7374068  51.1506235  39.1808318  53.5577029
  50.2986400  39.2610640  54.2328222  50.9514165  37.9181957  52.6464683
  51.8011450  37.8192550  51.9709891  50.8780728  37.0272847  53.2701658
  50.0365154  38.0300831  52.0646293  52.4024341  39.0299903  54.4216631
  52.3241560  38.8327480  55.6119391  53.5567574  39.1432981  53.7883993
  53.5406950  39.2194464  52.7814024  54.8322338  39.0877555  54.4469160
  54.9998920  38.0976469  54.8707967  55.9424243  39.3779427  53.4206001
  55.9568086  38.5209209  52.7472458  55.6183969  40.2634980  52.8738844
  57.3227226  39.6060533  53.9702720  57.7629889  40.4335887  53.4139881
  57.2144669  39.8895173  55.0171869  58.2397980  38.3705090  53.8647404
  57.6260041  37.4781228  53.7422545  58.8937963  38.4825346  52.9999653
  59.1147632  38.2316292  55.1712144  59.4111192  39.2427561  55.4503130
  58.4574406  37.8215365  55.9379283  60.3452935  37.3628380  55.0456790
  60.9547182  37.7429079  54.3355747  60.8324748  37.3393663  55.9301017
  60.0708708  36.4257542  54.7874830  54.7741697  40.0692624  55.5798620
  54.7750000  39.6413729  56.7258131  54.6158365  41.3664860  55.2628501
  54.4617013  41.5966849  54.2915880  54.7691142  42.4759570  56.2314951
  55.6987416  42.3918443  56.7943602  54.7195089  43.8862291  55.5560612
  53.8095933  43.9574692  54.9601772  54.7283891  45.0058752  56.6156723
  55.6382893  44.9355634  57.2116914  54.6933273  45.9760878  56.1201335
  53.8598374  44.8987660  57.2654779  55.8705050  44.1081529  54.5436386
  55.8100752  43.3591035  53.7540974  55.7843080  45.1031969  54.1071100
  56.8282801  44.0185522  55.0562198  53.7565798  42.4146164  57.3802385
  54.1232290  42.5740587  58.5634576  52.4855338  42.2226135  57.0533898
  52.1819928  42.1068460  56.0970634  51.4735455  42.2537512  58.0998959
  51.8186345  42.9124166  58.8968730  50.1056553  42.7608130  57.5990248
  49.7702641  41.9605690  56.9393115  49.4706620  42.7912021  58.4844400
  50.0182630  44.0896883  56.8677007  50.8158314  44.1441728  56.1267439
  48.6655359  44.2158294  56.1694202  47.8674314  44.1618954  56.9098384
  48.6128711  45.1716615  55.6481600  48.5496719  43.4040679  55.4512842
  50.2056518  45.2171572  57.8470466  51.1829541  45.1283452  58.3214853
  50.1427747  46.1699491  57.3213706  49.4271250  45.1708393  58.6085253
  51.3389534  40.8617212  58.7066309  50.4760426  40.6592023  59.5553153
  52.1869990  39.9181645  58.2644496  52.8763528  40.1775944  57.5733731
  52.1624708  38.5271049  58.7355086  52.8395857  37.9407732  58.1143566
  52.5088079  38.5068628  59.7688237  50.7772849  37.9161252  58.6676203
  50.2582698  37.4538872  59.6554261  50.1397416  37.9429722  57.5160510
  50.5590192  38.3151017  56.6759169  48.7974752  37.4144516  57.4355363
  48.7262437  36.5159447  58.0484888  47.7766946  38.4182705  57.9280479
  47.8695644  38.5330154  59.0080053  47.9484240  39.3801293  57.4448950
  46.4643500  37.9538875  57.6101705  45.8158175  38.5893867  57.9218531
  48.4874788  37.0890736  56.0007504  48.6835593  37.9311454  55.1153146
  47.9976114  35.8721950  55.7802211  47.8197109  35.2728674  56.5734784
  47.7531584  35.3479727  54.4584175  48.5711959  35.6281628  53.7947855
  47.6508267  33.8017296  54.4929667  47.0225933  33.5605554  55.3504380
  47.1384170  33.5132236  53.5751974  49.0226578  33.0110234  54.6035517
  49.0822927  32.5627745  55.5953266  48.9854713  32.2233434  53.8510363
  50.3060065  33.8684809  54.3654582  50.8417322  34.4911265  55.2988817
  50.8031704  33.8760585  53.1366724  51.6322766  34.4160570  52.9339755
  50.3505807  33.3417975  52.4087788  46.4797512  35.9724156  53.9252568
  46.1123718  35.7714612  52.7589555  45.8005268  36.7467261  54.7597761
  46.0445747  36.8653149  55.7326464  44.5624186  37.3195834  54.2904740
  44.0074532  36.5631167  53.7356130  43.6890962  37.8183250  55.4452959
  44.1472939  37.4867615  56.3770791  43.6824348  38.9077906  55.4118242
  42.2365465  37.2915455  55.3693177  42.0634317  36.9118695  54.3623528
  42.1758368  36.4694484  56.0824586  41.1571687  38.3571722  55.7139369
  41.1470224  39.4686812  55.0799111  40.3035306  38.0630460  56.6045275
  44.8631280  38.3993355  53.2233960  44.0027250  38.7247845  52.3900033
  46.1055269  38.8999323  53.2556125  46.6822328  38.6501467  54.0462558
  46.6283289  39.8555643  52.2976910  45.9689743  40.7212767  52.3600819
  48.0524973  40.2925207  52.6881026  48.7262522  39.4382727  52.6216597
  48.3915662  41.0756374  52.0099722  48.0491216  40.6733650  53.7093986
  46.5890326  39.3604996  50.8530112  46.5898970  40.1412960  49.9046705
  46.5216635  38.0535147  50.6841443  46.3914747  37.4332453  51.4705387
  46.6152019  37.4796471  49.3745129  47.2093502  38.1270882  48.7296043
  47.2825206  36.1088997  49.4372690  46.5703730  35.5326427  50.0279236
  47.2951308  35.7315265  48.4147572  48.6819293  35.9728925  50.0492218
  48.7040068  36.4032571  51.0504209  49.0061664  34.4751678  50.1293788
  48.9847323  34.0441711  49.1284386  49.9977585  34.3401659  50.5613746
  48.2666477  33.9757849  50.7553415  49.7509859  36.7230025  49.2549876
  49.5033491  37.7840326  49.2235122  50.7206089  36.5908236  49.7350515
  49.7924397  36.3298244  48.2392162  45.2478312  37.3176610  48.8271703
  45.0894756  36.7366852  47.7478276  44.2335772  37.7996524  49.5417324
  44.3414000  38.1008410  50.4997298  42.8717693  37.7028754  48.9893082
  42.9268633  37.4263511  47.9364083  42.0385593  36.6393212  49.7356343
  41.8757049  37.0823776  50.7181203  41.0804935  36.3455532  49.3067865
  42.8104763  35.3821667  49.9570310  42.8213720  34.3513061  49.0410028
  43.6748114  33.4257985  49.4436215  43.8288220  32.5220375  48.8540490
  44.2180488  33.8219667  50.5855195  44.8913331  33.3080013  51.1356355
  43.7161373  35.0573166  50.9090507  44.0712017  35.5732780  51.8011350
  42.1980977  39.0347626  48.8890884  41.1535390  39.2506668  49.5227913
  42.7954594  39.9434525  48.0857835  44.1025318  39.8338047  47.4233901
  44.3263141  38.7878656  47.2135494  44.8800006  40.2496737  48.0642444
  43.9017966  40.6246772  46.2002547  43.2858727  40.1024842  45.4680995
  44.8455570  40.9155978  45.7389707  43.1705927  41.8518399  46.7777603
  42.6459478  42.2839151  45.9256115  43.7382416  42.6305295  47.2871884
  42.1593916  41.2197695  47.7483361  41.9213092  41.7723938  48.6571933
  40.8863694  40.9266748  46.9901099  40.8648296  39.9217785  46.2391235
  39.8661416  41.7690696  47.1868007  39.9784153  42.5174402  47.8557068
  38.6372698  41.6770303  46.4786088  38.4677572  40.6696722  46.0983534
  37.4253917  42.0930298  47.3217470  36.5799659  42.2620880  46.6548334
  37.0634077  41.0192943  48.3365734  37.9082427  40.8500006  49.0041769
  36.2008086  41.3443954  48.9182372  36.8214142  40.0929758  47.8155408
  37.6204214  43.4279197  48.0364647  37.7942103  44.2127898  47.3003407
  36.7276306  43.6645904  48.6152662  38.4788689  43.3607969  48.7047934
  38.6326959  42.5877199  45.2787682  37.7337826  42.4802661  44.4450904
  39.5981438  43.5162626  45.2073481  40.2791448  43.5584460  45.9520342
  39.7100345  44.4759687  44.1110563  39.6686118  43.9423317  43.1615223
  38.5763840  45.5067679  44.1433784  37.6164133  44.9922857  44.1865484
  38.6723999  46.1685127  45.0041773  38.5381265  46.3810280  42.9350934
  38.7668693  47.7385372  42.9893008  38.6762306  48.2506244  41.7770082
  38.8242287  49.3176875  41.6109603  38.3984607  47.2725699  40.9335249
  38.2679395  47.3686422  39.9366125  38.3133489  46.0893001  41.6300589
  38.0981972  45.1603230  41.1020319  41.0369074  45.2191022  44.1996563
  41.6477660  45.2831186  45.2480473  41.4768079  45.7585289  43.0627472
  40.8738818  45.7588580  42.2524513  42.7573836  46.3773561  42.9530936
  43.0802582  46.7159868  43.9375632  43.8036812  45.4034370  42.4030592
  43.9205373  44.6005956  43.1309943  43.4194772  44.9932877  41.4691080
  45.1465897  46.0564789  42.1524802  45.9325912  46.4632195  43.2181953
  45.5551723  46.2956282  44.2269409  47.1936747  47.0811548  43.0269558
  47.7843468  47.4070125  43.8831247  47.6608806  47.2811054  41.7589766
  48.8785853  47.8576386  41.6645366  49.2667127  48.0566750  42.5197215
  46.9113116  46.8889017  40.6437907  47.2811655  47.0435851  39.6301924
  45.6317114  46.2718891  40.8549370  45.0268124  45.9657153  40.0014413
  42.5998112  47.5058919  41.9768944  42.1557996  47.3192986  40.8462479
  42.9918756  48.6822071  42.4234994  43.3690502  48.7434293  43.3584274
  42.9109617  49.9148410  41.6209811  42.5133342  49.7212133  40.6247383
  41.9551201  50.8520507  42.3539093  41.2323226  50.2066648  42.8530486
  42.5594833  51.3660284  43.1013530  41.2249965  51.8677628  41.5138602
  40.6528582  52.4968124  42.1958097  41.9758478  52.4728561  41.0057426
  40.2992574  51.2605185  40.4969479  40.7575617  51.1794805  39.3609047
  39.1490031  50.8782675  40.8130067  44.3612299  50.4148270  41.6017391
  45.0451295  50.2810892  42.5995409  44.8550878  50.8650451  40.4465157
  44.3595290  50.6670595  39.5890062  46.1352869  51.5548897  40.3608491
  46.3561656  52.0560234  41.3032804  47.2228102  50.5679289  40.0780306
  48.1839744  51.0550264  40.2423439  47.1181087  49.7301079  40.7673734
  47.1539907  50.0785168  38.7032824  46.2684546  49.4469157  38.6325242
  47.0485636  50.9280564  38.0285478  48.3646083  49.2848190  38.3205477
  48.5272439  49.0178283  37.1202421  49.1307661  48.9124468  39.2050878
  46.1648682  52.7064936  39.3160398  45.4480738  52.6565374  38.3409628
  47.0048255  53.7281918  39.5440343  47.5359605  53.7196775  40.4030584
  47.2340312  54.8229536  38.5958174  46.8019066  54.5609399  37.6300450
  46.5877370  56.1353853  39.0852915  45.5291511  55.9355758  39.2513376
  47.0601225  56.3984375  40.0317351  46.7339703  57.2586076  38.1322200
  46.9498619  58.1675073  38.6938187  47.5645454  57.0411491  37.4606853
  45.4994767  57.4493887  37.3425966  45.0159410  56.4832966  37.1978269
  44.8275743  58.1135674  37.8862079  45.8187768  58.0407730  36.0294123
  45.7276124  59.1258149  36.0791482  46.8355431  57.7749846  35.7402031
  44.8351294  57.4938226  34.9939182  43.8929419  57.7403701  35.2614939
  45.0431330  57.8914593  34.0890870  44.9197450  56.4884508  34.9473688
  48.7303075  55.0629885  38.5127658  49.3679980  55.3682439  39.5248004
  49.2776851  54.9712520  37.3105752  48.7106944  54.8275024  36.4871938
  50.7132696  55.1721449  37.1360119  51.2529816  54.9078744  38.0453915
  51.2015586  54.2644810  35.9929305  50.9571126  53.2370032  36.2624389
  50.6777317  54.5333939  35.0756567  52.6438602  54.3548184  35.7520772
  53.2985359  55.3719240  35.9989308  53.1800399  53.2865464  35.2383784
  54.1704887  53.2670079  35.0415809  52.6033251  52.4817699  35.0387901
  50.8814044  56.5721221  36.7043817  50.4731948  56.8924414  35.6135832
  51.4586523  57.4394114  37.5254384  51.6584304  57.2043163  38.4871651
  51.5322766  58.8391166  37.1267730  50.7332347  59.0328667  36.4111668
  51.3865983  59.8352164  38.3184030  52.0682400  59.5114765  39.1049500
  51.5912648  60.8757812  38.0665369  49.9838136  59.7985144  38.9145248
  49.5383988  58.9432579  39.9039104  50.2685865  58.2537509  40.3275917
  48.1941347  59.1633667  40.1501342  47.6652901  58.7567776  40.9084931
  47.7439080  60.1347181  39.2993204  46.5117868  60.7501317  39.2394069
  45.7140487  60.4024281  39.8957716  46.3730007  61.7754159  38.3420314
  45.4140513  62.2844996  38.2453373  47.4369566  62.1845330  37.5451933
  47.2904971  62.9935802  36.8295874  48.6443908  61.6243213  37.6179640
  49.4457958  62.0421211  37.0086250  48.8415722  60.5699174  38.5194666
  52.6919612  59.1528481  36.1761473  52.5837913  60.1081969  35.4267337
  53.7496878  58.3348304  36.1723492  53.8263595  57.6228277  36.8845802
  54.8267480  58.4487950  35.1850714  55.3984418  59.3580888  35.3706788
  55.7729783  57.2508316  35.2701879  55.3239239  56.4202145  34.7256471
  56.7167388  57.5255687  34.7990873  56.2149930  56.5807801  36.9722684
  57.0101459  55.6077978  36.5364524  54.3047690  58.5434515  33.7270388
  54.8980158  59.2635932  32.9009158  53.1898092  57.8453111  33.4544022
  52.8172683  57.2945416  34.2146427  52.5279940  57.7528075  32.1271477
  53.2366205  58.0265450  31.3454729  52.0341365  56.3329879  31.8623799
  51.0731756  56.2207275  32.3644267  51.8955990  56.2289634  30.7862357
  53.0172246  55.2314768  32.3689361  53.9511738  55.3411704  31.8177492
  53.1980568  55.4114826  33.4286516  52.4747244  53.8089692  32.1773986
  51.2166633  53.6019174  32.1966798  53.3198611  52.8926218  32.0054286
  51.3621426  58.7340337  31.9011393  50.6194624  58.6339942  30.8631131
  51.1919846  59.6872436  32.8397036  51.5952659  59.5981353  33.7613995
  50.2897073  60.8008588  32.5859855  49.4445584  60.4609482  31.9874177
  49.7632912  61.3685591  33.8886948  50.6007959  61.6240732  34.5378464
  49.1768899  62.2641774  33.6835087  48.9004228  60.3526275  34.5656417
  49.5444782  59.5135172  34.8286766  48.4899172  60.7935859  35.4740138
  47.7829961  59.8697658  33.6974130  47.0983832  60.7166343  33.0756060
  47.5816715  58.6421610  33.6576651  50.9070982  61.8815798  31.6910613
  51.7892066  62.6351845  32.0987864  50.3593966  61.9865018  30.4879286
  49.5831085  61.4004261  30.2159149  50.9323521  62.8525475  29.5044548
  52.0167516  62.7422176  29.5065080  50.4122986  62.5138684  28.1169240
  51.1635467  62.8587980  27.4064669  50.3362701  61.4277237  28.0658414
  49.1023191  63.1162885  27.7808380  48.3807562  62.6354972  28.4413587
  49.1192553  64.1877119  27.9805058  48.6631094  62.8964602  26.3366083
  49.2221386  63.4746295  25.4191289  47.6259325  62.1076996  26.1492642
  47.2941698  61.9287732  25.2122368  47.1667578  61.6851252  26.9434247
  50.6968675  64.3175126  29.8728708  51.5475666  65.1435220  29.5976919
  49.5536307  64.6313058  30.4704295  48.8400598  63.9216658  30.5560272
  49.2528187  65.9597444  30.9316942  49.8758580  66.6914383  30.4173546
  47.7725349  66.2770873  30.6347678  47.1771865  65.4815783  31.0829028
  47.4952301  67.2325707  31.0800244  47.5215187  66.3203010  29.1869233
  46.6432637  65.4432181  28.6096715  46.1266610  64.7327970  29.2550574
  46.4057214  65.4413887  27.2615446  45.6868841  64.7470403  26.8265101
  47.0906822  66.3358035  26.4451397  46.8696299  66.3263626  25.0760332
  46.2281147  65.6659366  24.8041959  48.0010506  67.2443493  26.9976566
  48.5403886  67.9494661  26.3651811  48.2122542  67.2398147  28.3643784
  48.9126193  67.9462426  28.8099660  49.5729216  66.1648055  32.4515843
  49.0593481  67.1228362  33.1028396  50.4092197  65.2767301  33.0213856
  50.6549300  64.4076939  32.5691668  50.9080429  65.5193354  34.3815650
  50.6404763  66.5375888  34.6638191  50.3433862  64.5574675  35.4285388
  50.5679671  63.5336268  35.1295187  50.8102524  64.7649243  36.3913979
  48.9483235  64.7187615  35.5390115  48.6070661  64.1101723  36.1983766
  52.4148791  65.4778674  34.3782482  53.0310758  66.3188407  35.0111016
  52.9657515  64.4713404  33.7053619  52.3392892  63.8495775  33.2143881
  54.3937400  64.2105360  33.6311326  54.6003550  63.7433512  32.6682474
  54.9134274  65.1669024  33.6893353  54.8964508  63.3123426  34.7292162
  55.9471999  62.8204959  34.6353915  54.1230152  63.0615881  35.7590097
  53.1616928  63.3681524  35.7145473  54.5715879  62.3686004  36.9578736
  54.2333653  61.3324058  36.9555724  55.6583985  62.3953344  37.0367877
  53.9649914  63.0892628  38.1695680  53.1863863  64.0482038  38.0360460
  54.3669424  62.6418454  39.3450301  55.1202969  61.9691276  39.3476591
  53.7877913  63.0416505  40.6308819  53.4944273  64.0910719  40.6034705
  52.5386354  62.1889582  40.9191465  52.5098782  61.2918186  40.3007512
  52.4749861  61.9073161  41.9702062  51.0194427  63.1010365  40.5511293
  50.1843757  62.1242387  40.8938061  54.7917722  62.8604103  41.7601314
  55.8062157  62.1922864  41.5858503  54.5763872  63.4573779  42.9163718
  55.2104811  63.2138678  43.6638523  53.5885681  64.4510925  43.1663356
  52.5938571  64.1118134  42.8773048  53.5980356  64.7035191  44.6440461
  54.4080604  65.4253321  44.7486650  52.6593287  65.1645318  44.9512867
  53.8810709  63.4905611  45.5255566  53.1087610  62.3028054  45.4156034
  52.3319190  62.2233503  44.6551412  53.3561364  61.1945850  46.3182656
  52.7830309  60.2718000  46.2281567  54.3377084  61.3116780  47.2992140
  54.5784762  60.2698506  48.1835101  54.0108805  59.5105700  48.0320905
  55.0965622  62.4987725  47.4107468  55.8748911  62.5891475  48.1684651
  54.8418453  63.5642355  46.5377986  55.4025426  64.4939571  46.6344234
  53.9647864  65.7433310  42.4857664  53.1210270  66.6297357  42.1846871
  55.2514380  65.8836220  42.2414861  55.9391331  65.1780162  42.4635114
  55.7225927  67.2071709  41.8332378  55.1286160  67.6480807  41.0326820
  55.7159047  68.1730330  43.0440346  54.7685407  68.0597762  43.5710778
  56.8733986  67.8773519  44.0049063  57.8211759  67.9908659  43.4786627
  56.8378451  68.5738390  44.8426061  56.7852815  66.8568317  44.3775649
  55.7490185  69.5355814  42.5658062  55.7449782  70.1373976  43.3137375
  57.0413037  67.2443261  41.0528977  57.6310633  66.1923926  40.7555603
  57.4865990  68.4632581  40.6755783  56.9338541  69.3012536  40.7866454
  58.7738661  68.5710673  40.0165323  58.9283332  67.7007464  39.3787388
  58.8468276  69.8125498  39.1636345  58.7030560  70.6931107  39.7897673
  59.8228442  69.8657743  38.6812871  58.0673951  69.7774052  38.4024846
  59.8717458  68.5489181  41.0652019  59.6775590  69.0393079  42.1915457
  61.0110662  67.9182048  40.7358879  61.0400543  67.2854879  39.9491679
  62.2088860  68.0454995  41.5690871  61.9549287  68.5834921  42.4824155
  62.7742216  66.6931302  41.9457392  63.5810467  66.8724988  42.6563442
  61.9369911  66.2203230  42.4591577  63.2636336  65.7903795  40.8509962
  64.5870512  65.8838069  40.3596652  65.2640561  66.6312525  40.7732939
  65.0321211  65.0162378  39.3399958  66.0465904  65.1010765  38.9504366
  64.1926380  64.0288456  38.8683215  64.6205015  63.1536970  37.8622347
  65.5180504  63.3283971  37.5698554  62.8700254  63.9087515  39.3566139
  62.1993337  63.1382416  38.9763673  62.4322853  64.7871145  40.3305584
  61.4153520  64.7113446  40.7155332  63.2293986  68.9049358  40.8793530
  63.1557288  69.0891236  39.6781491  64.1477830  69.4784039  41.6612183
  64.0825663  69.3045138  42.6539964  65.2524249  70.2612213  41.1774692
  65.0366243  70.6121916  40.1683363  65.4970671  71.4687862  42.0703242
  65.2199772  71.2437215  43.1002108  66.5502126  71.7469888  42.0304770
  64.7268109  72.6696670  41.6774618  63.3654459  72.7540480  41.9288383
  62.8450190  71.9279110  42.4133518  62.6746208  73.8804328  41.5660932
  61.5985310  73.9224556  41.7345135  63.3273932  74.9565107  40.9921371
  62.7830672  75.8721266  40.7609304  64.6853665  74.8653367  40.7102918
  65.2090687  75.6837732  40.2163302  65.3632959  73.7337738  41.0597746
  66.4305664  73.6523429  40.8538556  66.5090013  69.4006943  41.2532055
  66.8867337  69.0167258  42.3426170  67.1226596  69.0753650  40.0949610
  66.5632118  69.3036960  38.7383445  66.7407522  70.3379811  38.4436685
  65.4907565  69.1094219  38.7523536  67.3170333  68.3161261  37.8751945
  67.4070353  68.6846537  36.8533403  66.8171946  67.3475073  37.8688537
  68.7106757  68.2192644  38.5708932  69.2814734  69.0504014  38.1567675
  69.2671008  67.2922816  38.4323521  68.4534529  68.4560775  40.0606684
  68.4644550  67.5800414  40.7091574  69.5132786  69.4794222  40.5555939
  69.3385608  70.7174845  40.4072280  70.6592138  68.9594472  41.0063327
  71.0640139  67.5334722  40.9912240  71.3543497  67.2447918  39.9810413
  70.2315924  66.9118915  41.3210887  72.1632525  67.5055229  41.9085066
  72.8317380  66.6698374  41.7014899  71.8169207  67.4461115  42.9403138
  72.8563366  68.8672727  41.6341912  73.3341598  68.7645706  40.6599037
  73.5809912  69.2445974  42.3557183  71.6876238  69.8156280  41.5346396
  71.3484134  70.2651505  42.4678942  71.9861918  70.9035527  40.5325049
  71.9478617  70.6397598  39.3144072  72.3001341  72.1085178  41.0067890
  72.2800626  72.3133480  41.9955969  72.6877112  73.1787108  40.0831461
  73.3890447  73.8324837  40.6016164  73.1834797  72.7207529  39.2272328
  71.5128681  74.0061438  39.5895600  71.6638994  75.2152951  39.4096717
  70.3299106  73.4102148  39.4046625  70.1864958  72.4308286  39.6054960
  69.2773252  74.1342173  38.6697132  69.7199794  74.6928319  37.8450277
  68.1593688  73.2003099  38.1221969  67.7785214  72.6128364  38.9576193
  66.9840255  73.9833533  37.4589042  67.3640449  74.5707441  36.6230465
  66.2358645  73.2783738  37.0964685  66.5299253  74.6487421  38.1931725
  68.7273023  72.1814885  37.0957250  69.1662453  71.3734150  37.6809148
  67.8706909  71.8021148  36.5385968  69.7274646  72.7050583  36.1578870
  70.5846380  73.0842158  36.7142980  70.0525338  71.9074450  35.4898733
  69.2890838  73.5129176  35.5719813  68.7458534  75.3378911  39.4460489
  68.4170202  76.3716478  38.8679184  68.6938160  75.2067912  40.7634611
  69.1334541  74.4248390  41.2275390  68.0441943  76.1852450  41.5621030
  67.0276445  76.3652301  41.2123444  67.9826082  75.6663346  42.9637578
  67.2657579  74.8458413  42.9956296  68.9705690  75.2957768  43.2371082
  67.5481315  76.7737646  43.9676963  67.9029091  76.5427524  44.9721201
  67.9360099  77.7449389  43.6603317  65.7942363  76.8287865  43.9738647
  65.7465582  75.8364880  45.4857481  66.2753614  76.3606450  46.2818170
  64.7102534  75.6759382  45.7830639  66.2252933  74.8741476  45.3045995
  68.8337571  77.4946933  41.5686335  68.2750551  78.5876728  41.3994564
  70.1342579  77.3869444  41.8221386  70.5364336  76.4957406  42.0753378
  71.0132818  78.5721594  41.8069252  70.4982445  79.3931819  42.3056815
  72.3227932  78.3062778  42.5343775  73.0032361  79.1414695  42.3683879
  72.0597391  78.1500877  44.0479948  71.3796950  77.3147374  44.2148164
  73.0012727  77.9599093  44.5632091  71.6123048  79.0652122  44.4358740
  72.8616458  77.0935449  42.0158954  73.6916325  76.8978870  42.4568494
  71.3092247  79.0452373  40.3769290  71.5710179  80.1973806  40.1810434
  71.2082319  78.1744333  39.3762318  71.0329346  77.1935806  39.5414538
  71.3971523  78.6201407  38.0030778  72.1826333  79.3755366  37.9808099
  71.7908161  77.4874836  37.0853187  72.1969966  76.6703049  37.6814191
  70.9081249  77.1407265  36.5479961  72.8171046  77.9471102  36.1090399
  72.4355269  78.7965944  35.5425809  73.7024917  78.2514790  36.6672079
  73.2099853  76.8539626  35.1365781  73.3095356  75.6713478  35.5211948
  73.4169473  77.2297048  33.8523700  73.6807649  76.5395563  33.1637506
  73.3065794  78.1984459  33.5888154  70.1465874  79.2711833  37.4603938
  70.2293537  80.3449452  36.9272016  68.9702188  78.6447021  37.5644533
  68.8252837  77.8152020  38.1221473  67.8024286  79.2247050  36.8450585
  68.0687096  80.1823092  36.3976350  67.3755681  78.2803586  35.7458943
  66.9478947  77.3989944  36.2237979  66.5936437  78.8172811  35.2088575
  68.4495642  77.8548002  34.7763513  68.8604398  76.5358576  34.7311898
  68.4106017  75.8122899  35.4110391  69.8263074  76.1334304  33.8403373
  70.1707219  75.0993775  33.8256719  70.3995247  77.0745272  32.9766019
  71.3265918  76.6447886  32.0907095  71.4971502  75.7021724  32.1538285
  70.0137919  78.3771272  32.9885406  70.4594772  79.1121382  32.3182990
  69.0226026  78.7645465  33.8865752  68.6778047  79.7984094  33.9050689
  66.5752640  79.4355093  37.7101120  65.5490380  79.9631672  37.2453848
  66.6295585  78.9205114  38.9281166  67.5022687  78.5235982  39.2458212
  65.4842642  78.8978406  39.8395555  64.7707150  78.2407712  39.3423568
  65.8722266  78.4041814  40.7305578  64.7706204  80.1837372  40.2544513
  63.5978806  80.0921104  40.5981139  65.4227200  81.3624066  40.1848914
  66.3439493  81.3844591  39.7714309  64.8311046  82.6359709  40.6465526
  64.5887791  82.5330486  41.7042787  65.7518004  83.8459001  40.4712340
  65.6302371  84.1454634  39.4302809  65.3349159  84.6152051  41.1212164
  67.2168376  83.6717881  40.7754711  67.4001902  83.9885129  41.8021979
  67.4723823  82.6174372  40.6699099  68.1045931  84.5271149  39.7963658
  68.7287555  85.1988948  40.3856298  68.7394329  83.8538723  39.2203256
  67.2979286  85.3308456  38.8612882  66.3713541  85.5594748  39.1918754
  67.6805760  85.7869344  37.6474579  66.8231772  86.5219708  36.9009568
  65.8994055  86.7273326  37.2539049  67.1111406  86.8616764  35.9944377
  68.9085922  85.5408948  37.1635957  69.5659384  85.0046825  37.7117493
  69.1694319  85.8931449  36.2536609  63.5817176  83.0243791  39.8786247
  62.7610822  83.7463781  40.3817886  63.4851883  82.5977101  38.6422725
  64.2445208  82.0872492  38.2145539  62.3857033  83.0066937  37.8114873
  61.8573240  83.8536920  38.2491040  62.8493131  83.3974345  36.3711736
  61.9772121  83.6080413  35.7521550  63.7594821  84.6751351  36.4447430
  64.6320871  84.4651410  37.0632605  64.0838040  84.9491296  35.4408292
  63.1951704  85.4992059  36.8812763  63.6082354  82.2521031  35.6449624
  62.9572148  81.3822204  35.5579085  63.9038034  82.5850921  34.6500465
  64.4967420  81.9845326  36.2168564  61.2297321  81.9717117  37.8233463
  60.3226412  82.0673893  37.0063041  61.2155400  81.0678991  38.8041743
  61.9850843  81.0187349  39.4564655  60.1882924  80.0029551  38.8491470
  60.2109503  79.4296359  37.9223834  60.3898580  79.0321631  40.0711459
  61.3607310  78.5448705  39.9814138  60.3296483  79.8157413  41.3954284
  59.3588276  80.3029654  41.4860955  60.4708108  79.1298900  42.2307617
  61.1166261  80.5697995  41.4081294  59.3110698  77.9185009  40.0567713
  59.1843729  77.6096634  41.0943974  58.3947767  78.3924695  39.7048337
  59.6098127  76.7118641  39.2072618  60.5257847  76.2370634  39.5589142
  58.7840490  76.0038664  39.2776380  59.7361907  77.0198703  38.1693501
  58.7140566  80.5359830  38.7573265  57.8741225  79.9600646  38.0792906
  58.4182051  81.6690865  39.3943142  59.0758166  82.1484073  39.9925601
  57.0838591  82.2071335  39.2744467  56.5077800  81.6517672  38.5343114
  56.3972991  82.0841379  40.6103061  55.3628398  82.4022604  40.4807245
  56.4203105  81.0330815  40.8981447  57.0252323  82.8868471  41.6524993
  58.0554448  82.5614418  41.7969791  57.0137969  83.9380059  41.3643390
  56.2667992  82.7122428  42.9229920  55.4352394  83.4109273  43.0149007
  55.9017219  81.6940349  43.0574191  57.2153845  82.9953001  43.9456383
  57.3314215  83.9597584  44.2221430  57.9694350  82.0839138  44.5178784
  57.8005241  80.7979126  44.2524821  57.0836217  80.5095526  43.6020979
  58.3893446  80.1111374  44.7016256  58.8632148  82.4924633  45.3882846
  58.9495360  83.4774405  45.5943639  59.4603778  81.8199096  45.8478132
  56.9871446  83.6652928  38.8014321  55.9057646  84.2992661  38.9394470
  58.0976854  84.1949953  38.2721084  58.9588564  83.6710411  38.3350032
  58.1318304  85.5079964  37.6375919  57.7782139  86.2846116  38.3157684
  59.5713755  85.8002136  37.2767138  60.1042764  85.8370206  38.2268512
  59.9063669  84.9339847  36.7061630  59.8604671  87.0873421  36.4747492
  59.4619290  86.9390908  35.4711109  59.4056259  87.9729099  36.9185861
  61.3827469  87.3139702  36.3720997  61.9624864  87.4186933  35.2745961
  62.0347851  87.3174219  37.5357476  63.0345775  87.4598982  37.5504777
  61.5257219  87.1775452  38.3967880  57.2213971  85.5291169  36.3810454
  57.2617847  84.6034499  35.5830194  56.3537595  86.5672208  36.2502547
  56.0176108  87.5096739  37.3327057  56.8622963  88.1766187  37.5053079
  55.8043988  86.9509184  38.2439861  54.8439132  88.2119575  36.8230787
  54.9023131  89.2491071  37.1532442  53.9580473  87.7438879  37.2523265
  54.8292516  88.1123019  35.3068321  55.3424594  88.9811881  34.8948205
  53.8330528  88.0387205  34.8706289  55.6249776  86.8479285  35.0025539
  55.0060747  85.9817350  34.7685318  56.5584901  87.1258973  33.8474259
  57.6595684  87.6886114  34.0464145  56.1417601  86.6507609  32.6764607
  55.4242534  85.9412502  32.7197970  56.6457753  87.0475538  31.3625660
  57.5520314  87.6351867  31.5091489  56.9832868  85.8294786  30.4384298
  56.0559245  85.3180368  30.1805040  57.6665404  86.2788482  29.1907642
  58.5942836  86.7900084  29.4478802  57.8899476  85.4137191  28.5664714
  57.0153298  86.9616261  28.6450163  57.9129295  84.8458939  31.1468052
  57.4296984  84.4750909  32.0507382  58.1315528  84.0094016  30.4830401
  58.8418300  85.3503535  31.4128225  55.5182277  87.9180455  30.7441998
  54.4359336  87.3941436  30.3441745  55.7562956  89.2484385  30.7196242
  56.6394650  89.5874905  31.0733965  54.7920321  90.2267349  30.2028329
  55.1283563  91.2368697  30.4365267  54.6963761  90.1169955  29.1225984
  53.4554740  90.0001178  30.8354006  53.3441793  90.0556546  32.0350915
  52.4379206  89.6267651  30.0623303  52.4860979  89.6709616  29.0544489
  51.1119323  89.4063316  30.6950997  51.1571903  89.7338955  31.7337300
  49.9905793  90.1821092  29.9835032  50.0000426  89.9089725  28.9283227
  49.0375945  89.8907909  30.4251519  50.1782134  91.7267801  30.1229138
  49.8766446  92.0342473  31.1242235  51.2283874  91.9743814  29.9682201
  49.3404641  92.4446449  29.1061369  48.3018883  92.1170788  29.1526093
  49.3873541  93.5238899  29.2515016  49.8777887  92.1239405  27.7705797
  50.8832712  92.1637416  27.6838610  49.1542348  91.7920793  26.6895553
  49.8163261  91.5234952  25.5371613  50.8246241  91.5770660  25.5133869
  49.2982244  91.2710735  24.7077317  47.7857769  91.7283950  26.7552295
  47.3149387  91.9329074  27.6250491  47.2549620  91.4772669  25.9334820
  50.7103397  87.9515880  31.0041408  49.5308513  87.6752021  31.1534724
  51.7183836  87.0639012  31.1240352  52.6498786  87.4142256  30.9517295
  51.5640440  85.6625731  31.4839655  50.5201425  85.3583166  31.4078284
  52.4133914  84.7943897  30.5665966  53.4545692  85.0909607  30.6934616
  52.2640472  83.2602869  30.8780510  51.2231455  82.9628527  30.7509403
  52.8910755  82.6875597  30.1947357  52.5742522  83.0655547  31.9046724
  52.0032039  85.0715436  29.1129664  50.9440377  84.8422435  28.9959654
  52.1725217  86.1258219  28.8940412  52.8053771  84.2284322  28.1638171
  52.6362026  83.1739440  28.3818411  52.4983112  84.4410063  27.1397947
  53.8646875  84.4575211  28.2799187  52.0311946  85.5479522  32.9071947
  53.1236495  85.9998879  33.2408376  51.1697049  85.0265471  33.7699711
  50.2439334  84.7955262  33.4387977  51.4716547  84.8192943  35.1880002
  52.4760085  85.1842741  35.4028546  50.4828317  85.5646324  36.0749625
  49.4867728  85.2543916  35.7591831  50.6016701  85.3724438  37.1412838
  50.5432329  87.0068749  35.9030497  49.8263392  87.6060730  34.9177867
  49.1546787  87.0196993  34.2907795  49.9524213  88.9742171  34.7109392
  49.3735805  89.4481095  33.9181782  50.8003349  89.7339825  35.4971862
  50.8957237  90.8030440  35.3071641  51.5155882  89.1528170  36.5064103
  52.1513991  89.7477231  37.1621018  51.4224181  87.7868066  36.6881134
  52.0322928  87.2949515  37.4458939  51.4353587  83.3240223  35.4101108
  50.8010025  82.6027640  34.6169748  52.1785339  82.8234944  36.3858098
  52.6126063  83.4227280  37.0732687  52.4332775  81.3665340  36.4633344
  51.8937298  80.8411850  35.6753014  53.9051754  81.1178120  36.2858192
  54.4840788  81.6894283  37.0112328  54.1154479  80.0555118  36.4099319
  54.4189014  81.5017119  34.9277038  54.7957542  82.8113104  34.6484925
  54.7193003  83.5709773  35.4264134  55.2712663  83.1564836  33.3765858
  55.5791618  84.1785407  33.1559045  55.3496103  82.1610111  32.3725610
  55.6825028  82.4212699  31.3677984  55.0046216  80.8640261  32.6676654
  55.0976408  80.0871501  31.9087771  54.5399482  80.5460235  33.9267941
  54.2552615  79.5199361  34.1595987  51.9420158  80.8117812  37.7918920
  52.3162706  81.3393195  38.8534044  51.0292535  79.8407024  37.7549475
  50.7041213  79.4787428  36.8698635  50.4656397  79.3013061  38.9585277
  50.8818437  79.7135599  39.8777232  49.0667124  79.4673014  38.9836075
  48.6345476  79.0510737  38.0736140  48.6544779  78.9505893  39.8503090
  48.8273370  80.5288403  39.0463282  50.8734614  77.8722321  38.9197490
  51.8891287  77.5856291  38.3433258  50.1092137  76.9427460  39.4828841
  49.1888856  77.1388001  39.8498421  50.6199438  75.5660728  39.5791944
  49.8078063  74.8392701  39.5621742  51.3210969  75.3455643  38.7742971
  51.3489680  75.4640469  40.9138821  52.0844861  76.4124980  41.3344599
  51.2144031  74.3035008  41.5519095  50.5919313  73.6125700  41.1579010
  51.8216937  74.0280572  42.8620774  51.5091415  74.7364774  43.6292484
  51.4356330  72.6271935  43.3082524  50.3717716  72.4885795  43.1156773
  52.1899972  71.6083723  42.6062980  53.2539948  71.7460647  42.7987806
  51.8826843  70.6226542  42.9556086  52.0015589  71.6889448  41.5357376
  51.6360455  72.5491483  44.6978814  51.3989527  71.6715998  45.0065818
  53.3647679  74.2383566  42.9487161  53.8954986  74.6811207  43.9719320
  54.0510203  73.9568440  41.8536553  53.5664184  73.5445605  41.0692558
  55.4997030  74.1629217  41.7459915  56.0109969  73.6145738  42.5371882
  56.0059513  73.6671922  40.4092313  55.3926564  74.1197909  39.6300502
  57.0379616  73.9997675  40.2976579  55.9455472  72.1508277  40.2854822
  56.6772805  71.8740716  39.5264873  56.2429635  71.7309104  41.2463736
  54.5494653  71.5938507  39.8865713  53.6901203  72.3551938  39.3180848
  54.3130374  70.3740248  40.1638428  55.8978842  75.6172603  41.9306125
  57.0525437  75.9189587  42.0982032  54.9548144  76.5368350  41.9002198
  53.9696605  76.3490724  41.7805688  55.3840749  77.9478193  42.1174673
  56.4652137  78.0055608  41.9913561  54.7455920  78.8529482  41.1394205
  55.2090488  79.8332107  41.2507469  54.8876867  78.3819667  39.6838174
  54.4240229  77.4019041  39.5716002  54.3957041  79.0940946  39.0213023
  55.9442809  78.3153053  39.4244617  53.3540099  78.8812997  41.4644491
  52.8941363  79.4602841  40.8521634  54.9512375  78.4508761  43.4926351
  55.0892483  79.6523291  43.7898717  54.3988659  77.5649911  44.3278905
  54.2801635  76.6072189  44.0300963  53.9448486  77.9304899  45.6359822
  53.4586243  78.9060198  45.6411362  52.9469798  76.8748250  46.1921103
  53.4226460  75.8941365  46.2016918  52.6570391  77.1473658  47.2068793
  52.0609955  76.8421534  45.5580255  55.1698226  78.0321013  46.5276793
  56.2025116  77.3757559  46.2706615  55.0125234  78.7605784  47.6285731
  54.1115622  79.1610346  47.8476691  56.0922919  78.9698568  48.5502062
  57.0139609  78.6223755  48.0834277  56.2429116  80.4799666  48.8827422
  57.0774278  80.6122879  49.5713452  56.5064469  81.2849734  47.5967006
  55.6720825  81.1535080  46.9077502  56.6100484  82.3415675  47.8436312
  57.4240115  80.9304561  47.1271334  55.0306667  80.9458212  49.4511600
  55.1132844  81.8790605  49.6605377  55.8087040  78.2520468  49.8450006
  56.6789421  78.0840033  50.6571385  54.5768542  77.8213134  50.0433027
  53.8138314  78.0844037  49.4361133  54.2802051  76.9992257  51.2085110
  55.1943878  76.6040988  51.6515052  53.5677167  77.8934478  52.2567982
  54.3068032  78.6254520  52.5824056  52.7637421  78.4017345  51.7244734
  52.9928134  77.1697684  53.4795167  52.6022583  76.2171712  53.1215697
  53.8289911  76.9883494  54.1547914  51.8334205  77.9638982  54.2633272
  52.2500090  78.8839036  54.6733798  51.0355876  78.2079442  53.5618974
  51.2553747  77.0883736  55.4273674  50.8641224  76.1573890  55.0171358
  52.0504842  76.8654939  56.1388621  50.1476369  77.8327882  56.1290126
  49.4105752  78.0390324  55.4699958  49.7803047  77.2626523  56.8774189
  50.5100677  78.6952893  56.5095843  53.4385418  75.8205415  50.7116252
  52.4293822  76.0198551  50.0433970  53.8890637  74.6072794  51.0306927
  54.7915368  74.6039897  51.4841580  53.2948756  73.3307515  50.6688723
  53.9783504  72.5363048  50.9685651  51.9373479  73.0843119  51.3322839
  51.2471683  73.9083513  51.1514231  51.5507619  72.1782177  50.8657599
  51.9350559  72.8398018  52.8107350  51.5475172  73.7297929  53.8019018
  51.2726674  74.7365328  53.4872082  51.5990921  73.1034379  55.0463488
  51.3486254  73.5258345  55.9289286  52.0391962  71.8170384  54.8763649
  52.2585105  70.8231401  55.8220739  52.0603066  71.0615050  56.8670600
  52.7130218  69.5965641  55.3833157  52.9422621  68.8047816  56.0964982
  52.8849149  69.3525089  54.0309138  53.1758969  68.3619923  53.6811913
  52.6920378  70.3648662  53.0674470  52.8887499  70.1292008  52.0215661
  52.2549510  71.6092089  53.4911476  53.2383961  73.1734023  49.1812039
  52.3477222  72.5111870  48.6020331  54.2523148  73.7384155  48.5424849
  54.9302546  74.2665648  49.0731028  54.4841327  73.5519043  47.1245033
  53.6745112  73.9875146  46.5389642  55.7966040  74.2585970  46.7497906
  55.6277780  75.3352082  46.7722716  56.5539365  73.9946162  47.4879380
  56.2405177  73.8786074  45.4635147  57.0597126  74.3357621  45.2597278
  54.6943751  72.0479940  46.8881292  55.4488850  71.4520345  47.5975833
  54.1536415  71.5077707  45.8072795  53.7288918  72.1130188  45.1192666
  54.1436950  70.1048758  45.5695802  54.3025909  69.9167164  44.5077670
  54.9414405  69.6348332  46.1446988  52.8406096  69.5135426  45.9763103
  52.6268081  68.3155506  45.7717765  51.9519084  70.3133239  46.5462796
  52.0286221  71.3157095  46.4491328  50.8013422  69.7689755  47.2919304
  50.7668954  68.6890524  47.1481295  50.8906260  70.0622489  48.8032100
  51.2026317  71.1022691  48.8986546  49.9051902  69.9364653  49.2517575
  51.8736612  69.1808572  49.5052744  53.2635898  69.4217784  49.4004196
  53.6166740  70.2615663  48.8019321  54.2126361  68.5671226  50.0773654
  55.2832887  68.7675862  50.0371262  53.7297454  67.5039420  50.8428022
  54.6338241  66.6916080  51.4582762  55.5435894  66.9490581  51.2920044
  52.3464700  67.2257619  50.9380909  51.9780726  66.3816675  51.5210905
  51.4345453  68.0680021  50.2581727  50.3646802  67.8654141  50.3076372
  49.5650672  70.4396049  46.7930774  49.6361731  71.4483569  46.0776388
  48.4216316  69.9240050  47.1810361  48.3468934  69.1030340  47.7645770
  47.1853242  70.6067616  46.7781410  47.1591154  70.6928115  45.6918594
  45.9516147  69.8429647  47.2351925  46.0159625  69.7308727  48.3175021
  45.0791431  70.4461801  46.9841456  45.8214408  68.4675967  46.5888067
  45.8060470  68.5793437  45.5046589  46.6730872  67.8518391  46.8780179
  44.3259573  67.6766610  47.1139676  44.7750785  66.9837647  48.7176224
  45.0818014  67.7867200  49.3879080  43.9163842  66.4642558  49.1428933
  45.5988400  66.2810065  48.5925254  47.1013109  71.9561983  47.4110577
  46.5233009  72.8386325  46.8601374  47.5401215  72.0428195  48.6416669
  47.8283226  71.2018819  49.1211076  47.6483046  73.2870865  49.3332513
  46.6611832  73.6805343  49.5759227  48.4067442  73.0598757  50.6192208
  47.7889197  72.4404504  51.2693781  49.3266686  72.5273756  50.3778026
  48.7440878  74.3527410  51.3271048  49.3555171  74.0414451  52.1740700
  49.3388534  74.9769603  50.6602441  47.5556853  75.1402275  51.8268391
  47.7700959  76.2999026  52.2420870  46.4078287  74.6146701  51.8741758
  48.4158710  74.3419937  48.5141094  47.9232487  75.4222084  48.3770500
  49.6138638  74.0350205  48.0110719  49.9748469  73.1121894  48.2064521
  50.4338691  74.9472187  47.1977904  50.5746446  75.8689111  47.7623829
  51.4009588  74.4731927  47.0300526  49.8059183  75.2817931  45.8515988
  49.9826533  76.4054677  45.3041372  49.0433218  74.3340395  45.2867460
  48.9996014  73.3895322  45.6418431  48.2474742  74.6702565  44.0619997
  48.9121647  74.9624897  43.2490510  47.4606860  73.4442003  43.6291031
  46.7839158  73.1449127  44.4294212  46.8835363  73.6793120  42.7348319
  48.1495010  72.6277709  43.4121325  47.2619278  75.8751940  44.3311128
  47.2316125  76.8541865  43.5761633  46.4680290  75.7913322  45.4020534
  46.5353389  74.9806471  46.0006839  45.5413778  76.9116204  45.8145676
  44.7994835  77.1692208  45.0587012  44.8075414  76.6281951  47.1540747
  45.5576335  76.4368623  47.9214422  43.9148727  77.8248535  47.5892336
  43.1641898  78.0165038  46.8225222  43.4195137  77.5859366  48.5303174
  44.5343198  78.7120992  47.7203134  44.0054167  75.3436308  47.2016181
  44.6672247  74.4948303  47.0294262  43.5350726  75.2443642  48.1798932
  43.2360943  75.3662829  46.4297821  46.4109767  78.1835230  46.0997296
  46.1856763  79.2558496  45.5422707  47.4381387  78.0829620  46.9170648
  47.7264919  77.2390722  47.3911974  48.2066851  79.3256992  47.1648398
  47.5591849  80.0218526  47.6979563  49.4585262  79.1207377  47.9709551
  49.1521691  78.7594994  48.9526636  50.0420323  78.3504114  47.4667547
  50.3161510  80.3879267  48.1356871  50.1737764  81.0016077  47.2461782
  50.0084768  80.9501113  49.0173810  51.7905733  80.0098271  48.2622953
  52.5234386  79.9400857  47.2604558  52.2430211  79.7382880  49.3717882
  48.5873574  79.9243622  45.8432010  48.4588837  81.1646720  45.5971907
  49.0634384  79.0562343  44.9557851  49.1969171  78.0777885  45.1677441
  49.5932392  79.5711385  43.6919486  50.1552017  80.4571404  43.9874109
  50.5359392  78.5913603  43.0786750  49.9863855  77.7023079  42.7693587
  51.0150495  79.0423646  42.2096821  51.2962663  78.3123886  43.8081794
  48.5152453  80.0551352  42.7173295  48.7433017  80.9514782  41.9877211
  47.3353907  79.4461165  42.7116443  47.1775712  78.6648435  43.3319707
  46.2490245  79.8638295  41.8380023  46.5974499  79.9301988  40.8073258
  45.4231556  79.1549038  41.8968593  45.7636729  81.2193650  42.2794709
  45.6099167  82.1453080  41.4788695  45.5271321  81.3543639  43.5558963
  45.6592368  80.5756208  44.1853459  44.9523821  82.5537414  44.0744597
  44.1196725  82.8740075  43.4482620  44.4311303  82.3034081  45.4902146
  45.2472575  81.9152259  46.0995998  44.0847800  83.2489620  45.9074308
  43.2606352  81.2819560  45.4815068  42.5258601  81.7177962  44.8045653
  43.6315327  80.3471243  45.0612403  42.6015646  81.0054934  46.8442218
  43.2192199  81.3580905  47.9307706  41.4740841  80.3863959  46.8322622
  45.9721352  83.7249777  43.9746893  45.5921486  84.8562878  43.7359813
  47.2595208  83.4450113  44.1317470  47.5722981  82.5086969  44.3452537
  48.2429380  84.4882411  44.0449008  47.9157800  85.3622672  44.6080572
  49.5858938  83.9896928  44.6395311  49.4265347  83.9264649  45.7159633
  49.7338995  82.9883238  44.2352362  50.8219559  84.8396557  44.3575993
  50.5975371  85.5517581  43.5634663  51.1025100  85.3805895  45.2613592
  52.0143718  83.9123103  43.9094733  52.9566008  84.2181584  44.3641826
  51.8215689  82.8653340  44.1434967  52.1230972  84.0510870  42.4995595
  52.0381558  84.9968243  42.1553716  52.3186899  83.0861180  41.6347298
  52.5686498  81.8249832  41.9535166  52.6189665  81.5533203  42.9249936
  52.7077746  81.1408578  41.2236424  52.2519471  83.4425877  40.3911942
  52.0606108  84.4056845  40.1546883  52.3915557  82.7557554  39.6639600
  48.3791286  84.8815333  42.5500783  48.5862968  86.0627612  42.2378346
  48.2910145  83.9324466  41.6085921  48.2643723  82.9387120  41.7871450
  48.3938822  84.3869535  40.2163724  49.2218630  85.0953790  40.1902883
  48.6807138  83.2764996  39.2436234  47.8561393  82.5636800  39.2516989
  48.7926305  83.6904803  38.2415281  49.6015612  82.7693389  39.5315944
  47.1449421  85.1769268  39.8558329  47.2553291  86.2193055  39.2042084
  45.9713733  84.7398262  40.3136977  45.9034903  83.8699383  40.8224081
  44.7414491  85.5104841  40.0842661  44.5097423  85.5389374  39.0195589
  43.5613849  84.8883673  40.8233637  43.7746989  84.8613019  41.8919443
  42.6662774  85.4848592  40.6470678  43.3985633  83.8736689  40.4600792
  44.9174996  86.9248493  40.5667631  44.5184789  87.8599655  39.8786881
  45.4704255  87.0673978  41.7774517  45.6475700  86.2516303  42.3459959
  45.7337595  88.3800230  42.3518810  44.8342241  88.9939252  42.3065006
  46.1540491  88.2392689  43.8093898  46.9258059  87.4733049  43.8854807
  46.5524168  89.1916902  44.1590996  44.9875735  87.8523561  44.6474794
  44.1341238  88.4613670  44.3494353  44.7657117  86.8013886  44.4621510
  45.2568473  88.0527226  46.0894634  46.0632621  87.4011074  46.4259033
  45.5204622  89.0906943  46.2924939  44.0513164  87.7241621  46.8332625
  43.3381854  88.4367211  46.8949339  43.8026635  86.5243939  47.3692969
  44.7218307  85.5383469  47.2543484  45.5880350  85.7140846  46.7655679
  44.5376667  84.6309420  47.6578328  42.6722655  86.3474957  48.0835227
  42.0298508  87.1172782  48.2053354  42.4733333  85.4460506  48.4933047
  46.7617656  89.2041990  41.5770143  46.6642118  90.4333170  41.5213345
  47.7413073  88.5286444  40.9706480  47.8407257  87.5324734  41.1042844
  48.7153503  89.2128896  40.1345901  49.1721160  90.0354646  40.6848943
  49.8100636  88.2376934  39.7191673  49.3679114  87.2413999  39.7193078
  50.1065399  88.5029139  38.7043472  51.0282192  88.2494183  40.6202420
  51.5581506  89.1935226  40.4939858  50.6657632  88.1710576  41.6452222
  51.9746667  87.0934953  40.3272572  53.0963813  87.1270604  40.8679555
  51.6043675  86.1345094  39.5834920  48.0063520  89.7921398  38.9157683
  48.2494843  90.9600682  38.5346137  47.1184775  88.9967160  38.3173446
  47.0576254  88.0204049  38.5687665  46.2727152  89.4859279  37.2340871
  46.8227763  90.0198483  36.4591929  45.4490155  88.3207565  36.5565672
  45.0095475  87.7032778  37.3399490  44.3043839  88.8941150  35.6353791
  44.7431446  89.5113693  34.8514230  43.7543163  88.0692355  35.1824995
  43.6235030  89.4985581  36.2346716  46.4053343  87.3607679  35.7979117
  47.1210432  86.9311994  36.4988637  45.8265795  86.5615565  35.3348742
  46.9405657  87.9147880  35.0267503  45.3043151  90.5939480  37.6770565
  45.0852552  91.5276209  36.9134103  44.7221320  90.4897379  38.8868979
  44.8988415  89.6797121  39.4637265  43.7903770  91.5070018  39.3837326
  43.0449136  91.7313132  38.6207989  43.0736217  91.0039247  40.6324637
  43.8756028  90.6393455  41.2743418  42.5575471  91.8261461  41.1281641
  42.1145428  89.9064019  40.3696172  42.5700750  89.1642106  39.7140691
  41.7416162  89.2459414  41.7123766  41.2855738  89.9874582  42.3683315
  41.0352347  88.4349394  41.5351714  42.6400828  88.8479515  42.1840357
  40.8932161  90.5185828  39.6001384  41.2361034  90.9559908  38.6624807
  40.1655086  89.7347215  39.3901273  40.4277989  91.2912117  40.2121272
  44.5102428  92.8473441  39.7058813  43.9051975  93.9631180  39.6452525
  45.7790181  92.7363026  40.0967060  46.1504267  91.8228218  40.3151274
  46.6317905  93.8973270  40.3098688  46.1114880  94.6054559  40.9548013
  47.9552736  93.5253822  40.9638066  47.7176636  93.1706267  41.9666971
  48.4633467  92.7355809  40.4104753  48.8889845  94.7137776  41.0789858
  48.6122186  95.6883000  41.8045723  49.9569254  94.6724224  40.3288357
  50.6205399  95.4332565  40.3579396  50.1143795  93.8797919  39.7229926
  46.8275713  94.5837571  39.0009610  46.4736516  95.7210269  38.8893041
  47.2970739  93.8825059  37.9729006  47.6707696  92.9601112  38.1450604
  47.2978549  94.3864339  36.5977650  48.1166534  95.1014272  36.5174355
  47.4927906  93.5365996  35.9436388  45.9888430  95.0707365  36.1547992
  46.0240771  96.1799433  35.6227701  44.8345716  94.4238116  36.3473729
  44.8346920  93.4887406  36.7291341  43.5441201  95.0245012  35.9730683
  43.6250488  95.4408809  34.9689878  42.3990623  93.9961459  35.9882412
  42.4799137  93.5768077  36.9910960  41.4385754  94.5004490  35.8822065
  42.4998552  92.8836228  34.9669195  43.4902860  92.4338176  35.0363662
  41.4205183  91.7979842  35.2178812  40.4297386  92.2469716  35.1481341
  41.5155486  91.0107103  34.4700377  41.5568116  91.3723811  36.2120575
  42.4358174  93.4125079  33.5362620  43.2604592  94.1049217  33.3670629
  42.5117886  92.5799672  32.8368297  41.4894172  93.9307915  33.3819646
  43.2022172  96.1627861  36.9061614  42.1758398  96.8122893  36.7595565
  44.0490753  96.4106178  37.8894664  44.8593628  95.8297963  38.0512683
  43.8242339  97.5536432  38.7797211  44.7744788  97.8019846  39.2524369
  43.4922806  98.3934203  38.1692452  42.8025220  97.2913914  39.8459512
  42.4196102  98.2203718  40.5396160  42.3832252  96.0265097  40.0216206
  42.7215145  95.2819640  39.4289053  41.3695510  95.7096513  41.0169810
  40.7763357  96.5968008  41.2387031  40.4475695  94.6290150  40.4986104
  41.0842810  93.8570242  40.0664902  39.9237280  94.2244714  41.3646558
  39.4487780  95.0813443  39.4776648  38.6692156  95.6800074  39.9488184
  39.9390156  95.6696157  38.7019677  38.8364691  93.8569333  38.8642902
  39.5892144  93.0686293  38.8571918  37.9957555  93.5502079  39.4865601
  38.3633615  94.1007895  37.4798650  38.9441242  94.8886097  37.0001207
  38.4198629  93.1921521  36.8804613  36.9466593  94.5305230  37.5943383
  36.8941272  95.3727146  38.1493640  36.5740148  94.7106647  36.6730430
  36.4082539  93.8004772  38.0384686  41.8661719  95.2832624  42.3923541
  41.0772782  95.1486246  43.3099561  43.1610569  95.0437716  42.5466750
  43.7794902  95.1323094  41.7530752  43.7313642  94.6287699  43.8264989
  43.2232237  94.9654402  44.7301280  43.7902757  93.0854482  43.8392970
  43.8272287  92.7376031  42.8069513  44.9904344  92.5733603  44.5830402
  44.9539418  92.9204360  45.6156620  44.9910501  91.4834872  44.5664032
  45.8985525  92.9439896  44.1075857  42.4445442  92.4768843  44.3566544
  41.6291925  92.7897585  43.7044172  42.5129714  91.3890349  44.3556098
  42.2528071  92.8273841  45.3707982  45.1221140  95.2561234  43.9486361
  45.8299189  95.3697413  42.9620068  45.5373049  95.6546256  45.1351842
  44.9770126  95.5432279  45.9681083  46.8379747  96.3403340  45.2538136
  47.0210155  96.9586987  44.3750530  46.8929820  97.2268015  46.4935275
  47.9149275  97.2492147  46.8719787  46.4428324  98.6616994  46.1425313
  45.4207425  98.6401460  45.7644210  46.4862817  99.2853329  47.0354437
  47.1032887  99.0738618  45.3796289  46.0425444  96.6737089  47.5106177
  46.0752702  97.2299151  48.2923875  48.0348224  95.4058673  45.2975124
  47.8974613  94.1934106  45.4721853  49.2194722  95.9822306  45.1556557
  49.2832547  96.9603073  44.9119407  50.4511945  95.2193042  45.2719679
  50.4827114  94.4581114  44.4924222  51.6835564  96.1298748  45.1206232
  51.3688372  96.9742457  44.5073623  51.9313644  96.4813262  46.1222085
  52.8885040  95.4876955  44.5048627  52.7509485  94.4090386  44.5802196
  52.9197541  95.7769535  43.4544093  54.2142119  95.8858083  45.1873696
  54.4798190  97.1139132  45.3532979  55.0069878  94.9562530  45.5564541
  50.4242596  94.4955513  46.6260319  50.6192026  93.2851595  46.6708638
  50.1056444  95.2255103  47.7017875  49.8948138  96.2043354  47.5693068
  50.1198493  94.6914405  49.0818110  51.1341983  94.3816103  49.3332082
  49.6541686  95.7450000  50.1151821  49.8030857  95.2771432  51.0883383
  50.3458233  96.5801385  50.0044684  48.1409385  96.2836663  50.0050135
  47.7784826  95.9575702  49.0301351  47.5839813  95.7709514  50.7892483
  47.9337023  97.8604763  50.1493788  46.9443866  98.0961836  49.7572111
  47.9683991  98.0975071  51.2127282  49.0411810  98.7309050  49.3694334
  48.5641228  99.6909278  49.1722725  49.8524405  98.8688984  50.0842166
  49.6119509  98.1541372  48.0431971  48.8604410  98.0265981  47.3805762
  50.2917447  98.7964019  47.6617835  50.0544226  97.2647586  48.2257447
  49.2719332  93.4503304  49.1854158  49.5423928  92.5812865  50.0138706
  48.2820505  93.3527031  48.2861560  48.2611049  94.0267083  47.5342400
  47.2114084  92.3699909  48.3618021  47.0879117  92.0094160  49.3829943
  45.9140206  93.0363124  47.9204353  46.1802306  93.8336474  47.2265417
  45.2998026  92.2974586  47.4057205  45.1362985  93.6175493  49.0821943
  44.1856469  94.4020707  48.7952159  45.5004507  93.2937473  50.2583615
  47.4003000  91.1073331  47.5545696  46.6485696  90.1813277  47.7218876
  48.3960940  91.0861970  46.6832255  48.9057318  91.9400507  46.5063006
  48.7172143  89.9179159  45.8897257  47.8658945  89.5775020  45.3002580
  49.8962840  90.2514701  44.9466683  50.6975369  90.6778591  45.5502298
  50.4215211  89.0173196  44.1968900  49.6209009  88.5906223  43.5927069
  51.2483224  89.3094902  43.5494824  50.7684481  88.2751499  44.9158650
  49.4745306  91.3358175  43.9387711  48.6898295  90.9045397  43.3172050
  49.0655052  92.1649925  44.5160635  50.6029733  91.8435258  43.0513668
  51.0122197  91.0149418  42.4733825  50.2177281  92.6041915  42.3723431
  51.3878969  92.2753928  43.6722417  49.0037669  88.6602210  46.7685439
  48.5231660  87.5351712  46.4995316  49.7921362  88.8322626  47.8156917
  50.1628873  89.7390688  48.0613450  50.1324415  87.7025316  48.6526780
  49.8711294  86.7745763  48.1440385  51.6219741  87.6898655  48.9508177
  51.9597868  88.6292814  49.3884016  51.8079816  86.8757202  49.6512952
  52.4879117  87.4367447  47.7624714  53.0128220  88.3636365  46.9256926
  52.7637151  89.4044847  47.1322850  53.7769226  87.7577541  45.9591695
  54.2117455  88.2298036  45.1792991  53.8019600  86.4071907  46.1857099
  54.4422700  85.3659074  45.4561675  55.0406821  85.6394448  44.5871572
  54.2642268  84.0557525  45.8992338  54.7592788  83.2322531  45.3845764
  53.4346311  83.7689948  47.0293608  53.2688195  82.7463553  47.3682037
  52.7930177  84.8319409  47.7530699  52.1778956  84.5724069  48.6146776
  52.9785369  86.1604307  47.3129934  49.3585181  87.8618589  49.9322668
  49.6515012  88.7380557  50.6867189  48.3769933  87.0110348  50.1740112
  48.2584001  86.1920240  49.5949978  47.4367566  87.2234472  51.2783548
  47.6244346  88.1611902  51.8013407  45.9502925  87.2322675  50.7439318
  45.8102342  86.3532617  50.1147802  44.9561984  87.2125378  51.8519384
  45.0953423  88.0915394  52.4813001  43.9483965  87.2194408  51.4367417
  45.0959736  86.3121661  52.4501819  45.6960419  88.4591743  49.8450467
  46.3744944  88.4323610  48.9923537  44.6657579  88.4425693  49.4896052
  45.8679046  89.3710658  50.4169016  47.6712438  86.0638757  52.2244561
  47.6879394  84.9355834  51.7753695  47.8957332  86.2848438  53.5126093
  48.2008987  87.1612182  53.9112837  47.9474772  85.0704728  54.3616956
  48.2954140  84.2519312  53.7315934  48.8560607  85.1599861  55.5956204
  48.5828133  84.3148814  56.2274694  49.8724870  85.0232808  55.2264466
  48.7804095  86.4388161  56.4031503  49.5421998  87.1240101  56.0312824
  47.7996751  86.9072906  56.3207253  49.0605923  86.1504486  57.8740149
  50.0247673  85.4281544  58.1920881  48.1942668  86.6789644  58.7805839
  48.3381677  86.5154962  59.7668253  47.4112505  87.2323374  58.4631487
  46.6087818  84.4901089  54.7216324  45.6574166  85.2193363  54.9625055
  46.5561626  83.1636956  54.7373786  47.3758489  82.6543750  54.4393748
  45.3832509  82.4134191  55.1089970  44.4807188  82.8341017  54.6656447
  45.5738529  81.0150940  54.5785974  46.1346256  81.1062096  53.6483657
  46.1750203  80.4800292  55.3137188  44.2892917  80.2486309  54.3215621
  44.5504851  79.3767718  53.7217784  43.9517976  79.9239929  55.3058420
  43.1641861  81.0289817  53.6267586  43.4316154  81.8292863  52.6973017
  41.9910168  80.8080254  54.0113808  45.1011108  82.3772662  56.6596790
  45.9515555  81.9624956  57.4265624  43.9015565  82.8238470  57.1192277
  42.8694185  83.6136010  56.4353141  42.4812341  83.0451136  55.5901897
  43.3070299  84.5449099  56.0757882  41.8322225  83.8413466  57.5051208
  40.8541432  83.6796956  57.0519886  41.9159138  84.8793984  57.8269056
  42.0590416  82.9309650  58.6206169  41.4174824  82.0723470  58.4224352
  41.8491512  83.3182570  59.6176377  43.5363098  82.5141806  58.5197842
  44.2162322  83.0301997  59.1976693  43.6396817  80.9937376  58.7486976
  43.3084667  80.1584133  57.8274860  44.0469370  80.6491443  59.9693379
  44.2700917  81.3686023  60.6421540  44.2071675  79.2843680  60.3590617
  44.8491686  78.7661389  59.6467610  44.8499740  79.2057014  61.7426763
  45.8678591  79.5909577  61.6827873  44.2716509  79.8151337  62.4371077
  44.8798753  77.8150584  62.2192347  43.8382731  77.5091625  62.3171808
  45.3655123  77.2092785  61.4541944  45.5940479  77.6188329  63.5513057
  46.5114515  76.7744285  63.5641862  45.2279247  78.2798193  64.5707961
  42.8737643  78.6056796  60.3722172  41.8659968  79.1757481  60.8180688
  42.8324090  77.3803923  59.8704137  43.6714467  76.9143982  59.5558273
  41.5894663  76.6341205  59.8674635  40.8455064  77.1325075  59.2459867
  41.8455688  75.2522555  59.3017829  41.9346369  75.2966540  58.2163361
  42.7585504  74.8322320  59.7238551  40.7617724  74.4469273  59.6460196
  40.8976570  73.5621459  59.2991808  41.1749400  76.4327991  61.2924107
  42.0393668  76.0959249  62.1363048  39.8785168  76.6473742  61.6057958
  39.2549526  77.0962749  60.9502386  39.3879210  76.3666828  62.9357334
  40.1979033  76.5099237  63.6509325  38.2410454  77.2700616  63.3186238
  37.5902493  77.4189855  62.4570058  37.6718738  76.8140771  64.1286990
  38.7930782  78.6223219  63.7809905  39.1173696  78.5597006  64.8197467
  39.6352886  78.9174365  63.1551382  37.7129269  79.6285730  63.6611670
  37.3501314  79.6380191  62.6333591  36.8978893  79.3547309  64.3311101
  38.2280298  81.0103344  64.0289406  38.9556913  81.3373291  63.2861864
  37.3959460  81.7139015  64.0559426  38.8784886  80.9569081  65.3730917
  39.6498132  80.3053431  65.3481689  39.2210204  81.8749301  65.6180559
  38.2042773  80.6543395  66.0615613  39.0294475  74.8922372  63.1062588
  39.1042685  74.3915730  64.1923915  38.6876783  74.1888747  62.0440305
  38.5419837  74.6581397  61.1616118  38.4276781  72.7559899  62.1161501
  37.8078839  72.5175180  62.9804911  37.6853249  72.3385647  60.8556308
  38.2600328  72.6149775  59.9716591  37.5735451  71.2549042  60.8914796
  36.3227977  72.9823436  60.7906504  35.7536730  73.3091663  61.8946038
  35.8277215  73.1994042  59.6585986  39.6706578  71.8826668  62.3150627
  39.6390633  70.9125549  63.0971105  40.7536080  72.2341873  61.6242616
  40.7120628  73.0971069  61.1010569  42.0265271  71.4909150  61.6464699
  41.9482030  70.6083027  62.2812612  42.3928331  71.0399002  60.2188595
  42.7194009  71.9123759  59.6529630  43.4951382  70.0082783  60.2331721
  43.1691140  69.1352534  60.7985363  43.7292406  69.7117284  59.2107462
  44.3839982  70.4320185  60.7005837  41.1400222  70.4445899  59.5506069
  40.3557245  71.2004181  59.5093426  41.3859908  70.1213721  58.5391083
  40.7901493  69.5899254  60.1296046  43.1026055  72.4466884  62.0920298
  43.8962087  72.8983842  61.2421776  43.1380341  72.8057425  63.3974539
  42.3527058  72.4123187  64.5954022  42.3547246  71.3260024  64.6849178
  41.3274539  72.7652943  64.4842006  43.0800322  73.0949864  65.7452571
  43.8356243  72.4367043  66.1740278  42.3796263  73.3985849  66.5233065
  43.7182656  74.3187263  65.0750797  44.5808030  74.6493506  65.6537123
  43.0380116  75.1573378  64.9264692  44.1759554  73.7759954  63.7278818
  44.1836496  74.5412453  62.9517171  45.5685181  73.1298432  63.8236232
  45.7414379  71.9062460  64.0045087  46.5605940  73.9671657  63.6610392
  46.3677261  74.9490629  63.5240024  47.9577909  73.5286085  63.6691860
  48.0605312  72.5306150  63.2430961  48.8129301  74.4899600  62.8643045
  48.7276205  75.4920747  63.2845289  49.8538949  74.1687449  62.9005448
  48.4723183  74.5004964  61.8289438  48.4711694  73.4849776  65.0993723
  48.7570347  74.5244143  65.6893370  48.6149543  72.3030941  65.6521935
  48.1743169  71.4739367  65.2801236  49.3443861  72.1921974  66.8904181
  49.1291898  73.0031191  67.5862598  48.9922005  70.8618309  67.5647676
  48.9929929  70.0732240  66.8123064  49.9819307  70.5340721  68.6277734
  49.9813804  71.3220537  69.3808908  49.7142286  69.5860595  69.0943653
  50.9757583  70.4538243  68.1873547  47.5744267  70.9097485  68.1369968
  46.8634670  71.0975293  67.3323996  47.3413837  69.9567857  68.6120258
  47.5067103  71.7091278  68.8749046  50.8602273  72.3594547  66.5903259
  51.4187624  71.7683809  65.6299279  51.5274642  73.1799528  67.3923676
  51.0380433  73.7741115  68.0462345  52.9603122  73.3557787  67.2422410
  53.1946259  73.6189634  66.2107711  53.4607417  74.4775288  68.1598880
  52.6649619  75.2085460  68.3028830  53.7433131  74.0554963  69.1243267
  54.6672823  75.1583165  67.5316134  55.4901132  74.4434529  67.5361096
  54.4118818  75.4110770  66.5025450  55.0836587  76.4094222  68.2685308
  55.7112003  77.2754376  67.6183503  54.7903607  76.5252139  69.4839096
  53.8505259  72.1049079  67.4079115  53.7317032  71.3529525  68.3535992
  54.7429604  71.9055462  66.4551153  54.7527615  72.5119835  65.6475034
  55.7203898  70.8320716  66.5225919  55.3275855  69.8920229  66.9100355
  56.4381840  70.5735301  65.1576155  56.9662206  71.4767539  64.8518958
  57.4413938  69.4191148  65.3044645  56.9139948  68.5153670  65.6097362
  57.9376206  69.2446439  64.3497815  58.1852842  69.6771909  66.0582038
  55.4320671  70.4077141  64.0066977  54.7322195  71.2411477  64.0675458
  55.9941014  70.4731767  63.0750692  54.6966196  69.1543297  64.0414754
  54.1339322  69.0883522  64.9726735  54.0078590  69.1130771  63.1976708
  55.3958149  68.3203808  63.9801991  56.7754964  71.2220604  67.5693391
  57.3930679  72.3122112  67.4914564  56.9582669  70.3078233  68.5283013
  56.3438715  69.5076328  68.5763942  57.9833826  70.4491512  69.5434053
  58.6265658  71.3014074  69.3241477  57.3633264  70.6445455  70.9599248
  58.1719865  70.6642727  71.6905273  56.5438310  71.9784772  71.0515961
  55.7346516  71.9592901  70.3215548  56.1264161  72.0809615  72.0532751
  57.2000247  72.8236492  70.8437628  56.5123328  69.5277281  71.2665933
  56.1297979  69.6469865  72.1389721  58.9179570  69.2304192  69.5572561
  58.5126154  68.0985332  69.2921552  60.1732495  69.4742080  69.8855374
  60.5246570  70.4210159  69.8984492  61.1054632  68.3832613  70.1809202
  60.6240010  67.4182062  70.0229264  62.2963680  68.4843241  69.2603503
  62.9159642  69.3653506  69.4276588  62.8956788  67.5859298  69.4080465
  61.9064123  68.5045930  67.8246857  61.6571346  69.6785454  67.1384391
  61.2939302  69.3834993  65.9012130  61.0691725  70.1756360  65.1869984
  61.2759168  68.0626922  65.7709591  61.0300420  67.5514016  64.9353591
  61.6480207  67.4914148  66.9631797  61.6856685  66.4063137  67.0593009
  61.5557750  68.3940620  71.6360222  61.8662465  69.4543117  72.1923513
  61.5865718  67.1916657  72.2141993  61.1946067  66.4181740  71.6963448
  62.1117186  66.9343073  73.5462832  61.4818167  67.4187691  74.2923526
  62.1443907  65.4510426  73.8316884  62.2834682  65.3136573  74.9040143
  60.8405253  64.7447528  73.3860251  60.7010023  64.8813161  72.3136523
  60.9083633  63.6802603  73.6104193  59.9930412  65.1747806  73.9198296
  63.2427114  64.8999115  73.1218699  63.2877552  63.9550289  73.2854804
  63.5435688  67.4969878  73.7749528  64.2901384  67.8161396  72.8196779
  63.8880521  67.6393394  75.0572001  63.2335709  67.3101941  75.7524821
  65.1461145  68.2095658  75.5102685  65.1977860  69.2662725  75.2479705
  65.2504705  68.0773906  77.0338868  64.6680686  68.8880499  77.4717665
  64.8848203  67.1226686  77.4119157  66.6549123  68.2325087  77.5446976
  67.1819557  69.4990625  77.7646516  66.5535904  70.3724012  77.5899048
  68.4868560  69.6607060  78.2000507  68.8856487  70.6566661  78.3927384
  69.2932341  68.5362724  78.3919926  70.3221775  68.6610757  78.7293345
  68.7801552  67.2399159  78.1506426  69.4040938  66.3577499  78.2941134
  67.4760316  67.1000832  77.7297240  67.0692517  66.1075157  77.5362304
  66.3052008  67.4608470  74.8922523  67.3181666  68.0526702  74.4731383
  66.1223040  66.1520618  74.8932003  65.2322426  65.8200440  75.2362081
  67.0751447  65.1849935  74.4248046  68.0568939  65.3600412  74.8648343
  66.5973854  63.8152266  74.8410072  65.5399047  63.6692225  74.6207424
  67.1884286  63.0934052  74.2773212  66.7827926  63.4838171  76.2866932
  65.8294755  63.0518811  77.1314410  64.8206511  62.9765058  76.7256189
  66.3581910  62.7932806  78.3591998  65.8390315  62.4630607  79.1601541
  67.6997781  63.0599630  78.3369856  68.6670874  62.9600301  79.3613431
  68.3465393  62.6103278  80.3426973  69.9566028  63.3110406  79.0562097
  70.7334358  63.2504740  79.8184185  70.3002822  63.7521292  77.7662382
  71.3264466  64.0319840  77.5279795  69.3304830  63.8468379  76.7400078
  69.6434769  64.2071311  75.7600464  68.0094700  63.4952996  77.0361621
  67.2137878  65.1818065  72.9039214  68.3260646  64.9766840  72.3919847
  66.0862607  65.3735972  72.2042043  65.2044013  65.3134647  72.6928836
  66.0638903  65.5571934  70.7522535  66.5723330  64.7165891  70.2800569
  64.6146536  65.6369870  70.1962221  63.9658907  66.0330426  70.9774685
  64.6088482  66.3140002  69.3419859  64.1054775  64.2604401  69.7595741
  64.5568423  64.0920848  68.7818077  64.5042213  63.5386378  70.4723883
  62.5797503  64.0894446  69.6561044  61.7968722  65.0684415  69.8604766
  62.1767797  62.9275539  69.3834476  66.8864361  66.7753099  70.3925264
  67.7007659  66.7403430  69.4496806  66.7340486  67.8214174  71.1909042
  66.1028102  67.7735636  71.9778905  67.3934305  69.1016140  70.9042910
  67.3036806  69.3387692  69.8441959  66.7355834  70.2237708  71.7145423
  66.2337130  69.7658915  72.5669342  67.5275002  70.8826126  72.0707657
  65.7258726  71.0337931  70.9047708  66.2957987  71.8085923  70.3919635
  65.3024333  70.3487235  70.1702771  64.5623191  71.6996617  71.7336564
  64.2116580  72.5589876  71.1620842  63.7615072  70.9642854  71.8112549
  64.9231777  72.1502212  73.0906951  65.5942114  72.9015266  73.1638610
  64.4056809  71.6389569  74.2228413  63.4805336  70.6625303  74.1857764
  63.1652964  70.3032571  73.2960302  63.1055688  70.2933477  75.0478699
  64.8210228  72.0859993  75.4056727  65.5247842  72.8090821  75.4500711
  64.4305395  71.7001027  76.2534375  68.8829577  69.0654961  71.1482549
  69.6408211  69.6327617  70.4031705  69.2830103  68.3695265  72.2047709
  68.5875111  67.8264698  72.6961666  70.6404946  68.4167915  72.7515500
  71.2435840  69.1119558  72.1674875  70.6323471  68.8890956  74.2320214
  69.9674466  68.2706403  74.8349472  71.6549683  68.7817265  74.5937087
  70.2093466  70.3578646  74.3847470  70.8186446  71.2958803  73.8169384
  69.1397726  70.5525287  75.0965338  68.7981711  71.4916977  75.2427180
  68.6550634  69.7637488  75.5002465  71.4556485  67.1462767  72.6734971
  72.6248764  67.2030000  72.9791205  70.9025961  66.0034920  72.2977268
  69.9123039  65.8608740  72.1595938  71.7892948  64.8641547  72.1484292
  72.3291591  64.7271083  73.0853731  71.0630372  63.5642489  71.8090167
  70.2512996  63.8626038  71.1455670  71.7551551  62.9189167  71.2680738
  70.4944217  62.8122213  72.9961987  69.9782677  63.5246305  73.6397505
  69.5201040  61.7249426  72.5584556  70.0356859  61.0118519  71.9152016
  69.1334591  61.2078102  73.4366244  68.6933980  62.1764991  72.0100448
  71.6095533  62.2111299  73.7899598  72.2705959  63.0016569  74.1451911
  71.1989419  61.6709064  74.6429885  72.1733435  61.5219361  73.1612695
  72.8239166  65.2160388  71.0638309  72.5092152  65.9490751  70.1294959
  74.0655089  64.6646218  71.1691726  74.6227017  63.6837818  72.1194210
  74.0452120  62.7604125  72.0747532  74.5821841  64.0884892  73.1306921
  76.0620519  63.5035036  71.6186071  76.1222124  62.6233791  70.9784035
  76.7351151  63.3815338  72.4672593  76.3812373  64.7587348  70.8570643
  77.1377501  64.4826151  70.1225269  76.7046251  65.6510279  71.3930988
  75.0388014  65.0276563  70.1504865  74.8726216  66.0544104  69.8245135
  74.8709782  64.0912309  68.9721139  74.3502837  62.9662846  69.1351913
  75.3113526  64.5565880  67.7955757  75.5749369  65.5294389  67.7308938
  75.5360465  63.7002889  66.6353988  74.5957008  63.2599913  66.3037556
  76.1087541  64.5176045  65.5078718  76.4236009  63.8668511  64.6920957
  75.3665694  65.2264603  65.1407405  77.2319304  65.2258182  66.0079112
  77.6150327  65.7556241  65.3049615  76.6280911  62.6827379  67.0138607
  77.2851594  62.8307539  68.0580396  76.8274405  61.6633671  66.1772503
  76.2238822  61.4891455  65.3863878  77.9392701  60.7505762  66.4123285
  77.8564486  60.2113475  67.3559768  78.0363748  59.7495787  65.2935932
  78.0870717  60.2680950  64.3361644  79.2594894  58.9441876  65.4821317
  79.2093130  58.4249734  66.4392106  79.3419908  58.2139638  64.6771055
  80.1313615  59.5982366  65.4694590  76.7482941  58.8833332  65.2458784
  75.8837297  59.5257995  65.0789426  76.8256365  58.1607670  64.4334648
  76.6301656  58.3545800  66.1916937  79.2519422  61.5263349  66.5126304
  79.9976662  61.3932933  67.4321746  79.4796123  62.4005637  65.5590402
  78.7963487  62.5093805  64.8232352  80.6945138  63.1542849  65.4743766
  81.5690380  62.5080260  65.3991694  80.5925928  63.9823057  64.2058015
  80.9123725  63.3689521  63.3634016  79.5527144  64.2774384  64.0656246
  81.3867215  65.1132215  64.2803122  81.3033591  65.6168823  63.4673078
  80.8530393  63.9843699  66.7759208  81.9706418  64.0653689  67.3520891
  79.7290639  64.5453226  67.2548576  78.8787948  64.4075016  66.7274609
  79.6620154  65.3438454  68.4942231  80.3718912  66.1658080  68.4017409
  78.6520193  65.7446452  68.5800530  79.9872528  64.5473829  69.7500376
  80.6715223  65.0339093  70.6270047  79.5110693  63.3228666  69.8150610
  78.8125970  63.0419712  69.1417605  79.9020176  62.3739473  70.8337404
  79.5553500  62.6999248  71.8143828  79.2696220  61.0195690  70.5177512
  78.2264860  61.3139927  70.4025072  79.6585309  60.6786981  69.5582425
  79.3682436  59.8958374  71.5306209  80.4214883  59.7097952  71.7407751
  78.6299842  60.2596895  72.8565095  77.5765161  60.4454306  72.6472156
  78.7196039  59.4331927  73.5614720  79.0774541  61.1549441  73.2882388
  78.8638142  58.5701120  70.9480427  79.4632478  58.3037221  70.0775169
  78.9486966  57.7862314  71.7006564  77.8204266  58.6766814  70.6512530
  81.4511853  62.2551958  70.9219075  82.0879958  62.5913144  71.9659528
  82.0485934  61.8325427  69.8111289  81.4809604  61.4771074  69.0551145
  83.5021986  61.7346488  69.6915900  83.8726603  60.9611469  70.3643100
  83.9134760  61.3729328  68.2514378  83.4343005  62.1598013  67.6689192
  84.9930209  61.4224592  68.1092055  83.3958445  59.9980193  67.7814306
  82.3476284  59.9412170  68.0748882  83.5188072  59.7412571  66.2791143
  84.5668629  59.7974412  65.9849691  83.1292505  58.7502299  66.0462809
  82.9480883  60.4928054  65.7336279  84.0576530  58.8740965  68.5779198
  83.8283507  58.9946419  69.6366874  83.6799164  57.9118826  68.2321444
  85.1373836  58.9130121  68.4338146  84.2169323  62.9982479  70.1961782
  85.1688366  62.8883823  70.9788043  83.7668422  64.1817936  69.7987158
  83.0181151  64.2664642  69.1261550  84.4129585  65.3935048  70.2642872
  85.4622487  65.3848192  69.9693059  83.7540650  66.6188729  69.6705622
  82.6846826  66.4169662  69.6092899  83.9280677  67.4477119  70.3567466
  84.2829379  66.9857033  68.2849296  85.3644016  67.1033160  68.3535170
  84.0494545  66.1673511  67.6038370  83.6724589  68.2586296  67.7664857
  82.6375985  68.3308233  68.1010765  84.2354051  69.1134690  68.1412397
  83.7138680  68.2517754  66.2526818  84.7032254  68.5964488  65.9518950
  83.5743455  67.2208910  65.9272436  82.6695747  69.1201181  65.6209322
  82.7989461  70.0754750  65.9220234  82.7529444  69.0697133  64.6156418
  81.7527257  68.8006409  65.8991789  84.4255233  65.4676848  71.7988530
  85.4447122  65.8322480  72.4036585  83.3068630  65.0476073  72.3973246
  82.6214063  64.5773450  71.8236508  83.0105569  65.2378469  73.8132189
  83.3756631  66.1546250  74.2761601  81.4818659  65.1050437  74.0625883
  81.0763411  64.4332758  73.3060317  81.1479317  64.5445063  75.4944542
  81.5527646  65.2160309  76.2515973  80.0669017  64.4725100  75.6140014
  81.5924788  63.5561331  75.6110532  80.7548874  66.4139475  73.6974400
  80.9284463  67.1350919  74.4961444  81.1800004  66.7926917  72.7679610
  79.2072387  66.1958204  73.5153823  78.7813133  65.8174962  74.4446606
  78.7339266  67.1435525  73.2587139  79.0328674  65.4750938  72.7164782
  83.7641014  64.1894222  74.6023235  84.4473826  64.5127988  75.5848944
  83.6041430  62.9418869  74.1659441  82.9118913  62.7911194  73.4461135
  84.3549983  61.8004241  74.6463115  84.1309326  61.5662384  75.6870088
  84.0344995  60.6138839  73.7871125  83.5811480  60.9585402  72.8577123
  85.3022743  59.8323024  73.4734593  85.7559750  59.4868983  74.4024116
  85.0552657  58.9736495  72.8491176  86.0048054  60.4758248  72.9439046
  83.0130377  59.7457345  74.4714447  83.4043532  59.4646647  75.4491832
  82.1009106  60.3285770  74.5995785  82.7046337  58.4935754  73.6713462
  83.6162543  57.9099455  73.5431905  81.9630146  57.8963065  74.2017896
  82.3128136  58.7738582  72.6935843  85.8983118  61.9873183  74.6099780
  86.5936471  61.5133204  75.4994592  86.4195518  62.6653334  73.5934440
  85.8164405  62.9931275  72.8525614  87.8220194  62.9533000  73.5062102
  88.4077804  62.0484499  73.6681657  88.0650316  63.3729443  72.5300222
  88.1670809  63.9535185  74.5662821  89.2114435  63.8709803  75.1641878
  87.3025930  64.9307857  74.7622375  86.5499099  65.0589913  74.1010787
  87.4593883  65.9198390  75.8421128  88.4433483  66.3867677  75.7985300
  86.3930500  67.0069999  75.6661840  86.4273989  67.4560610  74.6735796
  85.4227700  66.5337873  75.8169372  86.4780404  68.1386245  76.6536719
  87.1900701  69.3009778  76.3433275  87.7065414  69.3606225  75.3853088
  87.2478196  70.3887330  77.2475302  87.7957788  71.2981559  77.0009712
  86.5892487  70.2825832  78.4692940  86.6383617  71.1023766  79.1859715
  85.8663349  69.1279078  78.7774972  85.3531164  69.0504882  79.7359924
  85.7998015  68.0769617  77.8645231  85.2094448  67.1904197  78.0960874
  87.4284463  65.2524281  77.2653905  88.2473992  65.5787639  78.1223491
  86.5629443  64.2650894  77.4912769  85.8870021  63.9664824  76.8027747
  86.5529264  63.6164129  78.7955075  87.0218638  64.2573012  79.5421392
  85.1306155  63.3563713  79.2103087  85.0376478  63.4448346  80.2927275
  84.4665517  64.0744806  78.7292283  84.7748089  62.0435821  78.8115916
  83.8679086  61.8651224  79.0709828  87.3145608  62.2774804  78.9393953
  87.3568126  61.6647083  80.0328801  87.8315757  61.7455347  77.8463100
  87.5566218  61.9591475  76.8982228  88.8242267  60.7539553  78.0511419
  88.4247275  60.1449483  78.8620735  89.0865043  59.8686288  76.8723134
  88.9638357  60.4447820  75.9551983  90.5081496  59.3193521  76.9410858
  90.6314476  58.7426536  77.8577734  90.6917718  58.6762457  76.0803906
  91.2183901  60.1461610  76.9343009  88.2092089  58.7383828  76.9759034
  88.3550780  58.1507549  76.2309095  90.0056792  61.5792696  78.4268537
  90.6965343  61.2625289  79.3705854  90.1940710  62.6891832  77.7399692
  89.5955305  62.9924925  76.9850837  91.3430496  63.4435238  78.0220531
  92.2256855  62.8173206  77.8919664  91.4607089  64.6450943  77.1014639
  92.1158421  64.4145782  76.2613674  90.4779690  64.9318278  76.7271562
  92.0073052  65.7070572  77.8441962  92.0917100  66.4806130  77.2819800
  91.2566485  63.8145032  79.4860720  92.1763747  63.5524822  80.2537559
  90.1382442  64.3795517  79.9242878  89.4187457  64.6862815  79.2852746
  90.1911937  64.9856468  81.2456111  91.2361863  65.2513861  81.4052111
  89.3266480  66.2843046  81.3337841  88.2789336  66.0218636  81.1870919
  89.4938830  66.9388716  82.6664339  90.5413408  67.2020392  82.8136613
  88.8838196  67.8412123  82.7077180  89.1786658  66.2515664  83.4515144
  89.8395295  67.3094940  80.3002163  89.7613322  66.8866376  79.2986278
  89.2386281  68.2170077  80.3588351  90.8813423  67.5498515  80.5122427
  90.1994710  63.9376751  82.4144690  91.0245662  64.0571707  83.2966740
  89.3551634  62.8961947  82.3664988  88.5723268  62.9639816  81.7319351
  89.5151768  61.6369322  83.1669692  89.1601135  61.7515874  84.1911193
  88.7525465  60.4190957  82.5001692  89.0425290  60.4008705  81.4496083
  89.0524590  59.0411636  83.1424001  88.7622892  59.0584723  84.1929245
  88.4879464  58.2669418  82.6227800  90.1184106  58.8274200  83.0639048
  87.3398790  60.6335923  82.5070053  86.9004400  59.8840458  82.0987483
  90.9677481  61.1548069  83.3095202  91.3357621  60.5347957  84.3211604
  91.7707312  61.3732141  82.2633992  91.3720443  61.7448392  81.4130799
  93.1935630  61.0682104  82.2824695  93.3706614  60.0759760  82.6974468
  93.8030938  61.1280930  80.8844151  93.6417958  62.1187245  80.4592890
  94.8730652  60.9291654  80.9451534  93.3303255  60.3792150  80.2489851
  93.8682780  62.0685448  83.1981686  94.6202875  61.6594746  84.0949597
  93.5867396  63.3607735  83.0108237  93.0473800  63.6553520  82.2093163
  94.2142140  64.3932453  83.8452239  95.2857537  64.2119878  83.9291739
  93.9984164  65.7719643  83.2032346  94.4753736  65.5508568  82.2483929
  92.9206122  65.8504742  83.0608467  94.5413169  67.1032436  83.7512132
  94.8582965  67.7236511  82.9129297  93.4756565  67.8384909  84.5516989
  93.1584898  67.2188557  85.3904815  93.8852199  68.7760388  84.9276809
  92.6190712  68.0478250  83.9109639  95.8258043  66.9307196  84.5590655
  96.5973976  66.4920304  83.9263768  96.1619151  67.9027339  84.9200629
  95.6361829  66.2740832  85.4081658  93.7812383  64.2961984  85.3605008
  94.5400050  64.6734302  86.2692303  92.5806998  63.7470011  85.6062784
  91.9763687  63.5559698  84.8199004  92.0905735  63.4035247  86.9772383
  92.3107481  64.2507056  87.6267820  91.0112185  63.2648093  86.9151894
  92.7217459  62.1417120  87.5727877  92.4533613  61.7446493  88.7135431
  93.5510035  61.5016042  86.7646066  93.6479031  61.8335688  85.8156549
  94.3110624  60.3569229  87.1637648  93.9309776  59.9562013  88.1034759
  94.1951983  59.2898624  86.1023698  93.2606824  59.4281788  85.5586347
  95.0311579  59.3346888  85.4043282  94.1696285  57.9060955  86.6473729
  95.0908655  57.5074071  87.6239342  95.8251546  58.2261243  87.9877541
  95.0764882  56.2215545  88.1254801  95.7862537  55.9255080  88.8979373
  94.1290812  55.2797038  87.6296724  94.1255468  54.2621759  88.0204720
  93.2046820  55.6556163  86.6444938  92.4742313  54.9476661  86.2528964
  93.2328202  56.9742349  86.1624678  92.5212930  57.2910629  85.3999397
  95.7632865  60.7899197  87.3357154  96.4727219  60.2409073  88.1796993
  96.1927597  61.7671039  86.5325138  95.6250387  62.0283569  85.7390789
  97.4710848  62.4520063  86.7263433  98.3147089  61.7789926  86.8794774
  97.8133170  63.4219600  85.5504666  96.8772853  63.8486815  85.1901159
  98.7863087  64.5773923  85.9712590  99.7228022  64.1514312  86.3313119
  98.9854754  65.2166902  85.1111827  98.3279646  65.1683722  86.7642061
  98.3347478  62.6225627  84.3539254  97.5712766  61.9163552  84.0276052
  98.5718974  63.3037796  83.5367331  99.2329369  62.0774451  84.6441047
  97.3818845  63.2121242  88.0382096  98.2418301  63.0754933  88.9125593
  96.3236441  63.9869116  88.2043834  95.6877868  64.1918541  87.4468985
  96.2054006  64.7569556  89.4300003  97.1632345  65.2258521  89.6553653
  95.1395837  65.8549138  89.3022809  94.5209871  65.5027247  88.4768111
  94.5295246  65.9420530  90.2013552  95.7333761  67.2361892  88.9474614
  95.7932353  67.7972052  89.8800807  97.1459367  67.2018489  88.2668741
  97.0867687  66.6413569  87.3338967  97.4741354  68.2201063  88.0582157
  97.8600330  66.7201817  88.9348289  94.7350003  68.0004567  88.0986128
  93.8080645  68.1318304  88.6568515  95.1465069  68.9770617  87.8436497
  94.5320699  67.4423893  87.1845674  96.0768232  63.9001795  90.6943782
  96.6676086  64.2456448  91.6971884  95.3583798  62.7764838  90.6117690
  94.8185587  62.6387997  89.7693110  95.1960072  61.7939852  91.7255557
  94.9791143  62.3247794  92.6525477  94.0345607  60.8149963  91.4331438
  93.1904272  61.4167086  91.0962756  94.3709935  60.1736693  90.6185195
  93.6047317  59.9535946  92.6122274  93.6555926  58.5515833  92.5421666
  94.0052891  58.0756724  91.6260222  93.2602610  57.7609467  93.6408498
  93.3043081  56.6732588  93.5852004  92.8079372  58.3890898  94.8200925
  92.4080993  57.6509913  95.9175742  92.4758046  56.7036973  95.7773967
  92.7517625  59.7760291  94.9018835  92.3994472  60.2627969  95.8112962
  93.1511014  60.5462605  93.8072707  93.1162725  61.6341913  93.8646613
  96.4583059  60.9913779  92.1452216  96.6235954  60.6825642  93.3277124
  97.3177398  60.6365510  91.1931475  97.0692746  60.7527454  90.2211067
  98.5969412  60.0001658  91.5111203  98.4462989  59.2383474  92.2759985
  99.1993179  59.3353700  90.2704065  98.3898017  58.8126008  89.7609999
  99.5761741  60.1326077  89.6297103 100.3175262  58.3604707  90.5730706
 100.7650710  58.6259598  91.5308388  99.9001319  57.3553863  90.6338105
 101.3801316  58.4021838  89.4893937 100.9641899  57.9837685  88.5728676
 101.6662635  59.4397886  89.3173348 102.5982523  57.6050511  89.8996615
 102.7966886  57.7937264  90.9547090 102.3845363  56.5461265  89.7543916
 103.7866958  57.9834575  89.0982742 103.9851581  58.9645487  89.2330801
 104.5813628  57.4353074  89.3951507 103.6031840  57.8083038  88.1206527
  99.5731109  61.0266945  92.1227915 100.1999131  60.7489967  93.1538264
  99.6825856  62.1982426  91.4756847  99.4032792  62.1913205  90.5050976
 100.3821229  63.3938375  91.9958131 101.3795777  63.1183171  92.3382625
 100.5167880  64.4556334  90.8994971  99.5808277  64.3867605  90.3451201
 100.5634229  65.4149265  91.4149405 101.6819739  64.3420984  89.9384265
 102.1721708  65.5029428  89.2913004 101.6991950  66.4587545  89.5167275
 103.2353938  65.4452256  88.3826984 103.6061816  66.3452671  87.8922460
 103.8251674  64.2022270  88.1067880 104.8744811  64.1516311  87.2080256
 105.1022236  65.0121269  86.8484704 103.3562621  63.0175180  88.7366472
 103.8170204  62.0531351  88.5227128 102.2843241  63.0993365  89.6456706
 101.9115247  62.1975162  90.1313050  99.7746044  63.8443653  93.3321970
 100.4186103  64.5832479  94.0857696  98.5317921  63.4160012  93.5811766
  98.0751931  63.0184993  92.7727157  97.7026143  63.7110588  94.7900175
  96.7029976  63.3349442  94.5722943  98.1747011  63.1130995  96.1517271
  97.8994991  63.8425414  96.9134866  97.5965834  62.2006128  96.2974939
  99.7075422  62.7861542  96.2694203 100.0869233  62.6259727  95.2602064
 100.1958072  63.6571230  96.7065846 100.0044412  61.5427900  97.1334877
  99.3551284  60.7372017  96.7906766 101.0454344  61.2646813  96.9689029
  99.7710680  61.7853919  98.6288025 100.7037433  62.1194187  99.0833832
  99.0120173  62.5585057  98.7481181  99.3149065  60.5363243  99.2946973
 100.0183089  59.8199385  99.1846235  99.1661730  60.7139136 100.2777743
  98.4504568  60.2268727  98.8739058  97.2983976  65.2218819  94.9051184
  97.1634101  65.7471065  96.0109686  97.0555128  65.8749632  93.7640988
  97.2017590  65.3838748  92.8937291  96.6739774  67.2961526  93.7082368
  96.6707555  67.7164189  94.7139530  97.6749296  68.0943313  92.8426991
  98.5828573  67.5159662  93.0137563  97.3827423  68.0098456  91.7959953
  97.9362784  69.5712587  93.1841244  96.9906441  70.0558694  93.4270837
  98.8905406  69.6741720  94.3898908  99.8366238  69.1901527  94.1475053
  99.0693805  70.7236430  94.6238303  98.4415020  69.1816106  95.2523570
  98.4435253  70.3836457  91.9742348  97.7000351  70.3527975  91.1777613
  98.6105920  71.4179969  92.2747471  99.3787663  69.9548109  91.6143405
  95.2212527  67.4767736  93.1938187  94.9597056  68.2728326  92.2815917
  94.2840619  66.7570841  93.8149287  94.5459901  66.2602237  94.6543467
  92.9150476  66.6036257  93.3153938  92.7915493  67.1195968  92.3632272
  92.6344763  65.1012000  93.1021454  93.6448443  64.8376435  92.7894257
  92.4462589  64.6990159  94.0975961  91.6160487  64.5060082  92.1059592
  91.9703893  63.5207664  91.8029044  90.2231603  64.3788085  92.7219105
  89.8679350  65.3637783  93.0248103  89.5377359  63.9559885  91.9873920
  90.2689768  63.7258097  93.5934574  91.5580947  65.2479559  90.7606031
  92.5370159  65.2116324  90.2825934  90.8207629  64.7720554  90.1141035
  91.2753607  66.2869357  90.9299591  91.8871732  67.2236732  94.2743163
  91.2422031  68.2365491  93.9621979  91.6909378  66.7300208  95.3825756
  47.8129659  69.7573569  38.1371302  48.7498316  68.9926992  37.2236314
  46.9271335  69.1624317  39.1631219  46.9334382  70.6020523  37.1467456
  47.3802433  70.8281678  35.8184903  46.1857540  70.7244433  34.8665336
  46.6247589  71.1872409  33.5873671  45.7402928  69.2594230  34.6709808
  44.3204233  69.1187357  34.7741836  46.2158532  68.9309019  33.2668810
  45.3744365  68.0756256  32.5744928  46.1851355  70.2712206  32.5761900
  47.1333243  70.4459433  31.4572816  48.4008636  69.9669420  31.2252323
  48.8654178  70.4866909  30.0292810  47.9033246  71.3268069  29.5794858
  47.8440223  72.1690934  28.4760808  48.9250816  72.3375063  27.6823963
  46.7050248  72.9056466  28.2903094  45.6288675  72.8586403  29.1259272
  45.6652934  72.0460677  30.2494756  46.8063343  71.2775485  30.4405380
  49.1128000  66.5730500  47.1282847  48.5707253  66.6943301  48.3664899
  48.3747305  67.8169103  48.7089409  48.2539635  65.5930938  49.1485683
  48.5474221  64.3015523  48.6603679  48.3190139  63.2347532  49.3143614
  49.1475929  64.2064821  47.4165147  49.4900453  62.9776671  46.9097947
  49.8989160  62.8601151  45.5867968  49.8067414  61.5783177  45.0234629
  49.7347562  61.4215652  43.6508476  49.8976915  60.0012510  43.1224569
  49.7567886  62.5507809  42.7906427  49.7641516  62.3398144  41.3115957
  49.8330379  63.8661742  43.3172112  49.9195280  63.9955607  44.7538164
  49.9211351  65.2300582  45.3804768  49.3869066  65.3377794  46.6380623
  50.1578376  66.4440115  44.5548738  48.8779959  67.1401388  44.1741597
  48.1326009  66.1230287  43.5748716  49.3403436  68.2582938  43.2212935
  50.3159684  69.0599369  43.9190359  48.2832976  69.2390030  42.7976235
  47.1231510  68.5800467  42.3679113  48.8727397  70.0324063  41.6253846
  47.8752234  70.9209532  41.2397583  48.1244045  71.8690907  40.0065706
  46.7882613  72.5960028  39.8972758  49.2698059  72.8391903  40.4257284
  48.6107106  70.9582266  38.8275333  48.1121880  70.0935399  35.5560181
  47.8177574  71.8021053  35.7445834  45.3739627  71.2908951  35.2723073
  46.1420890  68.6069717  35.4174580  43.8904130  69.6892075  34.1176861
  47.1652833  68.4387865  33.2999554  44.4906893  68.4716529  32.5112219
  45.2054817  70.4042520  32.1657389  48.9216772  69.3246810  31.8427288
  49.7344788  71.7979424  27.8321560  48.9033568  72.9999832  26.9542265
  44.7907689  73.4247141  28.9238278  47.8308576  65.7107291  50.0300241
  49.7925102  60.7485182  45.6361237  49.8504840  59.3098387  43.9375468
  50.8438351  59.9094514  42.6316788  49.1134597  59.7872101  42.4272181
  49.7009196  61.2923536  41.1004899  50.6703452  62.7325761  40.8998453
  48.9265938  62.8437077  40.8753739  49.8272801  64.6935265  42.7016431
  50.6708967  66.1568496  43.6609626  50.7385401  67.1264890  45.1393515
  48.2828719  67.5891576  44.9419374  48.6590954  65.7050183  42.8748396
  49.6887268  67.7453985  42.3494353  49.8997364  69.4785107  44.6887519
  48.0129284  69.8687371  43.6194868  47.3389689  67.9992321  41.6209346
  49.1219119  69.3768427  40.8172517  49.7719901  70.5416910  41.9021406
  54.9538638  63.9391834  50.3976093  53.7149922  63.0966026  50.5409533
  53.7184961  62.0248628  51.4540960  52.5890500  61.2125483  51.6382443
  52.6440748  60.0816207  52.5881891  53.5017960  60.3135809  53.6573840
  53.6453890  59.3431307  54.6148606  54.5264915  59.6111766  55.6628394
  54.7179932  58.6654710  56.6728751  54.0274846  57.4521375  56.6349726
  53.1475892  57.1864773  55.5894126  52.5038192  55.9799816  55.6144605
  52.9578587  58.1337075  54.5786430  52.0426879  57.8941384  53.4612853
  51.3941014  56.8543752  53.3619022  51.9182406  58.9580590  52.4376141
  51.0404808  58.7279989  51.3934958  51.4465986  61.4784442  50.8766024
  51.4266475  62.5402878  49.9686128  52.5512035  63.3630782  49.7889748
  52.4900271  64.5039877  48.7958731  52.1808224  64.0917270  47.5340345
  53.6647761  65.1879827  48.6793025  51.5550912  65.4396119  49.1263532
  55.7537970  63.3402579  49.9380040  54.7350447  64.8085068  49.7597409
  55.2790816  64.2856469  51.3897512  54.6283119  61.8191278  52.0368457
  55.0705837  60.5670446  55.6941305  55.4129532  58.8763117  57.4989203
  54.1783274  56.7069592  57.4307150  51.6094115  55.9323111  55.8899679
  50.9729181  59.3478629  50.6950920  50.5542232  60.8452585  50.9939647
  50.5153625  62.7358105  49.3842665  66.5162594  53.8256499 130.4331887
  65.8424293  54.1288196 131.0416845  66.9028416  54.6285579 130.0837344
  70.4219480  51.1106755 128.7059334  70.3433111  50.7766618 129.5995092
  71.2429147  51.6028522 128.7050806  67.9923432  48.4274750 128.3269312
  68.6959282  48.6324752 128.9426968  67.2686080  48.9951512 128.5918396
  71.2362365  55.1642054 128.0900632  70.3591831  55.0430855 127.7262878
  71.7120118  54.3728132 127.8379520  72.7516458  52.9593376 128.0329721
  73.6135622  53.2848274 128.2925538  72.9366802  52.1724872 127.5202787
  66.5162595  30.8318622 117.1577194  65.8424294  31.1350318 117.7662152
  66.9028417  31.6347702 116.8082651  70.4219481  28.1168877 115.4304641
  70.3433113  27.7828741 116.3240398  71.2429148  28.6090645 115.4296113
  67.9923433  25.4336873 115.0514619  68.6959283  25.6386875 115.6672274
  67.2686082  26.0013634 115.3163702  71.1970927  38.1951957 123.1226671
  70.6335792  38.1041894 122.3542959  71.0823322  37.3751862 123.6029164
  76.7770486  41.8622925 118.4341136  76.1258466  42.4477006 118.0475150
  77.5714849  42.3929120 118.4936174  70.7026113  38.9512062 118.8328271
  71.4756989  38.4041049 118.6941146  71.0551512  39.8156312 119.0442732
  73.0392391  35.1104728 116.4646720  73.2917912  34.5886250 115.7030183
  72.1016950  34.9470874 116.5673404  78.0835674  34.1140507 124.2721464
  78.8698763  33.6959930 123.9211881  78.3474378  35.0186599 124.4403112
  78.2545751  39.5513357 118.9710121  77.6191584  39.6247984 119.6831025
  77.9243158  40.1406956 118.2929200  72.7588680  37.0132834 118.6671095
  72.6424938  36.3377738 119.3352180  72.8690940  36.5265208 117.8503249
  75.1020221  36.4742981 122.3717785  74.7378428  35.9473602 123.0830706
  75.9587337  36.0841450 122.1984270  74.7425708  31.5032881 117.3679133
  74.9100110  32.3713118 117.7349604  74.5522877  31.6660163 116.4440422
  74.7214928  33.9590539 118.3525800  74.6014554  34.4047589 119.1911280
  74.0267517  34.3075856 117.7939338  72.4821821  46.7294180 122.0015931
  72.4045850  47.6802005 122.0804412  71.8783464  46.3840053 122.6590858
  80.4199995  34.4312012 119.1806134  81.3317851  34.6639399 119.0053832
  79.9109642  35.0149056 118.6181213  79.0269577  39.4137830 126.5719716
  78.3978439  39.5783544 125.8695783  78.6395239  39.8279440 127.3430680
  82.9058809  40.3492268 123.9264079  82.2209847  40.7291169 123.3761113
  82.9902658  40.9587595 124.6596027  74.5797539  39.1512238 123.8369801
  75.0435884  39.4299941 123.0474423  74.3154337  38.2495683 123.6542891
  73.5166425  35.2735391 120.6459366  74.2190468  35.7256434 121.1133292
  73.1847053  34.6319210 121.2739259  74.7560190  42.0876333 120.7221471
  74.6205864  42.9327869 121.1506319  75.2970002  42.2895611 119.9587405
  68.2089587  39.6051771 121.2949396  68.7214107  40.3995022 121.4454961
  68.8612300  38.9078062 121.2282998  70.0184472  42.7217528 123.3772149
  70.1951100  43.6435492 123.1893133  70.8141305  42.4075947 123.8066529
  78.0702936  35.6015506 117.7592800  77.5549559  36.3720111 117.9981187
  77.7980244  34.9280642 118.3825861  83.0437210  38.3547861 119.6945973
  82.2666653  38.0159020 119.2501135  83.7228691  38.3600484 119.0200938
  77.8589239  33.4742598 119.5852581  77.5539375  33.7888748 120.4362724
  78.8119681  33.5524018 119.6279914  76.3035671  39.6332822 121.2345535
  75.7757032  38.8985581 120.9218772  75.8023174  40.4107498 120.9885503
  80.0933976  36.1826215 124.4016523  80.6065857  36.8156207 124.9038233
  80.7435200  35.5827410 124.0359883  71.3623986  32.3256949 117.6148032
  70.5261298  32.6631636 117.9357306  71.2228755  32.1905929 116.6775168
  74.4488271  37.4513032 114.2380508  73.5415333  37.2202285 114.4371657
  74.9459303  36.6550651 114.4254489  77.3556350  46.1610539 117.1577194
  76.6818049  46.4642236 117.7662152  77.7422172  46.9639620 116.8082651
  77.3549854  35.0567086 121.7777544  78.1021673  35.5688483 121.4684666
  77.6241444  34.7351139 122.6381937  75.6276504  37.5525627 118.7604498
  74.7187724  37.2684660 118.8576968  75.6571588  37.9724705 117.9007805
  80.8595772  41.1632216 122.5295665  80.4058099  40.3223126 122.5860856
  80.2289739  41.7993615 122.8670446  79.3028711  43.0008713 123.4645484
  79.5951685  43.5613770 122.7457849  79.8127332  43.2937274 124.2198643
  75.3252592  39.0934371 116.0992576  74.8872022  38.3770229 115.6398214
  76.0663033  39.3210485 115.5377668  74.2662336  43.7789064 124.5538937
  74.2238515  44.0049910 123.6247469  75.1825035  43.5452439 124.7024738
  83.4425707  37.3691568 122.1568895  83.3043606  37.5593164 121.2290084
  83.0861926  38.1310950 122.6136946  72.3828137  40.6552093 124.3500899
  73.1768736  40.1602413 124.1483474  71.6719829  40.1269956 123.9868605
  77.2022982  43.0370189 128.7013267  77.2560004  43.6061125 129.4690983
  76.3337763  43.2072074 128.3367304  68.6910901  34.7995175 120.4260652
  67.7608489  34.7379630 120.6430614  68.7868373  34.2771128 119.6297293
  75.5547565  46.3290212 119.3724273  75.7299321  45.8578255 120.1869896
  74.8680353  46.9555978 119.6005534  76.5104628  40.6062718 125.4187574
  76.1754461  40.5663488 126.3145224  76.0108574  39.9407434 124.9457985
  79.4463820  37.9518752 115.6924634  78.8292990  37.2265580 115.5957687
  78.9780308  38.7128112 115.3491708  70.1208650  49.4779574 126.1464133
  70.3605249  50.1098099 126.8243152  69.2777847  49.1267614 126.4329493
  71.2362366  32.1704176 114.8145938  70.3591832  32.0492977 114.4508185
  71.7120119  31.3790255 114.5624827  74.6336512  45.2858697 128.5505637
  74.5606684  46.0913668 129.0624942  74.1913905  45.4850663 127.7253659
  74.4226292  44.5230467 122.0608459  73.6393814  45.0652147 122.1546683
  75.1219037  45.0404446 122.4602700  78.8152723  39.0896784 122.2781088
  77.8809001  39.2098246 122.1085792  78.9929391  38.1869250 122.0141097
  80.2701505  41.2757924 119.8117274  80.5461349  41.1614519 120.7211148
  79.4006004  40.8775409 119.7729447  76.9055569  45.5244275 123.4550087
  77.0877964  44.7065931 123.9177840  77.7288555  45.7411967 123.0174977
  77.2397735  44.4512460 120.7165136  77.7685501  43.9404915 120.1035298
  77.5025954  44.1354990 121.5810669  70.5953483  45.5027577 123.4762912
  69.9263858  45.9873704 122.9926952  70.4566352  45.7496797 124.3906290
  74.7358751  47.5371320 130.0745570  75.2877059  47.7002942 130.8394655
  75.0764945  48.1275758 129.4025595  77.8727138  45.4853296 127.0609252
  77.7478278  44.6843036 126.5520198  78.5306229  45.9799489 126.5723222
  79.9362047  43.2862316 128.6888802  78.9892382  43.1667667 128.6167129
  80.2844820  42.3984814 128.7715064  76.9408480  43.0815032 124.8893155
  76.7933442  42.1531740 125.0700725  77.7661974  43.1035123 124.4050230
  80.5442602  43.9043591 125.9758027  81.4689149  43.6986452 125.8382479
  80.3757905  43.6559992 126.8847369  72.7938871  30.2307721 118.9466940
  73.5147234  30.6088974 118.4430656  72.1704176  30.9496598 119.0501918
  76.9369994  30.9352870 119.8825272  77.1533609  31.8177508 119.5814100
  76.4564062  30.5439083 119.1530914  80.3337918  44.4229258 121.3320119
  80.5074796  43.8575681 120.5793971  80.8266809  45.2230153 121.1499609
  81.3213091  43.7396023 118.4317017  82.0163995  44.3602715 118.6504332
  81.6636241  42.8891374 118.7069395  83.2204514  41.1895728 119.9604348
  83.7455838  41.5283001 119.2353668  83.1326866  40.2542744 119.7767483
  74.9045174  47.2567712 124.3199601  74.4650165  46.7644090 125.0132458
  75.6553291  46.7140679 124.0791676  67.3837513  43.4479252 124.3224229
  68.2095533  43.1483024 123.9422873  67.0331565  42.6786875 124.7714018
  72.3519047  42.8005721 126.3921903  71.7299056  42.1376426 126.0924131
  73.0223914  42.8266852 125.7095551  71.9132554  41.3509644 119.8680363
  72.0620674  42.0345108 119.2147036  72.7198997  41.3314734 120.3829819
  69.6685187  37.3774822 120.8741432  69.4231228  36.4737152 121.0721642
  69.8381101  37.3791972 119.9320910  68.9380834  33.1103179 118.3727594
  68.2450079  33.1847534 117.7167630  68.6932586  32.3463523 118.8949111
  75.4127959  43.8457774 117.3392111  74.8401926  44.4647962 116.8862583
  75.9860753  44.3957136 117.8732033  78.6325219  44.1294925 118.4700693
  79.5655892  44.0640486 118.6733569  78.5448432  44.9651191 118.0115226
  81.2613236  43.4460795 115.4304641  81.1826867  43.1120658 116.3240398
  82.0822902  43.9382563 115.4296113  75.7974758  35.1818587 114.6808163
  76.7433862  35.0524795 114.7496581  75.4189003  34.4433249 115.1577591
  73.9817675  33.1068564 114.6163048  73.0749130  32.8101676 114.6925762
  74.2593656  32.8098382 113.7497335  72.7516459  29.9655499 114.7575028
  73.6135623  30.2910397 115.0170845  72.9366803  29.1786995 114.2448093
  79.6873974  30.9984116 120.9566599  78.7999829  31.2833766 120.7386794
  80.1027963  30.8377879 120.1093876  67.6958224  45.5791867 126.0438044
  67.5612692  44.8192268 125.4776042  67.2790287  46.3032767 125.5766832
  78.8317187  40.7628790 115.0514619  79.5353037  40.9678793 115.6672274
  78.1079836  41.3305552 115.3163702  79.6614998  36.5138652 121.1716889
  79.6050199  36.9707203 120.3324521  80.2143340  35.7529336 120.9939732
  70.8527350  46.4761184 126.2556486  70.7359734  47.4206616 126.1535177
  70.0319796  46.1734745 126.6442285  80.7403885  41.2011319 117.1013079
  81.5749489  40.7692518 116.9190554  80.5788228  41.0293333 118.0289973
  80.3949777  37.7043433 118.4669418  80.3398581  37.5387704 117.5257862
  79.7695832  38.4119466 118.6231608  73.7045902  27.2051542 118.0454737
  73.6924572  28.1493382 118.2023007  74.5969324  27.0221687 117.7514198
  73.6335466  45.8820432 126.1322493  72.6831097  45.8822294 126.0186866
  73.9367952  45.1353167 125.6158528  82.0364682  53.5243875 123.1226671
  81.4729547  53.4333812 122.3542959  81.9217077  52.7043780 123.6029164
  87.6164240  57.1914843 118.4341136  86.9652220  57.7768923 118.0475150
  88.4108603  57.7221038 118.4936174  81.5419868  54.2803980 118.8328271
  82.3150744  53.7332967 118.6941146  81.8945267  55.1448229 119.0442732
  83.8786145  50.4396646 116.4646720  84.1311666  49.9178167 115.7030183
  82.9410705  50.2762791 116.5673404  88.9229428  49.4432424 124.2721464
  89.7092518  49.0251848 123.9211881  89.1868133  50.3478517 124.4403112
  89.0939506  54.8805275 118.9710121  88.4585339  54.9539901 119.6831025
  88.7636912  55.4698874 118.2929200  83.5982434  52.3424752 118.6671095
  83.4818692  51.6669655 119.3352180  83.7084694  51.8557126 117.8503249
  85.9413975  51.8034899 122.3717785  85.5772182  51.2765520 123.0830706
  86.7981091  51.4133368 122.1984270  85.5819462  46.8324799 117.3679133
  85.7493864  47.7005035 117.7349604  85.3916631  46.9952081 116.4440422
  81.7907277  51.7455575 125.0681668  80.8657773  51.6131789 125.2759360
  82.0391690  52.5249794 125.5651610  85.5608683  49.2882456 118.3525800
  85.4408308  49.7339507 119.1911280  84.8661271  49.6367774 117.7939338
  79.1516088  51.3888848 125.9025457  79.2808469  51.6423327 126.8164869
  78.4713539  51.9816556 125.5830112  91.2593749  49.7603929 119.1806134
  92.1711605  49.9931316 119.0053832  90.7503396  50.3440974 118.6181213
  85.4191293  54.4804156 123.8369801  85.8829639  54.7591859 123.0474423
  85.1548091  53.5787601 123.6542891  84.3560179  50.6027308 120.6459366
  85.0584223  51.0548352 121.1133292  84.0240808  49.9611127 121.2739259
  78.0985513  48.8610861 125.9476499  77.3084567  49.1168390 125.4716610
  78.5896761  49.6759199 126.0528540  80.0500259  49.2255440 122.9059976
  79.2531422  49.3374135 123.4243472  79.8225851  49.5642093 122.0400867
  76.3823216  49.1141352 128.3791490  76.6331255  49.9988361 128.6449066
  76.9182765  48.9345953 127.6066582  85.5953944  57.4168251 120.7221471
  85.4599619  58.2619787 121.1506319  86.1363757  57.6187529 119.9587405
  79.0483341  54.9343689 121.2949396  79.5607862  55.7286939 121.4454961
  79.7006054  54.2369980 121.2282998  77.0132258  53.2632343 122.0708967
  77.8507480  53.6729352 121.8542674  77.1910526  52.3231786 122.0409160
  88.9096690  50.9307424 117.7592800  88.3943314  51.7012029 117.9981187
  88.6373999  50.2572560 118.3825861  86.4943801  45.7757125 122.8178038
  85.6385398  45.3863975 122.6383677  86.9070753  45.8549086 121.9577823
  93.8830964  53.6839779 119.6945973  93.1060407  53.3450938 119.2501135
  94.5622445  53.6892402 119.0200938  88.6982993  48.8034516 119.5852581
  88.3933129  49.1180665 120.4362724  89.6513436  48.8815936 119.6279914
  87.1429425  54.9624739 121.2345535  86.6150787  54.2277499 120.9218772
  86.6416928  55.7399416 120.9885503  81.8748153  45.6244406 123.5952146
  82.4491905  45.4019587 122.8625339  82.4619135  45.6933100 124.3480748
  82.2017740  47.6548867 117.6148032  81.3655052  47.9923553 117.9357306
  82.0622510  47.5197847 116.6775168  84.1770821  42.4985655 122.3227216
  83.5235233  42.1834672 121.6983830  84.1351295  41.8761395 123.0487039
  85.2882025  52.7804950 114.2380508  84.3809087  52.5494203 114.4371657
  85.7853057  51.9842569 114.4254489  88.1950104  61.4902457 117.1577194
  87.5211803  61.7934154 117.7662152  88.5815926  62.2931537 116.8082651
  88.1943609  50.3859004 121.7777544  88.9415428  50.8980401 121.4684666
  88.4635198  50.0643057 122.6381937  86.4670259  52.8817545 118.7604498
  85.5581478  52.5976577 118.8576968  86.4965343  53.3016623 117.9007805
  77.0358429  50.6023059 122.7419700  76.8382829  50.0092419 122.0170767
  76.4805093  50.2975269 123.4595639  85.0155153  50.4946165 124.8614293
  85.0703763  49.5420002 124.7856770  84.2046355  50.6505604 125.3455592
  86.1646347  54.4226288 116.0992576  85.7265777  53.7062147 115.6398214
  86.9056788  54.6502403 115.5377668  82.9547513  49.1123225 122.6204672
  82.1415378  49.4117395 123.0269864  83.4506507  48.7178914 123.3379154
  82.4461588  46.6841580 128.2365907  83.0860967  46.5430340 127.5388870
  81.6139118  46.3976094 127.8604509  79.5304655  50.1287093 120.4260652
  78.6002243  50.0671548 120.6430614  79.6262127  49.6063045 119.6297293
  79.4490204  46.6541905 123.0138894  79.7097021  47.5687239 122.9048054
  80.2707376  46.1866348 123.1635507  90.2857574  53.2810670 115.6924634
  89.6686745  52.5557498 115.5957687  89.8174063  54.0420030 115.3491708
  82.0756120  47.4996094 114.8145938  81.1985587  47.3784895 114.4508185
  82.5513873  46.7082172 114.5624827  73.5958260  52.2873254 124.9087445
  74.2829300  51.9734984 124.3208461  73.4406389  53.1914619 124.6354697
  78.3992983  47.1763450 129.3372469  78.3151171  46.5689120 128.6022879
  77.5775689  47.6672469 129.3381965  85.1551665  47.8034397 124.4314349
  84.7849453  47.2505437 125.1195254  85.6510758  47.1992530 123.8789349
  73.1726237  50.3673847 127.1804913  73.2110336  49.8337438 127.9742031
  72.6666529  49.8409053 126.5615890  76.8034814  49.0937949 120.2558844
  77.0988255  48.1848628 120.2025898  75.9022850  49.0725689 119.9339846
  80.3329061  47.1693946 126.2386393  79.6115647  47.7829914 126.0993866
  81.1222317  47.7051711 126.1603039  78.5322656  46.7752047 120.3798169
  78.2035362  45.8949426 120.1973275  78.8862026  46.7199716 121.2674558
  81.6464479  47.0625017 120.7473647  81.9860551  47.5910938 120.0252255
  82.0936599  47.4005423 121.5232213  83.6332626  45.5599638 118.9466940
  84.3540988  45.9380891 118.4430656  83.0097930  46.2788515 119.0501918
  87.7763749  46.2644787 119.8825272  87.9927363  47.1469425 119.5814100
  87.2957816  45.8731001 119.1530914  82.5162970  49.2230501 126.4596016
  82.3707551  49.5370804 127.3520298  82.0388174  49.8415401 125.9066915
  83.7796249  45.0947429 121.7764476  83.9012160  44.1664075 121.9755364
  83.4898291  45.1086115 120.8642792  78.2231268  58.7771170 124.3224229
  79.0489288  58.4774942 123.9422873  77.8725320  58.0078792 124.7714018
  76.4239873  56.6957496 125.2813163  75.5871781  56.2679671 125.0997164
  76.3963518  56.8889940 126.2183954  82.7526308  56.6801562 119.8680363
  82.9014428  57.3637026 119.2147036  83.5592751  56.6606652 120.3829819
  80.5078941  52.7066739 120.8741432  80.2624983  51.8029069 121.0721642
  80.6774856  52.7083890 119.9320910  79.7774589  48.4395097 118.3727594
  79.0843833  48.5139452 117.7167630  79.5326340  47.6755440 118.8949111
  86.2521714  59.1749692 117.3392111  85.6795681  59.7939879 116.8862583
  86.8254507  59.7249054 117.8732033  89.4718973  59.4586842 118.4700693
  90.4049646  59.3932404 118.6733569  89.3842186  60.2943109 118.0115226
  92.1006990  58.7752713 115.4304641  92.0220622  58.4412576 116.3240398
  92.9216657  59.2674480 115.4296113  86.6368512  50.5110505 114.6808163
  87.5827617  50.3816713 114.7496581  86.2582757  49.7725167 115.1577591
  84.8211429  48.4360481 114.6163048  83.9142885  48.1393594 114.6925762
  85.0987410  48.1390299 113.7497335  75.7389370  49.7566845 125.0662095
  75.4192154  48.9032153 124.7736469  75.1922798  49.9715423 125.8220062
  86.4373495  42.9797371 120.7707290  85.6274223  42.6344456 121.1462536
  87.1257912  42.6704915 121.3594901  83.5910214  45.2947416 114.7575028
  84.4529378  45.6202315 115.0170845  83.7760558  44.5078912 114.2448093
  75.6077630  53.3769756 127.0355216  74.9141101  52.9623709 126.5225171
  76.3550621  53.4190293 126.4388635  77.5214372  53.3088010 124.9121231
  77.4985060  53.4075697 123.9603114  77.8315009  54.1553161 125.2338397
  90.5267728  46.3276033 120.9566599  89.6393583  46.6125684 120.7386794
  90.9421717  46.1669797 120.1093876  89.6710942  56.0920708 115.0514619
  90.3746792  56.2970710 115.6672274  88.9473591  56.6597470 115.3163702
  90.5008752  51.8430569 121.1716889  90.4443953  52.2999121 120.3324521
  91.0537095  51.0821254 120.9939732  91.5797639  56.5303237 117.1013079
  92.4143243  56.0984436 116.9190554  91.4181982  56.3585251 118.0289973
  91.2343531  53.0335350 118.4669418  91.1792335  52.8679622 117.5257862
  90.6089587  53.7411383 118.6231608  84.5439657  42.5343459 118.0454737
  84.5318327  43.4785299 118.2023007  85.4363079  42.3513605 117.7514198
  92.9149875  62.8288012 114.8145938  92.0379341  62.7076813 114.4508185
  93.3907628  62.0374090 114.5624827  94.4303968  60.6239334 114.7575028
  95.2923132  60.9494232 115.0170845  94.6154312  59.8370830 114.2448093
  66.5162597   7.8380744 103.8822501  65.8424295   8.1412441 104.4907458
  66.9028419   8.6409824 103.5327958  70.4219482   5.1231000 102.1549947
  70.3433114   4.7890863 103.0485705  71.2429149   5.6152768 102.1541420
  67.9923434   2.4398995 101.7759926  68.6959284   2.6448998 102.3917581
  67.2686083   3.0075757 102.0409009  71.1970929  15.2014080 109.8471978
  70.6335794  15.1104017 109.0788266  71.0823324  14.3813984 110.3274470
  76.7770487  18.8685048 105.1586443  76.1258467  19.4539128 104.7720457
  77.5714850  19.3991243 105.2181480  70.7026114  15.9574185 105.5573577
  71.4756990  15.4103172 105.4186453  71.0551513  16.8218434 105.7688039
  73.0392392  12.1166851 103.1892027  73.2917913  11.5948372 102.4275490
  72.1016951  11.9532996 103.2918711  78.0835675  11.1202629 110.9966770
  78.8698764  10.7022053 110.6457187  78.3474379  12.0248722 111.1648419
  78.2545752  16.5575480 105.6955427  77.6191585  16.6310106 106.4076332
  77.9243159  17.1469078 105.0174506  72.7588681  14.0194957 105.3916402
  72.6424939  13.3439860 106.0597486  72.8690941  13.5327331 104.5748555
  75.1020222  13.4805104 109.0963091  74.7378429  12.9535725 109.8076013
  75.9587338  13.0903573 108.9229577  74.7425709   8.5095004 104.0924440
  74.9100111   9.3775240 104.4594911  74.5522878   8.6722285 103.1685729
  74.7214930  10.9652661 105.0771107  74.6014555  11.4109712 105.9156587
  74.0267518  11.3137979 104.5184645  72.4821822  23.7356303 108.7261238
  72.4045852  24.6864128 108.8049718  71.8783465  23.3902175 109.3836164
  80.4199996  11.4374134 105.9051441  81.3317852  11.6701521 105.7299138
  79.9109643  12.0211179 105.3426519  79.0269578  16.4199953 113.2965022
  78.3978441  16.5845667 112.5941090  78.6395240  16.8341562 114.0675986
  82.9058810  17.3554391 110.6509386  82.2209848  17.7353292 110.1006419
  82.9902659  17.9649717 111.3841334  74.5797540  16.1574361 110.5615107
  75.0435886  16.4362064 109.7719730  74.3154338  15.2557806 110.3788198
  73.5166426  12.2797513 107.3704672  74.2190469  12.7318557 107.8378599
  73.1847055  11.6381332 107.9984566  74.7560191  19.0938456 107.4466778
  74.6205866  19.9389992 107.8751625  75.2970003  19.2957734 106.6832711
  68.2089588  16.6113894 108.0194703  68.7214109  17.4057144 108.1700267
  68.8612301  15.9140184 107.9528304  70.0184473  19.7279650 110.1017456
  70.1951101  20.6497615 109.9138440  70.8141306  19.4138069 110.5311836
  78.0702937  12.6077629 104.4838106  77.5549560  13.3782234 104.7226494
  77.7980246  11.9342765 105.1071168  83.0437211  15.3609984 106.4191280
  82.2666654  15.0221143 105.9746442  83.7228692  15.3662607 105.7446245
  77.8589240  10.4804721 106.3097887  77.5539376  10.7950870 107.1608031
  78.8119682  10.5586141 106.3525220  76.3035672  16.6394944 107.9590841
  75.7757034  15.9047704 107.6464079  75.8023175  17.4169621 107.7130810
  80.0933977  13.1888338 111.1261829  80.6065859  13.8218329 111.6283539
  80.7435201  12.5889533 110.7605189  71.3623987   9.3319072 104.3393338
  70.5261299   9.6693758 104.6602613  71.2228756   9.1968051 103.4020475
  74.4488272  14.4575155 100.9625814  73.5415334  14.2264408 101.1616963
  74.9459304  13.6612774 101.1499796  77.3556351  23.1672662 103.8822501
  76.6818050  23.4704359 104.4907458  77.7422173  23.9701742 103.5327958
  77.3549856  12.0629209 108.5022850  78.1021674  12.5750606 108.1929972
  77.6241445  11.7413261 109.3627244  75.6276506  14.5587749 105.4849804
  74.7187725  14.2746782 105.5822274  75.6571590  14.9786828 104.6253111
  80.8595773  18.1694339 109.2540972  80.4058100  17.3285249 109.3106163
  80.2289740  18.8055737 109.5915752  79.3028712  20.0070836 110.1890790
  79.5951687  20.5675893 109.4703156  79.8127333  20.2999397 110.9443949
  75.3252593  16.0996493 102.8237883  74.8872023  15.3832352 102.3643520
  76.0663034  16.3272608 102.2622974  74.2662338  20.7851187 111.2784243
  74.2238516  21.0112033 110.3492775  75.1825036  20.5514561 111.4270045
  83.4425708  14.3753690 108.8814202  83.3043607  14.5655286 107.9535391
  83.0861927  15.1373073 109.3382253  72.3828138  17.6614216 111.0746206
  73.1768737  17.1664536 110.8728781  71.6719831  17.1332079 110.7113912
  77.2022983  20.0432311 115.4258574  77.2560005  20.6123248 116.1936290
  76.3337764  20.2134196 115.0612611  68.6910902  11.8057297 107.1505959
  67.7608490  11.7441753 107.3675921  68.7868374  11.2833250 106.3542600
  75.5547566  23.3352334 106.0969580  75.7299322  22.8640377 106.9115202
  74.8680354  23.9618100 106.3250840  76.5104629  17.6124840 112.1432881
  76.1754462  17.5725610 113.0390531  76.0108575  16.9469556 111.6703291
  79.4463821  14.9580875 102.4169941  78.8292992  14.2327703 102.3202993
  78.9780310  15.7190235 102.0737015  70.1208652  26.4841697 112.8709440
  70.3605250  27.1160221 113.5488458  69.2777848  26.1329737 113.1574799
  71.2362367   9.1766299 101.5391245  70.3591833   9.0555100 101.1753492
  71.7120120   8.3852377 101.2870134  74.6336513  22.2920819 115.2750944
  74.5606685  23.0975791 115.7870248  74.1913907  22.4912785 114.4498965
  74.4226293  21.5292589 108.7853765  73.6393815  22.0714270 108.8791990
  75.1219038  22.0466569 109.1848007  78.8152724  16.0958906 109.0026394
  77.8809003  16.2160369 108.8331099  78.9929392  15.1931373 108.7386404
  80.2701506  18.2820047 106.5362580  80.5461350  18.1676641 107.4456454
  79.4006005  17.8837532 106.4974753  76.9055570  22.5306398 110.1795394
  77.0877965  21.7128053 110.6423146  77.7288556  22.7474090 109.7420284
  77.2397736  21.4574583 107.4410443  77.7685502  20.9467037 106.8280605
  77.5025955  21.1417113 108.3055976  70.5953484  22.5089699 110.2008218
  69.9263859  22.9935827 109.7172258  70.4566353  22.7558920 111.1151597
  74.7358752  24.5433443 116.7990877  75.2877060  24.7065064 117.5639962
  75.0764946  25.1337881 116.1270902  77.8727140  22.4915418 113.7854559
  77.7478279  21.6905158 113.2765504  78.5306231  22.9861612 113.2968529
  79.9362048  20.2924438 115.4134109  78.9892384  20.1729790 115.3412436
  80.2844821  19.4046937 115.4960370  76.9408481  20.0877155 111.6138461
  76.7933444  19.1593862 111.7946031  77.7661975  20.1097245 111.1295537
  80.5442603  20.9105713 112.7003334  81.4689151  20.7048575 112.5627785
  80.3757907  20.6622115 113.6092676  72.7938873   7.2369843 105.6712246
  73.5147235   7.6151096 105.1675963  72.1704177   7.9558720 105.7747224
  76.9369996   7.9414992 106.6070579  77.1533610   8.8239630 106.3059407
  76.4564063   7.5501206 105.8776221  80.3337919  21.4291381 108.0565425
  80.5074797  20.8637803 107.3039278  80.8266811  22.2292276 107.8744915
  81.3213092  20.7458145 105.1562324  82.0163996  21.3664838 105.3749638
  81.6636242  19.8953497 105.4314702  83.2204515  18.1957851 106.6849655
  83.7455839  18.5345124 105.9598975  83.1326868  17.2604866 106.5012789
  74.9045176  24.2629834 111.0444908  74.4650166  23.7706213 111.7377764
  75.6553293  23.7202802 110.8036983  67.3837515  20.4541375 111.0469536
  68.2095535  20.1545147 110.6668179  67.0331567  19.6848997 111.4959324
  72.3519048  19.8067843 113.1167209  71.7299057  19.1438548 112.8169437
  73.0223915  19.8328975 112.4340857  71.9132555  18.3571767 106.5925670
  72.0620675  19.0407231 105.9392343  72.7198998  18.3376857 107.1075126
  69.6685188  14.3836944 107.5986739  69.4231230  13.4799274 107.7966949
  69.8381102  14.3854095 106.6566217  68.9380835  10.1165302 105.0972900
  68.2450080  10.1909657 104.4412936  68.6932587   9.3525645 105.6194417
  75.4127960  20.8519897 104.0637417  74.8401927  21.4710084 103.6107889
  75.9860754  21.4019259 104.5977339  78.6325220  21.1357047 105.1946000
  79.5655893  21.0702609 105.3978875  78.5448433  21.9713314 104.7360532
  81.2613237  20.4522917 102.1549947  81.1826868  20.1182781 103.0485705
  82.0822904  20.9444685 102.1541420  75.7974759  12.1880710 101.4053470
  76.7433864  12.0586918 101.4741888  75.4189004  11.4495372 101.8822898
  73.9817676  10.1130686 101.3408355  73.0749131   9.8163799 101.4171069
  74.2593657   9.8160504 100.4742641  72.7516461   6.9717621 101.4820334
  73.6135625   7.2972520 101.7416152  72.9366805   6.1849117 100.9693400
  79.6873975   8.0046238 107.6811906  78.7999830   8.2895889 107.4632100
  80.1027964   7.8440002 106.8339182  67.6958226  22.5853989 112.7683350
  67.5612693  21.8254390 112.2021348  67.2790288  23.3094889 112.3012139
  78.8317189  17.7690913 101.7759926  79.5353039  17.9740915 102.3917581
  78.1079837  18.3367675 102.0409009  79.6614999  13.5200774 107.8962196
  79.6050200  13.9769326 107.0569828  80.2143341  12.7591459 107.7185038
  70.8527351  23.4823306 112.9801793  70.7359736  24.4268739 112.8780483
  70.0319798  23.1796868 113.3687592  80.7403886  18.2073442 103.8258386
  81.5749490  17.7754641 103.6435860  80.5788229  18.0355456 104.7535280
  80.3949778  14.7105555 105.1914725  80.3398582  14.5449827 104.2503169
  79.7695833  15.4181588 105.3476915  73.7045904   4.2113664 104.7700043
  73.6924573   5.1555504 104.9268314  74.5969325   4.0283810 104.4759504
  73.6335468  22.8882555 112.8567800  72.6831099  22.8884416 112.7432172
  73.9367954  22.1415289 112.3403835  86.1777867  28.6770521 113.8575087
  85.8396379  28.5611586 112.9695622  87.0467636  28.2761686 113.8376093
  82.0364683  30.5305998 109.8471978  81.4729548  30.4395935 109.0788266
  81.9217078  29.7105902 110.3274470  79.5829115  32.0257189 112.6856198
  80.3750407  31.6848014 112.2702498  79.8225765  32.1352164 113.6058352
  87.6164242  34.1976965 105.1586443  86.9652222  34.7831046 104.7720457
  88.4108605  34.7283160 105.2181480  81.5419869  31.2866103 105.5573577
  82.3150745  30.7395090 105.4186453  81.8945268  32.1510352 105.7688039
  83.3804911  32.6142485 118.7640477  83.0894777  33.5188116 118.6487143
  84.0161896  32.6559012 119.4784546  84.3061118  29.9919333 115.3541836
  84.9024691  29.7675356 114.6398799  84.3636090  29.2504079 115.9567284
  83.8786147  27.4458769 103.1892027  84.1311667  26.9240290 102.4275490
  82.9410706  27.2824914 103.2918711  88.9229430  26.4494547 110.9966770
  89.7092519  26.0313970 110.6457187  89.1868134  27.3540639 111.1648419
  89.0939507  31.8867397 105.6955427  88.4585340  31.9602024 106.4076332
  88.7636913  32.4760996 105.0174506  83.5982435  29.3486875 105.3916402
  83.4818694  28.6731778 106.0597486  83.7084695  28.8619249 104.5748555
  85.9413976  28.8097022 109.0963091  85.5772184  28.2827643 109.8076013
  86.7981092  28.4195491 108.9229577  85.5819463  23.8386921 104.0924440
  85.7493866  24.7067158 104.4594911  85.3916632  24.0014203 103.1685729
  81.7907278  28.7517697 111.7926975  80.8657774  28.6193911 112.0004666
  82.0391691  29.5311916 112.2896917  85.5608684  26.2944579 105.0771107
  85.4408309  26.7401630 105.9156587  84.8661273  26.6429897 104.5184645
  79.1516089  28.3950971 112.6270764  79.2808470  28.6485450 113.5410175
  78.4713540  28.9878679 112.3075419  83.3215576  39.0648221 108.7261238
  83.2439606  40.0156046 108.8049718  82.7177220  38.7194093 109.3836164
  91.2593750  26.7666052 105.9051441  92.1711607  26.9993439 105.7299138
  90.7503397  27.3503096 105.3426519  89.8663333  31.7491871 113.2965022
  89.2372195  31.9137585 112.5941090  89.4788995  32.1633480 114.0675986
  93.7452565  32.6846308 110.6509386  93.0603603  33.0645210 110.1006419
  93.8296414  33.2941635 111.3841334  85.4191295  31.4866279 110.5615107
  85.8829640  31.7653982 109.7719730  85.1548093  30.5849723 110.3788198
  82.3115376  31.0337760 113.4994871  82.8816733  31.4625029 112.8612355
  82.9023487  30.7520345 114.1979056  84.3560181  27.6089431 107.3704672
  85.0584224  28.0610475 107.8378599  84.0240809  26.9673250 107.9984566
  78.0985515  25.8672984 112.6721806  77.3084569  26.1230512 112.1961917
  78.5896762  26.6821322 112.7773847  80.0500260  26.2317563 109.6305283
  79.2531423  26.3436257 110.1488778  79.8225852  26.5704215 108.7646173
  85.8805928  32.7562266 117.5787797  85.9450360  33.2182673 118.4145969
  85.1716851  32.1259631 117.7070107  76.3823218  26.1203474 115.1036797
  76.6331256  27.0050484 115.3694373  76.9182766  25.9408076 114.3311889
  85.5953945  34.4230374 107.4466778  85.4599620  35.2681909 107.8751625
  86.1363758  34.6249651 106.6832711  79.0483343  31.9405812 108.0194703
  79.5607863  32.7349062 108.1700267  79.7006055  31.2432102 107.9528304
  80.8578227  35.0571568 110.1017456  81.0344856  35.9789533 109.9138440
  81.6535061  34.7429987 110.5311836  81.9809543  36.5749742 116.1027798
  82.5316968  36.4466805 115.3304792  81.1421019  36.8744631 115.7522691
  77.0132259  30.2694466 108.7954273  77.8507481  30.6791474 108.5787981
  77.1910527  29.3293908 108.7654467  88.9096692  27.9369547 104.4838106
  88.3943315  28.7074151 104.7226494  88.6374000  27.2634683 105.1071168
  86.4943803  22.7819247 109.5423345  85.6385399  22.3926098 109.3628983
  86.9070754  22.8611208 108.6823130  93.8830966  30.6901901 106.4191280
  93.1060408  30.3513061 105.9746442  94.5622447  30.6954524 105.7446245
  88.6982995  25.8096639 106.3097887  88.3933130  26.1242788 107.1608031
  89.6513437  25.8878059 106.3525220  87.1429427  31.9686862 107.9590841
  86.6150788  31.2339622 107.6464079  86.6416929  32.7461538 107.7130810
  81.8748154  22.6306528 110.3197453  82.4491906  22.4081710 109.5870646
  82.4619137  22.6995223 111.0726054  90.9327731  28.5180255 111.1261829
  91.4459613  29.1510247 111.6283539  91.5828955  27.9181451 110.7605189
  82.2017741  24.6610989 104.3393338  81.3655054  24.9985676 104.6602613
  82.0622511  24.5259969 103.4020475  84.1770822  19.5047777 109.0472522
  83.5235234  19.1896794 108.4229137  84.1351296  18.8823518 109.7732345
  85.2882027  29.7867072 100.9625814  84.3809088  29.5556326 101.1616963
  85.7853059  28.9904692 101.1499796  88.1950106  38.4964579 103.8822501
  87.5211804  38.7996276 104.4907458  88.5815928  39.2993660 103.5327958
  87.4108562  25.9929711 113.3720170  86.4931124  26.2144658 113.2141858
  87.8268706  26.0676021 112.5131877  88.1943610  27.3921126 108.5022850
  88.9415429  27.9042524 108.1929972  88.4635200  27.0705179 109.3627244
  86.4670260  29.8879667 105.4849804  85.5581479  29.6038700 105.5822274
  86.4965344  30.3078746 104.6253111  91.6989528  33.4986257 109.2540972
  91.2451855  32.6577167 109.3106163  91.0683494  34.1347655 109.5915752
  90.1422467  35.3362753 110.1890790  90.4345441  35.8967810 109.4703156
  90.6521087  35.6291314 110.9443949  77.0358431  27.6085181 109.4665007
  76.8382830  27.0154542 108.7416073  76.4805095  27.3037391 110.1840945
  85.0155154  27.5008288 111.5859600  85.0703764  26.5482124 111.5102076
  84.2046356  27.6567727 112.0700898  86.1646348  31.4288411 102.8237883
  85.7265778  30.7124270 102.3643520  86.9056789  31.6564526 102.2622974
  82.9547514  26.1185347 109.3449979  82.1415380  26.4179518 109.7515171
  83.4506508  25.7241036 110.0624461  85.1056092  36.1143104 111.2784243
  85.0632271  36.3403951 110.3492775  86.0218791  35.8806479 111.4270045
  94.2819463  29.7045608 108.8814202  94.1437361  29.8947204 107.9535391
  93.9255682  30.4664991 109.3382253  82.4461589  23.6903703 114.9611214
  83.0860968  23.5492462 114.2634177  81.6139119  23.4038216 114.5849816
  83.2221893  32.9906133 111.0746206  84.0162491  32.4956454 110.8728781
  82.5113585  32.4623997 110.7113912  88.0416737  35.3724229 115.4258574
  88.0953760  35.9415165 116.1936290  87.1731519  35.5426114 115.0612611
  79.5304656  27.1349215 107.1505959  78.6002244  27.0733671 107.3675921
  79.6262128  26.6125168 106.3542600  79.4490205  23.6604028 109.7384200
  79.7097023  24.5749361 109.6293361  80.2707378  23.1928471 109.8880813
  80.9215131  25.0741785 116.9083025  81.5938184  24.8659147 116.2595674
  80.0944917  24.8763871 116.4688257  85.7993169  33.5635155 114.7544043
  85.6604255  33.1953940 115.6269981  85.0107765  34.0782795 114.5828001
  86.3941321  38.6644252 106.0969580  86.5693076  38.1932295 106.9115202
  85.7074109  39.2910018 106.3250840  87.3498384  32.9416758 112.1432881
  87.0148217  32.9017528 113.0390531  86.8502330  32.2761474 111.6703291
  81.3242628  28.3484388 117.6685462  81.1862426  27.6164627 118.2697001
  82.2347551  28.2593288 117.3869650  90.2857576  30.2872792 102.4169941
  89.6686746  29.5619621 102.3202993  89.8174064  31.0482153 102.0737015
  80.9602406  41.8133615 112.8709440  81.1999004  42.4452139 113.5488458
  80.1171603  41.4621655 113.1574799  82.0756122  24.5058217 101.5391245
  81.1985588  24.3847018 101.1753492  82.5513875  23.7144295 101.2870134
  73.5958262  29.2935376 111.6332752  74.2829301  28.9797107 111.0453767
  73.4406390  30.1976741 111.3600004  78.3992984  24.1825573 116.0617776
  78.3151173  23.5751243 115.3268186  77.5775690  24.6734591 116.0627272
  85.4730268  37.6212737 115.2750944  85.4000439  38.4267709 115.7870248
  85.0307661  37.8204703 114.4498965  85.2620048  36.8584507 108.7853765
  84.4787569  37.4006187 108.8791990  85.9612793  37.3758487 109.1848007
  87.9328951  37.5199571 117.4309103  88.6456924  38.1547036 117.3585004
  87.4418980  37.6163437 116.6149104  89.6546478  31.4250824 109.0026394
  88.7202757  31.5452286 108.8331099  89.8323147  30.5223291 108.7386404
  85.1551666  24.8096520 111.1559655  84.7849454  24.2567560 111.8440561
  85.6510759  24.2054653 110.6034655  82.9840865  35.2694015 118.2514673
  83.6850324  35.9030498 118.4044068  82.5135980  35.6108746 117.4910313
  91.1095261  33.6111964 106.5362580  91.3855105  33.4968559 107.4456454
  90.2399760  33.2129449 106.4974753  87.7449325  37.8598315 110.1795394
  87.9271719  37.0419971 110.6423146  88.5682311  38.0766007 109.7420284
  88.0791490  36.7866500 107.4410443  88.6079257  36.2758955 106.8280605
  88.3419710  36.4709031 108.3055976  78.5808583  34.8030370 115.1845776
  79.1662020  34.0574058 115.3173680  78.3833421  35.1134326 116.0682440
  81.4347238  37.8381617 110.2008218  80.7657614  38.3227745 109.7172258
  81.2960108  38.0850837 111.1151597  73.1726238  27.3735970 113.9050219
  73.2110337  26.8399561 114.6987337  72.6666531  26.8471175 113.2861196
  85.5752507  39.8725361 116.7990877  86.1270815  40.0356982 117.5639962
  85.9158700  40.4629798 116.1270902  76.8034815  26.1000072 106.9804151
  77.0988256  25.1910750 106.9271204  75.9022851  26.0787811 106.6585153
  88.7120894  37.8207336 113.7854559  88.5872034  37.0197076 113.2765504
  89.3699985  38.3153529 113.2968529  80.3329062  24.1756069 112.9631699
  79.6115648  24.7892036 112.8239173  81.1222318  24.7113833 112.8848345
  90.7755803  35.6216356 115.4134109  89.8286138  35.5021707 115.3412436
  91.1238576  34.7338854 115.4960370  78.5322657  23.7814170 107.1043476
  78.2035363  22.9011549 106.9218582  78.8862028  23.7261838 107.9919865
  87.7802236  35.4169072 111.6138461  87.6327198  34.4885780 111.7946031
  88.6055729  35.4389163 111.1295537  81.6464480  24.0687139 107.4718953
  81.9860553  24.5973061 106.7497562  82.0936601  24.4067546 108.2477520
  91.3836358  36.2397631 112.7003334  92.3082905  36.0340492 112.5627785
  91.2151661  35.9914032 113.6092676  83.6332627  22.5661761 105.6712246
  84.3540990  22.9443014 105.1675963  83.0097931  23.2850638 105.7747224
  87.7763750  23.2706910 106.6070579  87.9927365  24.1531548 106.3059407
  87.2957817  22.8793123 105.8776221  82.5162972  26.2292623 113.1841323
  82.3707552  26.5432926 114.0765605  82.0388175  26.8477524 112.6312222
  91.1731674  36.7583299 108.0565425  91.3468551  36.1929721 107.3039278
  91.6660565  37.5584193 107.8744915  76.9908634  28.7697968 116.1228984
  76.4462102  29.5457776 116.2549259  77.8687984  29.1168772 115.9648106
  83.7796250  22.1009552 108.5009783  83.9012162  21.1726198 108.7000670
  83.4898293  22.1148237 107.5888098  92.1606846  36.0750063 105.1562324
  92.8557751  36.6956756 105.3749638  92.5029996  35.2245414 105.4314702
  77.7774656  27.8967864 119.0159141  77.0356392  28.0450499 119.6023772
  77.4567400  28.1576130 118.1525891  94.0598269  33.5249768 106.6849655
  94.5849594  33.8637041 105.9598975  93.9720622  32.5896784 106.5012789
  85.7218318  37.4383842 118.8139531  86.0305445  37.1932989 119.6862231
  86.5193800  37.6430481 118.3258401  85.7438930  39.5921752 111.0444908
  85.3043921  39.0998130 111.7377764  86.4947047  39.0494719 110.8036983
  78.2231269  35.7833293 111.0469536  79.0489289  35.4837065 110.6668179
  77.8725321  35.0140915 111.4959324  83.1912802  35.1359761 113.1167209
  82.5692812  34.4730466 112.8169437  83.8617669  35.1620893 112.4340857
  76.4239874  33.7019619 112.0058469  75.5871783  33.2741793 111.8242471
  76.3963520  33.8952062 112.9429261  82.7526309  33.6863684 106.5925670
  82.9014430  34.3699149 105.9392343  83.5592753  33.6668774 107.1075126
  80.5078942  29.7128862 107.5986739  80.2624984  28.8091192 107.7966949
  80.6774857  29.7146012 106.6566217  79.7774590  25.4457219 105.0972900
  79.0843835  25.5201574 104.4412936  79.5326342  24.6817563 105.6194417
  86.2521715  36.1811815 104.0637417  85.6795682  36.8002002 103.6107889
  86.8254508  36.7311176 104.5977339  89.4718975  36.4648965 105.1946000
  90.4049648  36.3994526 105.3978875  89.3842187  37.3005232 104.7360532
  92.1006991  35.7814835 102.1549947  92.0220623  35.4474699 103.0485705
  92.9216658  36.2736603 102.1541420  86.6368513  27.5172627 101.4053470
  87.5827618  27.3878836 101.4741888  86.2582758  26.7787289 101.8822898
  84.8211430  25.4422604 101.3408355  83.9142886  25.1455717 101.4171069
  85.0987411  25.1452422 100.4742641  75.7389371  26.7628967 111.7907401
  75.4192155  25.9094275 111.4981775  75.1922799  26.9777545 112.5465369
  79.5169278  29.4791408 115.5076908  79.7355288  30.4108516 115.5264942
  79.9295052  29.1199383 116.2931712  86.4373496  19.9859494 107.4952596
  85.6274225  19.6406578 107.8707842  87.1257913  19.6767037 108.0840208
  83.5910215  22.3009539 101.4820334  84.4529379  22.6264437 101.7416152
  83.7760559  21.5141035 100.9693400  75.6077631  30.3831879 113.7600523
  74.9141102  29.9685831 113.2470477  76.3550622  30.4252415 113.1633942
  77.5214373  30.3150132 111.6366538  77.4985061  30.4137820 110.6848421
  77.8315010  31.1615283 111.9583704  80.1801751  32.3726287 115.7513152
  81.1345005  32.3410230 115.6843084  79.9814275  31.9116911 116.5663378
  80.7701133  30.9427404 118.3183950  81.5894022  31.4371482 118.3418787
  81.0437941  30.0259372 118.2901518  90.5267730  23.3338156 107.6811906
  89.6393585  23.6187806 107.4632100  90.9421719  23.1731919 106.8339182
  78.5351980  37.9145907 112.7683350  78.4006448  37.1546308 112.2021348
  78.1184042  38.6386807 112.3012139  89.6710943  33.0982831 101.7759926
  90.3746793  33.3032833 102.3917581  88.9473592  33.6659592 102.0409009
  90.5008753  28.8492692 107.8962196  90.4443955  29.3061243 107.0569828
  91.0537096  28.0883376 107.7185038  81.6921106  38.8115224 112.9801793
  81.5753490  39.7560656 112.8780483  80.8713552  38.5088786 113.3687592
  91.5797640  33.5365360 103.8258386  92.4143244  33.1046558 103.6435860
  91.4181983  33.3647373 104.7535280  91.2343533  30.0397473 105.1914725
  91.1792336  29.8741744 104.2503169  90.6089588  30.7473506 105.3476915
  84.5439658  19.5405582 104.7700043  84.5318328  20.4847422 104.9268314
  85.4363080  19.3575727 104.4759504  82.7175620  39.4643486 116.1957721
  83.6202867  39.4967096 116.5124216  82.4912990  38.5343937 116.2104057
  84.4729222  38.2174472 112.8567800  83.5224853  38.2176334 112.7432172
  84.7761708  37.4707207 112.3403835  97.0171622  44.0062439 113.8575087
  96.6790133  43.8903504 112.9695622  97.8861390  43.6053604 113.8376093
  92.8758438  45.8597915 109.8471978  92.3123303  45.7687852 109.0788266
  92.7610833  45.0397820 110.3274470  90.4222869  47.3549107 112.6856198
  91.2144161  47.0139932 112.2702498  90.6619520  47.4644082 113.6058352
  98.4557996  49.5268883 105.1586443  97.8045976  50.1122963 104.7720457
  99.2502359  50.0575078 105.2181480  92.3813623  46.6158020 105.5573577
  93.1544499  46.0687007 105.4186453  92.7339022  47.4802270 105.7688039
  94.2198666  47.9434402 118.7640477  93.9288532  48.8480033 118.6487143
  94.8555650  47.9850930 119.4784546  95.1454873  45.3211251 115.3541836
  95.7418445  45.0967273 114.6398799  95.2029844  44.5795996 115.9567284
  94.7179901  42.7750686 103.1892027  94.9705422  42.2532208 102.4275490
  93.7804460  42.6116832 103.2918711  99.7623184  41.7786465 110.9966770
 100.5486273  41.3605888 110.6457187 100.0261888  42.6832557 111.1648419
  99.9333261  47.2159315 105.6955427  99.2979094  47.2893942 106.4076332
  99.6030668  47.8052914 105.0174506  94.4376190  44.6778792 105.3916402
  94.3212448  44.0023696 106.0597486  94.5478450  44.1911166 104.5748555
  96.7807731  44.1388939 109.0963091  96.4165938  43.6119560 109.8076013
  97.6374847  43.7487408 108.9229577  96.4213218  39.1678839 104.0924440
  96.5887620  40.0359075 104.4594911  96.2310387  39.3306121 103.1685729
  92.6301033  44.0809615 111.7926975  91.7051529  43.9485829 112.0004666
  92.8785446  44.8603834 112.2896917  96.4002439  41.6236497 105.0771107
  96.2802064  42.0693547 105.9156587  95.7055027  41.9721814 104.5184645
  89.9909844  43.7242888 112.6270764  90.1202225  43.9777367 113.5410175
  89.3107295  44.3170596 112.3075419  94.1609331  54.3940138 108.7261238
  94.0833361  55.3447963 108.8049718  93.5570974  54.0486011 109.3836164
 102.0987505  42.0957970 105.9051441 103.0105361  42.3285357 105.7299138
 101.5897152  42.6795014 105.3426519 100.7057087  47.0783788 113.2965022
 100.0765950  47.2429502 112.5941090 100.3182749  47.4925398 114.0675986
 104.5846319  48.0138226 110.6509386 103.8997357  48.3937127 110.1006419
 104.6690168  48.6233553 111.3841334  96.2585049  46.8158196 110.5615107
  96.7223395  47.0945899 109.7719730  95.9941847  45.9141641 110.3788198
  93.1509130  46.3629678 113.4994871  93.7210487  46.7916946 112.8612355
  93.7417242  46.0812263 114.1979056  95.1953935  42.9381349 107.3704672
  95.8977978  43.3902392 107.8378599  94.8634564  42.2965168 107.9984566
  88.9379269  41.1964901 112.6721806  88.1478323  41.4522430 112.1961917
  89.4290516  42.0113239 112.7773847  90.8894014  41.5609481 109.6305283
  90.0925178  41.6728175 110.1488778  90.6619607  41.8996133 108.7646173
  96.7199682  48.0854184 117.5787797  96.7844115  48.5474591 118.4145969
  96.0110606  47.4551549 117.7070107  87.2216972  41.4495392 115.1036797
  87.4725010  42.3342402 115.3694373  87.7576520  41.2699993 114.3311889
  96.4347700  49.7522291 107.4466778  96.2993375  50.5973827 107.8751625
  96.9757512  49.9541569 106.6832711  89.8877097  47.2697729 108.0194703
  90.4001618  48.0640980 108.1700267  90.5399810  46.5724020 107.9528304
  91.6971982  50.3863486 110.1017456  91.8738610  51.3081450 109.9138440
  92.4928815  50.0721905 110.5311836  92.8203297  51.9041659 116.1027798
  93.3710722  51.7758723 115.3304792  91.9814773  52.2036548 115.7522691
  87.8526014  45.5986384 108.7954273  88.6901236  46.0083392 108.5787981
  88.0304282  44.6585826 108.7654467  99.7490446  43.2661464 104.4838106
  99.2337069  44.0366069 104.7226494  99.4767754  42.5926600 105.1071168
  97.3337557  38.1111165 109.5423345  96.4779153  37.7218015 109.3628983
  97.7464509  38.1903126 108.6823130 104.7224720  46.0193819 106.4191280
 103.9454163  45.6804978 105.9746442 105.4016201  46.0246442 105.7446245
  99.5376749  41.1388556 106.3097887  99.2326885  41.4534706 107.1608031
 100.4907191  41.2169976 106.3525220  97.9823181  47.2978780 107.9590841
  97.4544543  46.5631539 107.6464079  97.4810684  48.0753456 107.7130810
  92.7141909  37.9598446 110.3197453  93.2885661  37.7373627 109.5870646
  93.3012891  38.0287140 111.0726054 101.7721486  43.8472173 111.1261829
 102.2853368  44.4802165 111.6283539 102.4222710  43.2473368 110.7605189
  93.0411496  39.9902907 104.3393338  92.2048808  40.3277594 104.6602613
  92.9016265  39.8551887 103.4020475  95.0164576  34.8339695 109.0472522
  94.3628989  34.5188712 108.4229137  94.9745051  34.2115435 109.7732345
  96.1275781  45.1158990 100.9625814  95.2202843  44.8848243 101.1616963
  96.6246813  44.3196609 101.1499796  99.0343860  53.8256497 103.8822501
  98.3605559  54.1288194 104.4907458  99.4209682  54.6285577 103.5327958
  98.2502317  41.3221628 113.3720170  97.3324878  41.5436575 113.2141858
  98.6662460  41.3967939 112.5131877  99.0337364  42.7213044 108.5022850
  99.7809183  43.2334441 108.1929972  99.3028954  42.3997097 109.3627244
  97.3064015  45.2171585 105.4849804  96.3975234  44.9330618 105.5822274
  97.3359098  45.6370663 104.6253111 102.5383282  48.8278174 109.2540972
 102.0845609  47.9869084 109.3106163 101.9077249  49.4639573 109.5915752
 100.9816221  50.6654671 110.1890790 101.2739196  51.2259728 109.4703156
 101.4914842  50.9583232 110.9443949  87.8752185  42.9377099 109.4665007
  87.6776585  42.3446460 108.7416073  87.3198849  42.6329309 110.1840945
  95.8548909  42.8300205 111.5859600  95.9097518  41.8774042 111.5102076
  95.0440111  42.9859645 112.0700898  97.0040102  46.7580328 102.8237883
  96.5659532  46.0416187 102.3643520  97.7450543  46.9856443 102.2622974
  93.7941269  41.4477265 109.3449979  92.9809134  41.7471436 109.7515171
  94.2900263  41.0532954 110.0624461  95.9449847  51.4435022 111.2784243
  95.9026025  51.6695868 110.3492775  96.8612545  51.2098397 111.4270045
 105.1213217  45.0337526 108.8814202 104.9831116  45.2239122 107.9535391
 104.7649436  45.7956908 109.3382253  93.2855343  39.0195621 114.9611214
  93.9254723  38.8784380 114.2634177  92.4532874  38.7330134 114.5849816
  94.0615647  48.3198051 111.0746206  94.8556246  47.8248371 110.8728781
  93.3507340  47.7915914 110.7113912  98.8810492  50.7016147 115.4258574
  98.9347514  51.2707083 116.1936290  98.0125273  50.8718032 115.0612611
  90.3698411  42.4641133 107.1505959  89.4395999  42.4025588 107.3675921
  90.4655883  41.9417086 106.3542600  90.2883960  38.9895946 109.7384200
  90.5490777  39.9041279 109.6293361  91.1101132  38.5220388 109.8880813
  91.7608885  40.4033703 116.9083025  92.4331939  40.1951065 116.2595674
  90.9338672  40.2055789 116.4688257  96.6386923  48.8927073 114.7544043
  96.4998009  48.5245857 115.6269981  95.8501520  49.4074713 114.5828001
  97.2335075  53.9936170 106.0969580  97.4086831  53.5224213 106.9115202
  96.5467863  54.6201936 106.3250840  98.1892138  48.2708676 112.1432881
  97.8541971  48.2309446 113.0390531  97.6896084  47.6053392 111.6703291
  92.1636382  43.6776306 117.6685462  92.0256180  42.9456545 118.2697001
  93.0741306  43.5885206 117.3869650 101.1251330  45.6164710 102.4169941
 100.5080501  44.8911538 102.3202993 100.6567819  46.3774070 102.0737015
  91.7996161  57.1425532 112.8709440  92.0392759  57.7744056 113.5488458
  90.9565357  56.7913572 113.1574799  92.9149876  39.8350134 101.5391245
  92.0379342  39.7138935 101.1753492  93.3907629  39.0436213 101.2870134
  84.4352016  44.6227294 111.6332752  85.1223056  44.3089024 111.0453767
  84.2800145  45.5268659 111.3600004  89.2386738  39.5117491 116.0617776
  89.1544927  38.9043160 115.3268186  88.4169445  40.0026509 116.0627272
  96.3124022  52.9504655 115.2750944  96.2394194  53.7559626 115.7870248
  95.8701416  53.1496621 114.4498965  96.1013802  52.1876425 108.7853765
  95.3181324  52.7298105 108.8791990  96.8006547  52.7050404 109.1848007
  98.7722706  52.8491489 117.4309103  99.4850678  53.4838954 117.3585004
  98.2812735  52.9455355 116.6149104 100.4940233  46.7542741 109.0026394
  99.5596512  46.8744204 108.8331099 100.6716901  45.8515208 108.7386404
  95.9945421  40.1388437 111.1559655  95.6243208  39.5859478 111.8440561
  96.4904513  39.5346571 110.6034655  93.8234619  50.5985932 118.2514673
  94.5244079  51.2322415 118.4044068  93.3529734  50.9400664 117.4910313
 101.9489015  48.9403882 106.5362580 102.2248859  48.8260477 107.4456454
 101.0793514  48.5421367 106.4974753  98.5843079  53.1890233 110.1795394
  98.7665474  52.3711889 110.6423146  99.4076065  53.4057925 109.7420284
  98.9185245  52.1158418 107.4410443  99.4473011  51.6050873 106.8280605
  99.1813464  51.8000948 108.3055976  89.4202338  50.1322287 115.1845776
  90.0055774  49.3865975 115.3173680  89.2227176  50.4426244 116.0682440
  92.2740993  53.1673535 110.2008218  91.6051368  53.6519662 109.7172258
  92.1353862  53.4142755 111.1151597  84.0119992  42.7027888 113.9050219
  84.0504092  42.1691478 114.6987337  83.5060285  42.1763093 113.2861196
  96.4146261  55.2017278 116.7990877  96.9664569  55.3648900 117.5639962
  96.7552455  55.7921716 116.1270902  87.6428570  41.4291990 106.9804151
  87.9382011  40.5202668 106.9271204  86.7416606  41.4079729 106.6585153
  99.5514649  53.1499254 113.7854559  99.4265788  52.3488994 113.2765504
 100.2093740  53.6445447 113.2968529  91.1722817  39.5047986 112.9631699
  90.4509403  40.1183954 112.8239173  91.9616073  40.0405751 112.8848345
 101.6149557  50.9508274 115.4134109 100.6679893  50.8313625 115.3412436
 101.9632330  50.0630772 115.4960370  89.3716411  39.1106087 107.1043476
  89.0429118  38.2303466 106.9218582  89.7255782  39.0553756 107.9919865
  98.6195990  50.7460990 111.6138461  98.4720953  49.8177697 111.7946031
  99.4449484  50.7681081 111.1295537  92.4858235  39.3979057 107.4718953
  92.8254307  39.9264978 106.7497562  92.9330355  39.7359463 108.2477520
 102.2230112  51.5689549 112.7003334 103.1476660  51.3632410 112.5627785
 102.0545416  51.3205950 113.6092676  94.4726382  37.8953679 105.6712246
  95.1934744  38.2734932 105.1675963  93.8491686  38.6142556 105.7747224
  98.6157505  38.5998828 106.6070579  98.8321119  39.4823466 106.3059407
  98.1351572  38.2085041 105.8776221  93.3556726  41.5584541 113.1841323
  93.2101307  41.8724844 114.0765605  92.8781930  42.1769441 112.6312222
 102.0125428  52.0875216 108.0565425 102.1862306  51.5221639 107.3039278
 102.5054320  52.8876111 107.8744915  87.8302388  44.0989885 116.1228984
  87.2855856  44.8749693 116.2549259  88.7081738  44.4460690 115.9648106
  94.6190005  37.4301469 108.5009783  94.7405916  36.5018115 108.7000670
  94.3292047  37.4440155 107.5888098 103.0000601  51.4041981 105.1562324
 103.6951505  52.0248673 105.3749638 103.3423751  50.5537332 105.4314702
  88.6168410  43.2259782 119.0159141  87.8750146  43.3742417 119.6023772
  88.2961154  43.4868047 118.1525891 104.8992024  48.8541686 106.6849655
 105.4243348  49.1928959 105.9598975 104.8114377  47.9188701 106.5012789
  96.5612073  52.7675760 118.8139531  96.8699199  52.5224907 119.6862231
  97.3587555  52.9722398 118.3258401  96.5832685  54.9213669 111.0444908
  96.1437675  54.4290048 111.7377764  97.3340802  54.3786637 110.8036983
  89.0625024  51.1125210 111.0469536  89.8883044  50.8128982 110.6668179
  88.7119076  50.3432833 111.4959324  94.0306557  50.4651679 113.1167209
  93.4086566  49.8022384 112.8169437  94.7011424  50.4912810 112.4340857
  87.2633629  49.0311537 112.0058469  86.4265537  48.6033711 111.8242471
  87.2357274  49.2243980 112.9429261  93.5920064  49.0155602 106.5925670
  93.7408184  49.6991066 105.9392343  94.3986507  48.9960692 107.1075126
  91.3472697  45.0420780 107.5986739  91.1018739  44.1383110 107.7966949
  91.5168611  45.0437930 106.6566217  90.6168344  40.7749137 105.0972900
  89.9237589  40.8493492 104.4412936  90.3720096  40.0109481 105.6194417
  97.0915469  51.5103732 104.0637417  96.5189436  52.1293919 103.6107889
  97.6648263  52.0603094 104.5977339 100.3112729  51.7940882 105.1946000
 101.2443402  51.7286444 105.3978875 100.2235942  52.6297149 104.7360532
 102.9400746  51.1106753 102.1549947 102.8614377  50.7766616 103.0485705
 103.7610413  51.6028521 102.1541420  97.4762268  42.8464545 101.4053470
  98.4221373  42.7170753 101.4741888  97.0976513  42.1079207 101.8822898
  95.6605185  40.7714521 101.3408355  94.7536640  40.4747634 101.4171069
  95.9381166  40.4744340 100.4742641  86.5783125  42.0920885 111.7907401
  86.2585910  41.2386193 111.4981775  86.0316554  42.3069463 112.5465369
  90.3563033  44.8083326 115.5076908  90.5749043  45.7400434 115.5264942
  90.7688807  44.4491300 116.2931712  97.2767251  35.3151411 107.4952596
  96.4667979  34.9698496 107.8707842  97.9651668  35.0058955 108.0840208
  94.4303970  37.6301457 101.4820334  95.2923134  37.9556355 101.7416152
  94.6154314  36.8432953 100.9693400  86.4471385  45.7123796 113.7600523
  85.7534857  45.2977749 113.2470477  87.1944376  45.7544333 113.1633942
  88.3608128  45.6442050 111.6366538  88.3378816  45.7429737 110.6848421
  88.6708764  46.4907201 111.9583704  91.0195506  47.7018205 115.7513152
  91.9738759  47.6702148 115.6843084  90.8208029  47.2408829 116.5663378
  91.6094888  46.2719321 118.3183950  92.4287777  46.7663400 118.3418787
  91.8831696  45.3551289 118.2901518 101.3661484  38.6630074 107.6811906
 100.4787339  38.9479724 107.4632100 101.7815473  38.5023837 106.8339182
  89.3745735  53.2437825 112.7683350  89.2400202  52.4838226 112.2021348
  88.9577797  53.9678725 112.3012139 100.5104698  48.4274748 101.7759926
 101.2140548  48.6324751 102.3917581  99.7867346  48.9951510 102.0409009
 101.3402508  44.1784609 107.8962196 101.2837709  44.6353161 107.0569828
 101.8930850  43.4175294 107.7185038  92.5314860  54.1407142 112.9801793
  92.4147245  55.0852574 112.8780483  91.7107307  53.8380703 113.3687592
 102.4191395  48.8657277 103.8258386 103.2536999  48.4338476 103.6435860
 102.2575738  48.6939291 104.7535280 102.0737287  45.3689391 105.1914725
 102.0186091  45.2033662 104.2503169 101.4483342  46.0765424 105.3476915
  86.8629802  40.6057455 119.0176147  87.5088666  40.0956409 119.5063372
  86.6546953  41.3426137 119.5919572  95.3833413  34.8697500 104.7700043
  95.3712082  35.8139340 104.9268314  96.2756834  34.6867645 104.4759504
  93.5569375  54.7935404 116.1957721  94.4596621  54.8259014 116.5124216
  93.3306745  53.8635855 116.2104057  95.3122977  53.5466390 112.8567800
  94.3618608  53.5468252 112.7432172  95.6155463  52.7999125 112.3403835
 103.7152192  61.1889833 109.8471978 103.1517057  61.0979770 109.0788266
 103.6004587  60.3689737 110.3274470 109.2951751  64.8560801 105.1586443
 108.6439730  65.4414881 104.7720457 110.0896114  65.3866996 105.2181480
 103.2207378  61.9449938 105.5573577 103.9938254  61.3978925 105.4186453
 103.5732777  62.8094187 105.7688039 105.5573656  58.1042604 103.1892027
 105.8099176  57.5824125 102.4275490 104.6198215  57.9408749 103.2918711
 110.6016939  57.1078382 110.9966770 111.3880028  56.6897806 110.6457187
 110.8655643  58.0124475 111.1648419 110.7727016  62.5451233 105.6955427
 110.1372849  62.6185859 106.4076332 110.4424422  63.1344832 105.0174506
 105.2769944  60.0070710 105.3916402 105.1606203  59.3315613 106.0597486
 105.3872204  59.5203084 104.5748555 107.6201485  59.4680857 109.0963091
 107.2559693  58.9411478 109.8076013 108.4768601  59.0779326 108.9229577
 107.2606972  54.4970757 104.0924440 107.4281375  55.3650993 104.4594911
 107.0704141  54.6598038 103.1685729 103.4694787  59.4101533 111.7926975
 102.5445283  59.2777747 112.0004666 103.7179200  60.1895752 112.2896917
 107.2396193  56.9528414 105.0771107 107.1195818  57.3985465 105.9156587
 106.5448782  57.3013732 104.5184645 100.8303598  59.0534806 112.6270764
 100.9595979  59.3069285 113.5410175 100.1501049  59.6462514 112.3075419
 112.9381259  57.4249887 105.9051441 113.8499115  57.6577274 105.7299138
 112.4290906  58.0086932 105.3426519 107.0978804  62.1450114 110.5615107
 107.5617149  62.4237817 109.7719730 106.8335602  61.2433559 110.3788198
 106.0347690  58.2673266 107.3704672 106.7371733  58.7194310 107.8378599
 105.7028318  57.6257085 107.9984566  99.7773024  56.5256819 112.6721806
  98.9872078  56.7814348 112.1961917 100.2684271  57.3405157 112.7773847
 101.7287769  56.8901398 109.6305283 100.9318932  57.0020093 110.1488778
 101.5013361  57.2288050 108.7646173  98.0610727  56.7787309 115.1036797
  98.3118765  57.6634319 115.3694373  98.5970275  56.5991911 114.3311889
 107.2741454  65.0814209 107.4466778 107.1387129  65.9265745 107.8751625
 107.8151267  65.2833487 106.6832711 100.7270852  62.5989647 108.0194703
 101.2395372  63.3932897 108.1700267 101.3793564  61.9015937 107.9528304
  98.6919768  60.9278301 108.7954273  99.5294990  61.3375310 108.5787981
  98.8698036  59.9877743 108.7654467 110.5884201  58.5953382 104.4838106
 110.0730824  59.3657987 104.7226494 110.3161509  57.9218518 105.1071168
 108.1731312  53.4403083 109.5423345 107.3172908  53.0509933 109.3628983
 108.5858263  53.5195044 108.6823130 115.5618475  61.3485737 106.4191280
 114.7847917  61.0096896 105.9746442 116.2409956  61.3538360 105.7446245
 110.3770504  56.4680474 106.3097887 110.0720639  56.7826623 107.1608031
 111.3300946  56.5461894 106.3525220 108.8216936  62.6270697 107.9590841
 108.2938297  61.8923457 107.6464079 108.3204438  63.4045374 107.7130810
 103.5535663  53.2890364 110.3197453 104.1279415  53.0665545 109.5870646
 104.1406646  53.3579058 111.0726054 103.8805250  55.3194825 104.3393338
 103.0442563  55.6569511 104.6602613 103.7410020  55.1843804 103.4020475
 105.8558331  50.1631613 109.0472522 105.2022743  49.8480630 108.4229137
 105.8138805  49.5407353 109.7732345 106.9669536  60.4450908 100.9625814
 106.0596597  60.2140161 101.1616963 107.4640568  59.6488527 101.1499796
 109.8737615  69.1548415 103.8822501 109.1999313  69.4580112 104.4907458
 110.2603437  69.9577495 103.5327958 109.8731119  58.0504962 108.5022850
 110.6202938  58.5626359 108.1929972 110.1422709  57.7289015 109.3627244
 108.1457769  60.5463503 105.4849804 107.2368988  60.2622535 105.5822274
 108.1752853  60.9662581 104.6253111  98.7145940  58.2669017 109.4665007
  98.5170339  57.6738377 108.7416073  98.1592604  57.9621227 110.1840945
 106.6942663  58.1592123 111.5859600 106.7491273  57.2065960 111.5102076
 105.8833865  58.3151562 112.0700898 107.8433857  62.0872246 102.8237883
 107.4053287  61.3708105 102.3643520 108.5844298  62.3148361 102.2622974
 104.6335023  56.7769183 109.3449979 103.8202889  57.0763353 109.7515171
 105.1294017  56.3824872 110.0624461 104.1249098  54.3487538 114.9611214
 104.7648477  54.2076297 114.2634177 103.2926628  54.0622052 114.5849816
 101.2092165  57.7933051 107.1505959 100.2789753  57.7317506 107.3675921
 101.3049637  57.2709003 106.3542600 101.1277714  54.3187863 109.7384200
 101.3884532  55.2333197 109.6293361 101.9494887  53.8512306 109.8880813
 111.9645085  60.9456628 102.4169941 111.3474255  60.2203456 102.3202993
 111.4961573  61.7065988 102.0737015 103.7543630  55.1642052 101.5391245
 102.8773097  55.0430853 101.1753492 104.2301384  54.3728130 101.2870134
  95.2745771  59.9519212 111.6332752  95.9616810  59.6380942 111.0453767
  95.1193899  60.8560576 111.3600004 100.0780493  54.8409408 116.0617776
  99.9938682  54.2335078 115.3268186  99.2563199  55.3318427 116.0627272
 106.8339175  55.4680355 111.1559655 106.4636963  54.9151395 111.8440561
 107.3298268  54.8638488 110.6034655  94.8513747  58.0319805 113.9050219
  94.8897846  57.4983396 114.6987337  94.3454040  57.5055011 113.2861196
  98.4822324  56.7583907 106.9804151  98.7775765  55.8494586 106.9271204
  97.5810360  56.7371647 106.6585153 102.0116571  54.8339904 112.9631699
 101.2903157  55.4475872 112.8239173 102.8009827  55.3697669 112.8848345
 100.2110166  54.4398005 107.1043476  99.8822872  53.5595384 106.9218582
 100.5649537  54.3845674 107.9919865 103.3251989  54.7270975 107.4718953
 103.6648062  55.2556896 106.7497562 103.7724110  55.0651381 108.2477520
 105.3120136  53.2245596 105.6712246 106.0328499  53.6026849 105.1675963
 104.6885440  53.9434473 105.7747224 109.4551259  53.9290745 106.6070579
 109.6714873  54.8115383 106.3059407 108.9745326  53.5376959 105.8776221
 104.1950480  56.8876459 113.1841323 104.0495061  57.2016762 114.0765605
 103.7175684  57.5061359 112.6312222 105.4583759  52.7593387 108.5009783
 105.5799670  51.8310033 108.7000670 105.1685802  52.7732073 107.5888098
  99.9018778  66.4417128 111.0469536 100.7276798  66.1420900 110.6668179
  99.5512830  65.6724750 111.4959324  98.1027383  64.3603454 112.0058469
  97.2659292  63.9325629 111.8242471  98.0751029  64.5535898 112.9429261
 104.4313818  64.3447520 106.5925670 104.5801939  65.0282984 105.9392343
 105.2380262  64.3252610 107.1075126 102.1866451  60.3712697 107.5986739
 101.9412493  59.4675027 107.7966949 102.3562366  60.3729848 106.6566217
 101.4562099  56.1041055 105.0972900 100.7631344  56.1785410 104.4412936
 101.2113851  55.3401398 105.6194417 107.9309224  66.8395650 104.0637417
 107.3583191  67.4585837 103.6107889 108.5042017  67.3895012 104.5977339
 111.1506484  67.1232800 105.1946000 112.0837157  67.0578362 105.3978875
 111.0629696  67.9589067 104.7360532 113.7794500  66.4398670 102.1549947
 113.7008132  66.1058534 103.0485705 114.6004167  66.9320438 102.1541420
 108.3156022  58.1756463 101.4053470 109.2615127  58.0462671 101.4741888
 107.9370267  57.4371125 101.8822898 106.4998939  56.1006439 101.3408355
 105.5930395  55.8039552 101.4171069 106.7774920  55.8036257 100.4742641
  97.4176880  57.4212803 111.7907401  97.0979664  56.5678111 111.4981775
  96.8710308  57.6361381 112.5465369 108.1161005  50.6443329 107.4952596
 107.3061733  50.2990414 107.8707842 108.8045422  50.3350873 108.0840208
 105.2697724  52.9593374 101.4820334 106.1316888  53.2848273 101.7416152
 105.4548068  52.1724870 100.9693400  97.2865140  61.0415714 113.7600523
  96.5928611  60.6269667 113.2470477  98.0338131  61.0836251 113.1633942
  99.2001882  60.9733968 111.6366538  99.1772570  61.0721655 110.6848421
  99.5102519  61.8199119 111.9583704 112.2055239  53.9921991 107.6811906
 111.3181094  54.2771642 107.4632100 112.6209228  53.8315755 106.8339182
 111.3498452  63.7566666 101.7759926 112.0534302  63.9616668 102.3917581
 110.6261101  64.3243428 102.0409009 112.1796262  59.5076527 107.8962196
 112.1231464  59.9645079 107.0569828 112.7324605  58.7467212 107.7185038
 113.2585149  64.1949195 103.8258386 114.0930753  63.7630394 103.6435860
 113.0969492  64.0231209 104.7535280 112.9131042  60.6981308 105.1914725
 112.8579845  60.5325580 104.2503169 112.2877097  61.4057341 105.3476915
 106.2227167  50.1989417 104.7700043 106.2105837  51.1431257 104.9268314
 107.1150589  50.0159563 104.4759504 114.5937385  70.4933970 101.5391245
 113.7166851  70.3722771 101.1753492 115.0695138  69.7020048 101.2870134
 116.1091479  68.2885292 101.4820334 116.9710643  68.6140190 101.7416152
 116.2941823  67.5016788 100.9693400  70.1208653   3.4903820  99.5954747
  70.3605251   4.1222344 100.2733765  69.2777849   3.1391860  99.8820106
  82.0364684   7.5368120  96.5717285  81.4729549   7.4458057  95.8033572
  81.9217079   6.7168025  97.0519777  79.5829116   9.0319312  99.4101505
  80.3750408   8.6910137  98.9947804  79.8225766   9.1414287 100.3303658
  87.6164243  11.2039088  91.8831750  86.9652223  11.7893168  91.4965763
  88.4108606  11.7345283  91.9426787  81.5419870   8.2928225  92.2818884
  82.3150746   7.7457212  92.1431760  81.8945269   9.1572474  92.4933345
  83.3804913   9.6204607 105.4885783  83.0894779  10.5250238 105.3732449
  84.0161897   9.6621135 106.2029853  84.3061120   6.9981456 102.0787143
  84.9024692   6.7737478 101.3644106  84.3636091   6.2566201 102.6812591
  89.0939508   8.8929520  92.4200734  88.4585341   8.9664146  93.1321638
  88.7636915   9.4823119  91.7419813  83.5982437   6.3548997  92.1161709
  83.4818695   5.6793901  92.7842793  83.7084697   5.8681371  91.2993862
  81.7907279   5.7579820  98.5172281  80.8657776   5.6256034  98.7249973
  82.0391692   6.5374039  99.0142224  79.1516090   5.4013093  99.3516070
  79.2808471   5.6547572 100.2655482  78.4713542   5.9940801  99.0320725
  83.3215578  16.0710343  95.4506545  83.2439607  17.0218168  95.5295025
  82.7177221  15.7256216  96.1081471  89.8663334   8.7553993 100.0210329
  89.2372196   8.9199707  99.3186397  89.4788996   9.1695603 100.7921293
  93.7452566   9.6908431  97.3754693  93.0603604  10.0707332  96.8251726
  93.8296415  10.3003758  98.1086640  85.4191296   8.4928401  97.2860414
  85.8829641   8.7716104  96.4965036  85.1548094   7.5911846  97.1033505
  82.3115377   8.0399883 100.2240177  82.8816734   8.4687151  99.5857662
  82.9023489   7.7582467 100.9224363  85.8805929   9.7624389 104.3033104
  85.9450361  10.2244796 105.1391276  85.1716853   9.1321754 104.4315414
  85.5953947  11.4292496  94.1712084  85.4599621  12.2744032  94.5996932
  86.1363759  11.6311774  93.4078018  79.0483344   8.9467934  94.7440009
  79.5607864   9.7411185  94.8945574  79.7006057   8.2494225  94.6773611
  80.8578229  12.0633691  96.8262763  81.0344857  12.9851655  96.6383746
  81.6535062  11.7492110  97.2557142  81.9809544  13.5811864 102.8273105
  82.5316969  13.4528928 102.0550099  81.1421020  13.8806753 102.4767998
  77.0132261   7.2756589  95.5199580  77.8507483   7.6853597  95.3033288
  77.1910528   6.3356031  95.4899774  87.1429428   8.9748985  94.6836148
  86.6150789   8.2401744  94.3709385  86.6416931   9.7523661  94.4376116
  88.1950107  15.5026702  90.6067807  87.5211806  15.8058399  91.2152765
  88.5815929  16.3055782  90.2573264  86.4670261   6.8941790  92.2095111
  85.5581481   6.6100823  92.3067581  86.4965345   7.3140868  91.3498418
  91.6989529  10.5048379  95.9786279  91.2451856   9.6639289  96.0351469
  91.0683496  11.1409778  96.3161059  90.1422468  12.3424876  96.9136097
  90.4345442  12.9029933  96.1948462  90.6521089  12.6353437  97.6689256
  77.0358432   4.6147304  96.1910313  76.8382832   4.0216665  95.4661380
  76.4805096   4.3099514  96.9086252  86.1646349   8.4350533  89.5483190
  85.7265779   7.7186392  89.0888827  86.9056790   8.6626648  88.9868281
  85.1056093  13.1205227  98.0029550  85.0632272  13.3466073  97.0738082
  86.0218792  12.8868602  98.1515351  83.2221894   9.9968256  97.7991513
  84.0162493   9.5018576  97.5974088  82.5113586   9.4686119  97.4359218
  88.0416739  12.3786352 102.1503880  88.0953761  12.9477288 102.9181596
  87.1731520  12.5488237 101.7857918  85.7993170  10.5697278 101.4789350
  85.6604256  10.2016062 102.3515288  85.0107766  11.0844917 101.3073308
  86.3941322  15.6706374  92.8214886  86.5693078  15.1994418  93.6360509
  85.7074110  16.2972141  93.0496147  87.3498385   9.9478881  98.8678188
  87.0148218   9.9079651  99.7635838  86.8502331   9.2823597  98.3948598
  80.9602407  18.8195737  99.5954747  81.1999006  19.4514261 100.2733765
  80.1171604  18.4683777  99.8820106  73.5958263   6.2997499  98.3578059
  74.2829303   5.9859229  97.7699074  73.4406392   7.2038864  98.0845310
  85.4730269  14.6274860 101.9996251  85.4000441  15.4329831 102.5115555
  85.0307662  14.8266826 101.1744272  85.2620049  13.8646630  95.5099072
  84.4787571  14.4068310  95.6037297  85.9612794  14.3820609  95.9093313
  87.9328953  14.5261694 104.1554409  88.6456925  15.1609159 104.0830311
  87.4418981  14.6225560 103.3394411  82.9840866  12.2756137 104.9759980
  83.6850326  12.9092620 105.1289374  82.5135981  12.6170869 104.2155619
  91.1095262  10.6174087  93.2607887  91.3855106  10.5030682  94.1701761
  90.2399761  10.2191572  93.2220060  87.7449326  14.8660438  96.9040701
  87.9271721  14.0482094  97.3668453  88.5682312  15.0828130  96.4665591
  88.0791492  13.7928623  94.1655749  88.6079258  13.2821078  93.5525911
  88.3419711  13.4771153  95.0301282  78.5808584  11.8092492 101.9091083
  79.1662021  11.0636180 102.0418987  78.3833423  12.1196449 102.7927747
  81.4347240  14.8443740  96.9253525  80.7657615  15.3289867  96.4417565
  81.2960109  15.0912960  97.8396904  73.1726239   4.3798092 100.6295526
  73.2110339   3.8461683 101.4232644  72.6666532   3.8533298 100.0106503
  85.5752508  16.8787483 103.5236183  86.1270816  17.0419105 104.2885269
  85.9158702  17.4691921 102.8516208  88.7120895  14.8269459 100.5099866
  88.5872035  14.0259199 100.0010811  89.3699986  15.3215652 100.0213836
  90.7755804  12.6278479 102.1379416  89.8286139  12.5083830 102.0657742
  91.1238577  11.7400977 102.2205677  87.7802237  12.4231195  98.3383768
  87.6327199  11.4947902  98.5191338  88.6055731  12.4451286  97.8540843
  91.3836359  13.2459754  99.4248641  92.3082906  13.0402615  99.2873092
  91.2151662  12.9976155 100.3337982  91.1731675  13.7645421  94.7810732
  91.3468553  13.1991844  94.0284585  91.6660566  14.5646316  94.5990222
  76.9908635   5.7760090 102.8474291  76.4462103   6.5519898 102.9794565
  77.8687985   6.1230895 102.6893412  92.1606848  13.0812186  91.8807630
  92.8557752  13.7018878  92.0994945  92.5029998  12.2307537  92.1560008
  77.7774657   4.9029987 105.7404448  77.0356393   5.0512622 106.3269078
  77.4567401   5.1638252 104.8771197  94.0598271  10.5311891  93.4094961
  94.5849595  10.8699164  92.6844281  93.9720623   9.5958906  93.2258096
  85.7218319  14.4445965 105.5384838  86.0305446  14.1995112 106.4107537
  86.5193801  14.6492603 105.0503708  85.7438931  16.5983874  97.7690214
  85.3043922  16.1060253  98.4623071  86.4947048  16.0556842  97.5282290
  78.2231270  12.7895415  97.7714842  79.0489290  12.4899187  97.3913486
  77.8725322  12.0203038  98.2204631  83.1912804  12.1421883  99.8412516
  82.5692813  11.4792588  99.5414744  83.8617671  12.1683015  99.1586164
  76.4239876  10.7081742  98.7303776  75.5871784  10.2803916  98.5487777
  76.3963521  10.9014185  99.6674567  82.7526311  10.6925807  93.3170977
  82.9014431  11.3761271  92.6637649  83.5592754  10.6730897  93.8320432
  80.5078944   6.7190984  94.3232045  80.2624985   5.8153314  94.5212256
  80.6774858   6.7208135  93.3811523  86.2521716  13.1873937  90.7882724
  85.6795683  13.8064124  90.3353196  86.8254510  13.7373299  91.3222646
  89.4718976  13.4711087  91.9191306  90.4049649  13.4056649  92.1224182
  89.3842189  14.3067354  91.4605839  92.1006993  12.7876958  88.8795254
  92.0220624  12.4536821  89.7731012  92.9216659  13.2798726  88.8786726
  75.7389372   3.7691090  98.5152708  75.4192156   2.9156398  98.2227082
  75.1922800   3.9839668  99.2710675  79.5169280   6.4853531 102.2322215
  79.7355289   7.4170639 102.2510248  79.9295053   6.1261505 103.0177018
  75.6077632   7.3894001 100.4845830  74.9141104   6.9747954  99.9715784
  76.3550623   7.4314538  99.8879249  77.5214375   7.3212255  98.3611845
  77.4985063   7.4199942  97.4093728  77.8315011   8.1677406  98.6829011
  80.1801753   9.3788410 102.4758459  81.1345006   9.3472352 102.4088391
  79.9814276   8.9179034 103.2908685  80.7701135   7.9489526 105.0429257
  81.5894024   8.4433605 105.0664094  81.0437942   7.0321494 105.0146824
  78.5351981  14.9208030  99.4928657  78.4006449  14.1608430  98.9266655
  78.1184044  15.6448929  99.0257446  89.6710944  10.1044953  88.5005232
  90.3746794  10.3094956  89.1162888  88.9473593  10.6721715  88.7654316
  81.6921107  15.8177347  99.7047100  81.5753491  16.7622779  99.6025790
  80.8713553  15.5150908 100.0932899  91.5797642  10.5427482  90.5503692
  92.4143246  10.1108681  90.3681167  91.4181985  10.3709496  91.4780587
  82.7175621  16.4705608 102.9203028  83.6202868  16.5029219 103.2369523
  82.4912991  15.5406059 102.9349364  84.4729223  15.2236595  99.5813107
  83.5224854  15.2238457  99.4677479  84.7761709  14.4769330  99.0649141
  97.0171623  21.0124562 100.5820394  96.6790135  20.8965626  99.6940929
  97.8861391  20.6115727 100.5621400  92.8758439  22.8660038  96.5717285
  92.3123304  22.7749975  95.8033572  92.7610834  22.0459942  97.0519777
  90.4222871  24.3611230  99.4101505  91.2144163  24.0202054  98.9947804
  90.6619521  24.4706205 100.3303658  98.4557998  26.5331006  91.8831750
  97.8045977  27.1185086  91.4965763  99.2502360  27.0637201  91.9426787
  92.3813625  23.6220143  92.2818884  93.1544501  23.0749130  92.1431760
  92.7339024  24.4864392  92.4933345  94.2198667  24.9496525 105.4885783
  93.9288533  25.8542156 105.3732449  94.8555652  24.9913053 106.2029853
  95.1454874  22.3273374 102.0787143  95.7418446  22.1029396 101.3644106
  95.2029846  21.5858119 102.6812591  94.7179902  19.7812809  89.9137334
  94.9705423  19.2594330  89.1520797  93.7804462  19.6178954  90.0164017
  99.7623185  18.7848587  97.7212077 100.5486275  18.3668010  97.3702494
 100.0261890  19.6894679  97.8893725  99.9333263  24.2221438  92.4200734
  99.2979096  24.2956064  93.1321638  99.6030669  24.8115036  91.7419813
  94.4376191  21.6840915  92.1161709  94.3212449  21.0085818  92.7842793
  94.5478451  21.1973289  91.2993862  96.7807732  21.1451062  95.8208398
  96.4165939  20.6181683  96.5321319  97.6374848  20.7549531  95.6474883
  96.4213219  16.1740962  90.8169746  96.5887621  17.0421198  91.1840218
  96.2310388  16.3368243  89.8931036  92.6301034  21.0871737  98.5172281
  91.7051530  20.9547952  98.7249973  92.8785447  21.8665957  99.0142224
  96.4002440  18.6298619  91.8016413  96.2802065  19.0755670  92.6401894
  95.7055028  18.9783937  91.2429951  89.9909845  20.7305011  99.3516070
  90.1202226  20.9839490 100.2655482  89.3107296  21.3232719  99.0320725
  94.1609332  31.4002261  95.4506545  94.0833362  32.3510086  95.5295025
  93.5570976  31.0548133  96.1081471 102.0987506  19.1020092  92.6296747
 103.0105362  19.3347479  92.4544445 101.5897153  19.6857137  92.0671826
 100.7057088  24.0845911 100.0210329 100.0765951  24.2491625  99.3186397
 100.3182751  24.4987520 100.7921293 104.5846320  25.0200349  97.3754693
 103.8997359  25.3999250  96.8251726 104.6690170  25.6295675  98.1086640
  96.2585050  23.8220319  97.2860414  96.7223396  24.1008022  96.4965036
  95.9941848  22.9203763  97.1033505  93.1509131  23.3691800 100.2240177
  93.7210488  23.7979069  99.5857662  93.7417243  23.0874385 100.9224363
  95.1953936  19.9443471  94.0949979  95.8977980  20.3964515  94.5623905
  94.8634565  19.3027290  94.7229872  88.9379270  18.2027024  99.3967113
  88.1478324  18.4584552  98.9207223  89.4290518  19.0175362  99.5019153
  90.8894016  18.5671603  96.3550589  90.0925179  18.6790297  96.8734085
  90.6619608  18.9058255  95.4891480  96.7199683  25.0916306 104.3033104
  96.7844116  25.5536714 105.1391276  96.0110607  24.4613671 104.4315414
  87.2216973  18.4557514 101.8282103  87.4725012  19.3404524 102.0939679
  87.7576522  18.2762116 101.0557195  96.4347701  26.7584414  94.1712084
  96.2993376  27.6035950  94.5996932  96.9757514  26.9603692  93.4078018
  89.8877098  24.2759852  94.7440009  90.4001619  25.0703102  94.8945574
  90.5399811  23.5786142  94.6773611  91.6971983  27.3925608  96.8262763
  91.8738611  28.3143573  96.6383746  92.4928817  27.0784027  97.2557142
  92.8203299  28.9103782 102.8273105  93.3710724  28.7820845 102.0550099
  91.9814774  29.2098671 102.4767998  87.8526015  22.6048506  95.5199580
  88.6901237  23.0145515  95.3033288  88.0304283  21.6647948  95.4899774
  99.7490447  20.2723587  91.2083413  99.2337071  21.0428192  91.4471800
  99.4767756  19.5988723  91.8316474  97.3337558  15.1173288  96.2668651
  96.4779155  14.7280138  96.0874290  97.7464510  15.1965248  95.4068437
 104.7224721  23.0255942  93.1436586 103.9454164  22.6867101  92.6991748
 105.4016202  23.0308565  92.4691551  99.5376750  18.1450679  93.0343194
  99.2326886  18.4596828  93.8853337 100.4907193  18.2232099  93.0770527
  97.9823182  24.3040902  94.6836148  97.4544544  23.5693662  94.3709385
  97.4810685  25.0815579  94.4376116  92.7141910  14.9660569  97.0442760
  93.2885662  14.7435750  96.3115952  93.3012892  15.0349263  97.7971361
 101.7721487  20.8534295  97.8507136 102.2853369  21.4864287  98.3528846
 102.4222711  20.2535491  97.4850496  93.0411497  16.9965030  91.0638645
  92.2048809  17.3339716  91.3847920  92.9016267  16.8614009  90.1265782
  95.0164578  11.8401817  95.7717829  94.3628990  11.5250835  95.1474444
  94.9745052  11.2177558  96.4977652  96.1275782  22.1221113  87.6871121
  95.2202844  21.8910366  87.8862270  96.6246814  21.3258732  87.8745103
  99.0343861  30.8318620  90.6067807  98.3605560  31.1350316  91.2152765
  99.4209683  31.6347700  90.2573264  98.2502318  18.3283751 100.0965477
  97.3324879  18.5498698  99.9387165  98.6662462  18.4030061  99.2377184
  99.0337366  19.7275167  95.2268157  99.7809185  20.2396564  94.9175279
  99.3028955  19.4059219  96.0872550  97.3064016  22.2233707  92.2095111
  96.3975235  21.9392740  92.3067581  97.3359100  22.6432786  91.3498418
 102.5383283  25.8340297  95.9786279 102.0845610  24.9931207  96.0351469
 101.9077250  26.4701695  96.3161059 100.9816223  27.6716794  96.9136097
 101.2739197  28.2321851  96.1948462 101.4914843  27.9645355  97.6689256
  87.8752186  19.9439222  96.1910313  87.6776586  19.3508582  95.4661380
  87.3198850  19.6391432  96.9086252  95.8548910  19.8362328  98.3104906
  95.9097520  18.8836164  98.2347383  95.0440112  19.9921767  98.7946205
  97.0040104  23.7642451  89.5483190  96.5659534  23.0478310  89.0888827
  97.7450545  23.9918566  88.9868281  93.7941270  18.4539388  96.0695285
  92.9809135  18.7533558  96.4760477  94.2900264  18.0595077  96.7869768
  95.9449848  28.4497145  98.0029550  95.9026027  28.6757991  97.0738082
  96.8612547  28.2160519  98.1515351 105.1213219  22.0399648  95.6059508
 104.9831117  22.2301244  94.6780697 104.7649437  22.8019031  96.0627559
  93.2855345  16.0257743 101.6856520  93.9254724  15.8846502 100.9879484
  92.4532875  15.7392257 101.3095122  94.0615649  25.3260174  97.7991513
  94.8556247  24.8310494  97.5974088  93.3507341  24.7978037  97.4359218
  98.8810493  27.7078269 102.1503880  98.9347515  28.2769206 102.9181596
  98.0125274  27.8780154 101.7857918  90.3698412  19.4703255  93.8751265
  89.4396000  19.4087711  94.0921228  90.4655884  18.9479208  93.0787907
  90.2883961  15.9958068  96.4629507  90.5490778  16.9103402  96.3538668
  91.1101133  15.5282511  96.6126120  91.7608886  17.4095825 103.6328332
  92.4331940  17.2013188 102.9840981  90.9338673  17.2117911 103.1933564
  96.6386925  25.8989196 101.4789350  96.4998010  25.5307980 102.3515288
  95.8501521  26.4136835 101.3073308  97.2335077  30.9998292  92.8214886
  97.4086832  30.5286335  93.6360509  96.5467865  31.6264058  93.0496147
  98.1892140  25.2770798  98.8678188  97.8541972  25.2371568  99.7635838
  97.6896085  24.6115514  98.3948598  92.1636384  20.6838428 104.3930769
  92.0256182  19.9518667 104.9942308  93.0741307  20.5947329 104.1114957
 101.1251331  22.6226833  89.1415247 100.5080502  21.8973661  89.0448300
 100.6567820  23.3836193  88.7982322  91.7996162  34.1487655  99.5954747
  92.0392760  34.7806179 100.2733765  90.9565358  33.7975695  99.8820106
  92.9149877  16.8412257  88.2636552  92.0379344  16.7201058  87.8998798
  93.3907630  16.0498335  88.0115440  84.4352017  21.6289417  98.3578059
  85.1223057  21.3151147  97.7699074  84.2800146  22.5330781  98.0845310
  89.2386740  16.5179613 102.7863082  89.1544928  15.9105283 102.0513492
  88.4169446  17.0088632 102.7872579  96.3124024  29.9566777 101.9996251
  96.2394195  30.7621749 102.5115555  95.8701417  30.1558743 101.1744272
  96.1013803  29.1938547  95.5099072  95.3181325  29.7360228  95.6037297
  96.8006548  29.7112527  95.9093313  98.7722707  29.8553611 104.1554409
  99.4850679  30.4901076 104.0830311  98.2812736  29.9517477 103.3394411
 100.4940234  23.7604864  95.7271701  99.5596513  23.8806327  95.5576405
 100.6716903  22.8577331  95.4631711  95.9945422  17.1450560  97.8804962
  95.6243210  16.5921600  98.5685868  96.4904515  16.5408693  97.3279962
  93.8234621  27.6048055 104.9759980  94.5244080  28.2384538 105.1289374
  93.3529736  27.9462786 104.2155619 101.9489017  25.9466005  93.2607887
 102.2248860  25.8322599  94.1701761 101.0793515  25.5483490  93.2220060
  98.5843081  30.1952355  96.9040701  98.7665475  29.3774011  97.3668453
  99.4076067  30.4120048  96.4665591  98.9185246  29.1220541  94.1655749
  99.4473012  28.6112995  93.5525911  99.1813466  28.8063071  95.0301282
  89.4202339  27.1384410 101.9091083  90.0055776  26.3928098 102.0418987
  89.2227177  27.4488367 102.7927747  92.2740994  30.1735657  96.9253525
  91.6051369  30.6581785  96.4417565  92.1353864  30.4204878  97.8396904
  84.0119994  19.7090010 100.6295526  84.0504093  19.1753601 101.4232644
  83.5060286  19.1825216 100.0106503  96.4146263  32.2079401 103.5236183
  96.9664571  32.3711022 104.2885269  96.7552456  32.7983839 102.8516208
  87.6428571  18.4354112  93.7049457  87.9382012  17.5264791  93.6516511
  86.7416607  18.4141852  93.3830460  99.5514650  30.1561376 100.5099866
  99.4265789  29.3551116 100.0010811 100.2093741  30.6507570 100.0213836
  91.1722818  16.5110109  99.6877006  90.4509404  17.1246077  99.5484479
  91.9616074  17.0467874  99.6093652 101.6149558  27.9570396 102.1379416
 100.6679894  27.8375748 102.0657742 101.9632331  27.0692894 102.2205677
  89.3716413  16.1168210  93.8288782  89.0429119  15.2365589  93.6463888
  89.7255783  16.0615879  94.7165172  98.6195992  27.7523113  98.3383768
  98.4720954  26.8239820  98.5191338  99.4449485  27.7743203  97.8540843
  92.4858236  16.4041180  94.1964260  92.8254308  16.9327101  93.4742868
  92.9330356  16.7421586  94.9722827 102.2230113  28.5751671  99.4248641
 103.1476661  28.3694533  99.2873092 102.0545417  28.3268073 100.3337982
  94.4726383  14.9015801  92.3957553  95.1934745  15.2797054  91.8921270
  93.8491687  15.6204678  92.4992531  98.6157506  15.6060950  93.3315885
  98.8321120  16.4885588  93.0304713  98.1351573  15.2147164  92.6021527
  93.3556727  18.5646664  99.9086630  93.2101308  18.8786967 100.8010911
  92.8781931  19.1831564  99.3557528 102.0125430  29.0937339  94.7810732
 102.1862307  28.5283761  94.0284585 102.5054321  29.8938234  94.5990222
  87.8302389  21.1052008 102.8474291  87.2855857  21.8811816 102.9794565
  88.7081739  21.4522812 102.6893412  94.6190006  14.4363592  95.2255089
  94.7405917  13.5080238  95.4245977  94.3292048  14.4502278  94.3133405
 103.0000602  28.4104103  91.8807630 103.6951507  29.0310796  92.0994945
 103.3423752  27.5599454  92.1560008  88.6168411  20.2321904 105.7404448
  87.8750147  20.3804540 106.3269078  88.2961156  20.4930170 104.8771197
 104.8992025  25.8603809  93.4094961 105.4243349  26.1991082  92.6844281
 104.8114378  24.9250824  93.2258096  96.5612074  29.7737882 105.5384838
  96.8699200  29.5287029 106.4107537  97.3587556  29.9784521 105.0503708
  96.5832686  31.9275792  97.7690214  96.1437676  31.4352171  98.4623071
  97.3340803  31.3848760  97.5282290  89.0625025  28.1187333  97.7714842
  89.8883045  27.8191105  97.3913486  88.7119077  27.3494955  98.2204631
  94.0306558  27.4713801  99.8412516  93.4086567  26.8084506  99.5414744
  94.7011425  27.4974933  99.1586164  87.2633630  26.0373659  98.7303776
  86.4265538  25.6095834  98.5487777  87.2357275  26.2306103  99.6674567
  93.5920065  26.0217724  93.3170977  93.7408185  26.7053189  92.6637649
  94.3986508  26.0022815  93.8320432  91.3472698  22.0482902  94.3232045
  91.1018740  21.1445232  94.5212256  91.5168613  22.0500053  93.3811523
  90.6168346  17.7811260  91.8218207  89.9237590  17.8555615  91.1658243
  90.3720097  17.0171603  92.3439724  97.0915471  28.5165855  90.7882724
  96.5189438  29.1356042  90.3353196  97.6648264  29.0665217  91.3222646
 100.3112730  28.8003005  91.9191306 101.2443403  28.7348567  92.1224182
 100.2235943  29.6359272  91.4605839 102.9400747  28.1168875  88.8795254
 102.8614379  27.7828739  89.7731012 103.7610414  28.6090643  88.8786726
  97.4762269  19.8526668  88.1298776  98.4221374  19.7232876  88.1987195
  97.0976514  19.1141330  88.6068205  95.6605186  17.7776644  88.0653662
  94.7536642  17.4809757  88.1416375  95.9381167  17.4806462  87.1987948
  86.5783127  19.0983007  98.5152708  86.2585911  18.2448316  98.2227082
  86.0316555  19.3131586  99.2710675  90.3563034  21.8145448 102.2322215
  90.5749044  22.7462556 102.2510248  90.7688808  21.4553423 103.0177018
  97.2767252  12.3213534  94.2197903  96.4667980  11.9760619  94.5953149
  97.9651669  12.0121078  94.8085515  94.4303971  14.6363579  88.2065641
  95.2923135  14.9618478  88.4661458  94.6154315  13.8495075  87.6938707
  86.4471387  22.7185919 100.4845830  85.7534858  22.3039872  99.9715784
  87.1944378  22.7606455  99.8879249  88.3608129  22.6504173  98.3611845
  88.3378817  22.7491860  97.4093728  88.6708766  23.4969324  98.6829011
  91.0195507  24.7080328 102.4758459  91.9738761  24.6764270 102.4088391
  90.8208031  24.2470952 103.2908685  91.6094889  23.2781444 105.0429257
  92.4287778  23.7725522 105.0664094  91.8831697  22.3613412 105.0146824
 101.3661485  15.6692196  94.4057212 100.4787340  15.9541847  94.1877407
 101.7815474  15.5085960  93.5584489  89.3745736  30.2499947  99.4928657
  89.2400204  29.4900348  98.9266655  88.9577798  30.9740847  99.0257446
 100.5104699  25.4336871  88.5005232 101.2140549  25.6386873  89.1162888
  99.7867348  26.0013633  88.7654316 101.3402509  21.1846732  94.6207502
 101.2837710  21.6415283  93.7815135 101.8930852  20.4237417  94.4430345
  92.5314862  31.1469264  99.7047100  92.4147246  32.0914697  99.6025790
  91.7107308  30.8442826 100.0932899 102.4191396  25.8719400  90.5503692
 103.2537000  25.4400598  90.3681167 102.2575739  25.7001414  91.4780587
 102.0737288  22.3751513  91.9160032 102.0186092  22.2095785  90.9748476
 101.4483344  23.0827546  92.0722221  86.8629803  17.6119578 105.7421454
  87.5088667  17.1018532 106.2308679  86.6546954  18.3488259 106.3164879
  95.3833414  11.8759622  91.4945350  95.3712084  12.8201462  91.6513621
  96.2756836  11.6929768  91.2004811  93.5569376  31.7997526 102.9203028
  94.4596622  31.8321136 103.2369523  93.3306746  30.8697977 102.9349364
  95.3122978  30.5528513  99.5813107  94.3618609  30.5530374  99.4677479
  95.6155464  29.8061247  99.0649141 107.8565378  36.3416479 100.5820394
 107.5183889  36.2257544  99.6940929 108.7255146  35.9407644 100.5621400
 103.7152193  38.1951956  96.5717285 103.1517058  38.1041893  95.8033572
 103.6004588  37.3751860  97.0519777 101.2616625  39.6903147  99.4101505
 102.0537917  39.3493972  98.9947804 101.5013275  39.7998122 100.3303658
 109.2951752  41.8622923  91.8831750 108.6439732  42.4477004  91.4965763
 110.0896115  42.3929118  91.9426787 103.2207379  38.9512060  92.2818884
 103.9938255  38.4041048  92.1431760 103.5732778  39.8156310  92.4933345
 105.0592422  40.2788443 105.4885783 104.7682288  41.1834074 105.3732449
 105.6949406  40.3204970 106.2029853 105.9848629  37.6565291 102.0787143
 106.5812201  37.4321314 101.3644106 106.0423600  36.9150037 102.6812591
 105.5573657  35.1104727  89.9137334 105.8099178  34.5886248  89.1520797
 104.6198216  34.9470872  90.0164017 110.6016940  34.1140505  97.7212077
 111.3880029  33.6959928  97.3702494 110.8655644  35.0186597  97.8893725
 110.7727017  39.5513355  92.4200734 110.1372850  39.6247982  93.1321638
 110.4424424  40.1406954  91.7419813 105.2769946  37.0132833  92.1161709
 105.1606204  36.3377736  92.7842793 105.3872206  36.5265206  91.2993862
 107.6201487  36.4742980  95.8208398 107.2559694  35.9473601  96.5321319
 108.4768603  36.0841449  95.6474883 107.2606974  31.5032879  90.8169746
 107.4281376  32.3713116  91.1840218 107.0704143  31.6660161  89.8931036
 103.4694788  36.4163655  98.5172281 102.5445285  36.2839869  98.7249973
 103.7179201  37.1957874  99.0142224 107.2396194  33.9590537  91.8016413
 107.1195820  34.4047588  92.6401894 106.5448783  34.3075855  91.2429951
 100.8303599  36.0596929  99.3516070 100.9595980  36.3131408 100.2655482
 100.1501051  36.6524637  99.0320725 105.0003087  46.7294179  95.4506545
 104.9227116  47.6802004  95.5295025 104.3964730  46.3840051  96.1081471
 112.9381261  34.4312010  92.6296747 113.8499117  34.6639397  92.4544445
 112.4290908  35.0149054  92.0671826 111.5450843  39.4137828 100.0210329
 110.9159705  39.5783543  99.3186397 111.1576505  39.8279438 100.7921293
 115.4240075  40.3492266  97.3754693 114.7391113  40.7291168  96.8251726
 115.5083924  40.9587593  98.1086640 107.0978805  39.1512237  97.2860414
 107.5617150  39.4299940  96.4965036 106.8335603  38.2495681  97.1033505
 103.9902886  38.6983718 100.2240177 104.5604243  39.1270986  99.5857662
 104.5810998  38.4166303 100.9224363 106.0347691  35.2735389  94.0949979
 106.7371734  35.7256433  94.5623905 105.7028319  34.6319208  94.7229872
  99.7773025  33.5318942  99.3967113  98.9872079  33.7876470  98.9207223
 100.2684272  34.3467279  99.5019153 101.7287770  33.8963521  96.3550589
 100.9318933  34.0082215  96.8734085 101.5013362  34.2350173  95.4891480
 107.5593438  40.4208224 104.3033104 107.6237870  40.8828631 105.1391276
 106.8504362  39.7905589 104.4315414  98.0610728  33.7849432 101.8282103
  98.3118766  34.6696442 102.0939679  98.5970276  33.6054034 101.0557195
 107.2741455  42.0876332  94.1712084 107.1387130  42.9327867  94.5996932
 107.8151268  42.2895609  93.4078018 100.7270853  39.6051770  94.7440009
 101.2395373  40.3995020  94.8945574 101.3793566  38.9078060  94.6773611
 102.5365738  42.7217526  96.8262763 102.7132366  43.6435491  96.6383746
 103.3322571  42.4075945  97.2557142 103.6597053  44.2395700 102.8273105
 104.2104478  44.1112763 102.0550099 102.8208529  44.5390589 102.4767998
  98.6919770  37.9340424  95.5199580  99.5294992  38.3437432  95.3033288
  98.8698037  36.9939866  95.4899774 110.5884202  35.6015505  91.2083413
 110.0730825  36.3720109  91.4471800 110.3161510  34.9280641  91.8316474
 108.1731313  30.4465205  96.2668651 107.3172909  30.0572056  96.0874290
 108.5858265  30.5257166  95.4068437 115.5618476  38.3547859  93.1436586
 114.7847919  38.0159019  92.6991748 116.2409957  38.3600482  92.4691551
 110.3770505  33.4742597  93.0343194 110.0720641  33.7888746  93.8853337
 111.3300947  33.5524017  93.0770527 108.8216937  39.6332820  94.6836148
 108.2938298  38.8985580  94.3709385 108.3204440  40.4107496  94.4376116
 103.5535664  30.2952486  97.0442760 104.1279416  30.0727668  96.3115952
 104.1406647  30.3641181  97.7971361 112.6115242  36.1826213  97.8507136
 113.1247123  36.8156205  98.3528846 113.2616466  35.5827409  97.4850496
 103.8805252  32.3256947  91.0638645 103.0442564  32.6631634  91.3847920
 103.7410021  32.1905927  90.1265782 105.8558332  27.1693735  95.7717829
 105.2022744  26.8542752  95.1474444 105.8138806  26.5469476  96.4977652
 106.9669537  37.4513030  87.6871121 106.0596599  37.2202284  87.8862270
 107.4640569  36.6550649  87.8745103 109.8737616  46.1610537  90.6067807
 109.1999315  46.4642234  91.2152765 110.2603438  46.9639618  90.2573264
 109.0896072  33.6575669 100.0965477 108.1718634  33.8790616  99.9387165
 109.5056216  33.7321979  99.2377184 109.8731120  35.0567084  95.2268157
 110.6202939  35.5688482  94.9175279 110.1422710  34.7351137  96.0872550
 108.1457770  37.5525625  92.2095111 107.2368990  37.2684658  92.3067581
 108.1752854  37.9724704  91.3498418 113.3777038  41.1632215  95.9786279
 112.9239365  40.3223124  96.0351469 112.7471005  41.7993613  96.3161059
 111.8209977  43.0008711  96.9136097 112.1132951  43.5613768  96.1948462
 112.3308598  43.2937272  97.6689256  98.7145941  35.2731139  96.1910313
  98.5170341  34.6800500  95.4661380  98.1592605  34.9683349  96.9086252
 106.6942664  35.1654246  98.3104906 106.7491274  34.2128082  98.2347383
 105.8833866  35.3213685  98.7946205 107.8433858  39.0934369  89.5483190
 107.4053288  38.3770228  89.0888827 108.5844299  39.3210484  88.9868281
 104.6335024  33.7831305  96.0695285 103.8202890  34.0825476  96.4760477
 105.1294019  33.3886994  96.7869768 106.7843602  43.7789062  98.0029550
 106.7419781  44.0049909  97.0738082 107.7006301  43.5452437  98.1515351
 115.9606973  37.3691566  95.6059508 115.8224872  37.5593162  94.6780697
 115.6043192  38.1310949  96.0627559 104.1249099  31.3549661 101.6856520
 104.7648478  31.2138420 100.9879484 103.2926630  31.0684174 101.3095122
 104.9009403  40.6552091  97.7991513 105.6950002  40.1602412  97.5974088
 104.1901095  40.1269955  97.4359218 109.7204248  43.0370187 102.1503880
 109.7741270  43.6061123 102.9181596 108.8519029  43.2072072 101.7857918
 101.2092167  34.7995173  93.8751265 100.2789755  34.7379629  94.0921228
 101.3049639  34.2771126  93.0787907 101.1277716  31.3249986  96.4629507
 101.3884533  32.2395319  96.3538668 101.9494888  30.8574429  96.6126120
 102.6002641  32.7387743 103.6328332 103.2725694  32.5305105 102.9840981
 101.7732427  32.5409829 103.1933564 107.4780679  41.2281113 101.4789350
 107.3391765  40.8599898 102.3515288 106.6895275  41.7428753 101.3073308
 108.0728831  46.3290210  92.8214886 108.2480587  45.8578253  93.6360509
 107.3861619  46.9555976  93.0496147 109.0285894  40.6062716  98.8678188
 108.6935727  40.5663486  99.7635838 108.5289840  39.9407432  98.3948598
 103.0030138  36.0130346 104.3930769 102.8649936  35.2810585 104.9942308
 103.9135062  35.9239246 104.1114957 111.9645086  37.9518750  89.1415247
 111.3474256  37.2265579  89.0448300 111.4961574  38.7128111  88.7982322
 102.6389916  49.4779573  99.5954747 102.8786515  50.1098097 100.2733765
 101.7959113  49.1267613  99.8820106 103.7543632  32.1704175  88.2636552
 102.8773098  32.0492975  87.8998798 104.2301385  31.3790253  88.0115440
  95.2745772  36.9581334  98.3578059  95.9616812  36.6443064  97.7699074
  95.1193901  37.8622699  98.0845310 100.0780494  31.8471531 102.7863082
  99.9938683  31.2397201 102.0513492  99.2563200  32.3380549 102.7872579
 107.1517778  45.2858695 101.9996251 107.0787950  46.0913667 102.5115555
 106.7095171  45.4850661 101.1744272 106.9407558  44.5230465  95.5099072
 106.1575080  45.0652145  95.6037297 107.6400303  45.0404445  95.9093313
 109.6116462  45.1845529 104.1554409 110.3244434  45.8192994 104.0830311
 109.1206490  45.2809395 103.3394411 111.3333989  39.0896782  95.7271701
 110.3990267  39.2098244  95.5576405 111.5110657  38.1869249  95.4631711
 106.8339177  32.4742478  97.8804962 106.4636964  31.9213518  98.5685868
 107.3298269  31.8700611  97.3279962 104.6628375  42.9339973 104.9759980
 105.3637835  43.5676456 105.1289374 104.1923490  43.2754704 104.2155619
 112.7882771  41.2757922  93.2607887 113.0642615  41.1614517  94.1701761
 111.9187270  40.8775407  93.2220060 109.4236835  45.5244273  96.9040701
 109.6059230  44.7065929  97.3668453 110.2469821  45.7411965  96.4665591
 109.7579001  44.4512458  94.1655749 110.2866767  43.9404913  93.5525911
 110.0207220  44.1354989  95.0301282 100.2596093  42.4676328 101.9091083
 100.8449530  41.7220015 102.0418987 100.0620932  42.7780284 102.7927747
 103.1134748  45.5027575  96.9253525 102.4445124  45.9873703  96.4417565
 102.9747618  45.7496795  97.8396904  94.8513748  35.0381928 100.6295526
  94.8897848  34.5045518 101.4232644  94.3454041  34.5117133 100.0106503
 107.2540017  47.5371319 103.5236183 107.8058325  47.7002940 104.2885269
 107.5946211  48.1275756 102.8516208  98.4822326  33.7646030  93.7049457
  98.7775767  32.8556708  93.6516511  97.5810361  33.7433769  93.3830460
 110.3908404  45.4853294 100.5099866 110.2659544  44.6843034 100.0010811
 111.0487495  45.9799487 100.0213836 102.0116573  31.8402027  99.6877006
 101.2903158  32.4537994  99.5484479 102.8009828  32.3759791  99.6093652
 112.4543313  43.2862314 102.1379416 111.5073648  43.1667665 102.0657742
 112.8026086  42.3984812 102.2205677 100.2110167  31.4460128  93.8288782
  99.8822873  30.5657507  93.6463888 100.5649538  31.3907796  94.7165172
 109.4589746  43.0815030  98.3383768 109.3114708  42.1531738  98.5191338
 110.2843240  43.1035121  97.8540843 103.3251990  31.7333097  94.1964260
 103.6648063  32.2619019  93.4742868 103.7724111  32.0713504  94.9722827
 113.0623868  43.9043589  99.4248641 113.9870415  43.6986450  99.2873092
 112.8939171  43.6559990 100.3337982 105.3120137  30.2307719  92.3957553
 106.0328500  30.6088972  91.8921270 104.6885442  30.9496596  92.4992531
 109.4551260  30.9352868  93.3315885 109.6714875  31.8177506  93.0304713
 108.9745328  30.5439081  92.6021527 104.1950482  33.8938581  99.9086630
 104.0495062  34.2078884 100.8010911 103.7175685  34.5123482  99.3557528
 112.8519184  44.4229257  94.7810732 113.0256062  43.8575679  94.0284585
 113.3448075  45.2230151  94.5990222  98.6696144  36.4343926 102.8474291
  98.1249612  37.2103734 102.9794565  99.5475494  36.7814730 102.6893412
 105.4583761  29.7655509  95.2255089 105.5799672  28.8372156  95.4245977
 105.1685803  29.7794195  94.3133405 113.8394357  43.7396021  91.8807630
 114.5345261  44.3602714  92.0994945 114.1817507  42.8891372  92.1560008
  99.4562166  35.5613822 105.7404448  98.7143902  35.7096457 106.3269078
  99.1354910  35.8222087 104.8771197 115.7385780  41.1895726  93.4094961
 116.2637104  41.5282999  92.6844281 115.6508132  40.2542742  93.2258096
 107.4005828  45.1029800 105.5384838 107.7092955  44.8578947 106.4107537
 108.1981310  45.3076439 105.0503708 107.4226440  47.2567710  97.7690214
 106.9831431  46.7644088  98.4623071 108.1734557  46.7140677  97.5282290
  99.9018779  43.4479251  97.7714842 100.7276799  43.1483022  97.3913486
  99.5512831  42.6786873  98.2204631 104.8700313  42.8005719  99.8412516
 104.2480322  42.1376424  99.5414744 105.5405180  42.8266851  99.1586164
  98.1027384  41.3665577  98.7303776  97.2659293  40.9387751  98.5487777
  98.0751030  41.5598020  99.6674567 104.4313820  41.3509642  93.3170977
 104.5801940  42.0345107  92.6637649 105.2380263  41.3314732  93.8320432
 102.1866452  37.3774820  94.3232045 101.9412494  36.4737150  94.5212256
 102.3562367  37.3791970  93.3811523 101.4562100  33.1103177  91.8218207
 100.7631345  33.1847532  91.1658243 101.2113852  32.3463521  92.3439724
 107.9309225  43.8457773  90.7882724 107.3583192  44.4647960  90.3353196
 108.5042019  44.3957134  91.3222646 111.1506485  44.1294923  91.9191306
 112.0837158  44.0640484  92.1224182 111.0629698  44.9651190  91.4605839
 113.7794501  43.4460793  88.8795254 113.7008133  43.1120657  89.7731012
 114.6004168  43.9382561  88.8786726 108.3156024  35.1818585  88.1298776
 109.2615128  35.0524793  88.1987195 107.9370268  34.4433247  88.6068205
 106.4998941  33.1068562  88.0653662 105.5930396  32.8101674  88.1416375
 106.7774922  32.8098380  87.1987948  97.4176881  34.4274925  98.5152708
  97.0979665  33.5740233  98.2227082  96.8710309  34.6423503  99.2710675
 101.1956789  37.1437366 102.2322215 101.4142798  38.0754474 102.2510248
 101.6082562  36.7845341 103.0177018 108.1161006  27.6505451  94.2197903
 107.3061735  27.3052536  94.5953149 108.8045423  27.3412995  94.8085515
 105.2697725  29.9655497  88.2065641 106.1316889  30.2910395  88.4661458
 105.4548069  29.1786993  87.6938707  97.2865141  38.0477837 100.4845830
  96.5928613  37.6331789  99.9715784  98.0338132  38.0898373  99.8879249
  99.2001884  37.9796090  98.3611845  99.1772572  38.0783778  97.4093728
  99.5102520  38.8261241  98.6829011 101.8589261  40.0372245 102.4758459
 102.8132515  40.0056188 102.4088391 101.6601785  39.5762869 103.2908685
 102.4488644  38.6073361 105.0429257 103.2681533  39.1017440 105.0664094
 102.7225451  37.6905330 105.0146824 112.2055240  30.9984114  94.4057212
 111.3181095  31.2833764  94.1877407 112.6209229  30.8377877  93.5584489
 100.2139490  45.5791865  99.4928657 100.0793958  44.8192266  98.9266655
  99.7971553  46.3032765  99.0257446 111.3498453  40.7628788  88.5005232
 112.0534303  40.9678791  89.1162888 110.6261102  41.3305550  88.7654316
 112.1796264  36.5138650  94.6207502 112.1231465  36.9707201  93.7815135
 112.7324606  35.7529334  94.4430345 103.3708616  46.4761182  99.7047100
 103.2541000  47.4206614  99.6025790 102.5501062  46.1734744 100.0932899
 113.2585151  41.2011318  90.5503692 114.0930755  40.7692516  90.3681167
 113.0969494  41.0293331  91.4780587 112.9131043  37.7043431  91.9160032
 112.8579847  37.5387702  90.9748476 112.2877098  38.4119464  92.0722221
  97.7023558  32.9411495 105.7421454  98.3482421  32.4310449 106.2308679
  97.4940709  33.6780177 106.3164879 106.2227168  27.2051540  91.4945350
 106.2105838  28.1493380  91.6513621 107.1150590  27.0221685  91.2004811
 104.3963130  47.1289444 102.9203028 105.2990377  47.1613054 103.2369523
 104.1700500  46.1989895 102.9349364 106.1516732  45.8820430  99.5813107
 105.2012363  45.8822292  99.4677479 106.4549218  45.1353165  99.0649141
 114.5545948  53.5243873  96.5717285 113.9910813  53.4333810  95.8033572
 114.4398343  52.7043778  97.0519777 112.1010380  55.0195065  99.4101505
 112.8931672  54.6785890  98.9947804 112.3407030  55.1290040 100.3303658
 114.0601134  54.2803978  92.2818884 114.8332010  53.7332965  92.1431760
 114.4126532  55.1448227  92.4933345 115.8986176  55.6080360 105.4885783
 115.6076042  56.5125991 105.3732449 116.5343161  55.6496888 106.2029853
 116.8242383  52.9857209 102.0787143 117.4205955  52.7613231 101.3644106
 116.8817355  52.2441954 102.6812591 116.3967411  50.4396644  89.9137334
 116.6492932  49.9178166  89.1520797 115.4591971  50.2762790  90.0164017
 116.1163700  52.3424750  92.1161709 115.9999958  51.6669654  92.7842793
 116.2265960  51.8557124  91.2993862 118.1000728  46.8324797  90.8169746
 118.2675130  47.7005033  91.1840218 117.9097897  46.9952079  89.8931036
 114.3088543  51.7455573  98.5172281 113.3839039  51.6131787  98.7249973
 114.5572956  52.5249792  99.0142224 118.0789949  49.2882455  91.8016413
 117.9589574  49.7339505  92.6401894 117.3842537  49.6367772  91.2429951
 111.6697354  51.3888846  99.3516070 111.7989735  51.6423325 100.2655482
 110.9894805  51.9816554  99.0320725 115.8396841  62.0586096  95.4506545
 115.7620871  63.0093921  95.5295025 115.2358485  61.7131969  96.1081471
 114.8296640  54.0275636 100.2240177 115.3997997  54.4562904  99.5857662
 115.4204752  53.7458220 100.9224363 116.8741445  50.6027307  94.0949979
 117.5765489  51.0548350  94.5623905 116.5422074  49.9611125  94.7229872
 110.6166779  48.8610859  99.3967113 109.8265833  49.1168388  98.9207223
 111.1078027  49.6759197  99.5019153 112.5681525  49.2255439  96.3550589
 111.7712688  49.3374133  96.8734085 112.3407117  49.5642091  95.4891480
 108.9004482  49.1141350 101.8282103 109.1512521  49.9988360 102.0939679
 109.4364031  48.9345951 101.0557195 111.5664607  54.9343687  94.7440009
 112.0789128  55.7286938  94.8945574 112.2187320  54.2369978  94.6773611
 113.3759492  58.0509444  96.8262763 113.5526120  58.9727408  96.6383746
 114.1716326  57.7367863  97.2557142 114.4990808  59.5687617 102.8273105
 115.0498233  59.4404681 102.0550099 113.6602283  59.8682506 102.4767998
 109.5313524  53.2632342  95.5199580 110.3688746  53.6729350  95.3033288
 109.7091792  52.3231784  95.4899774 114.3929419  45.6244404  97.0442760
 114.9673171  45.4019585  96.3115952 114.9800401  45.6933098  97.7971361
 114.7199006  47.6548865  91.0638645 113.8836318  47.9923551  91.3847920
 114.5803776  47.5197845  90.1265782 116.6952087  42.4985653  95.7717829
 116.0416499  42.1834670  95.1474444 116.6532561  41.8761393  96.4977652
 117.8063291  52.7804948  87.6871121 116.8990353  52.5494201  87.8862270
 118.3034323  51.9842567  87.8745103 109.5539695  50.6023057  96.1910313
 109.3564095  50.0092418  95.4661380 108.9986359  50.2975267  96.9086252
 117.5336419  50.4946163  98.3104906 117.5885029  49.5420000  98.2347383
 116.7227621  50.6505602  98.7946205 115.4728779  49.1123223  96.0695285
 114.6596644  49.4117394  96.4760477 115.9687773  48.7178912  96.7869768
 114.9642854  46.6841579 101.6856520 115.6042233  46.5430338 100.9879484
 114.1320384  46.3976092 101.3095122 115.7403158  55.9844009  97.7991513
 116.5343756  55.4894329  97.5974088 115.0294850  55.4561872  97.4359218
 112.0485921  50.1287091  93.8751265 111.1183509  50.0671546  94.0921228
 112.1443393  49.6063044  93.0787907 111.9671470  46.6541904  96.4629507
 112.2278287  47.5687237  96.3538668 112.7888642  46.1866346  96.6126120
 113.4396395  48.0679661 103.6328332 114.1119449  47.8597023 102.9840981
 112.6126182  47.8701747 103.1933564 113.8423893  51.3422264 104.3930769
 113.7043691  50.6102503 104.9942308 114.7528816  51.2531164 104.1114957
 113.4783671  64.8071490  99.5954747 113.7180269  65.4390014 100.2733765
 112.6352867  64.4559530  99.8820106 114.5937386  47.4996092  88.2636552
 113.7166853  47.3784893  87.8998798 115.0695139  46.7082171  88.0115440
 106.1139526  52.2873252  98.3578059 106.8010566  51.9734982  97.7699074
 105.9587655  53.1914617  98.0845310 110.9174249  47.1763449 102.7863082
 110.8332437  46.5689118 102.0513492 110.0956955  47.6672467 102.7872579
 117.9911533  60.6150613 101.9996251 117.9181704  61.4205584 102.5115555
 117.5488926  60.8142579 101.1744272 117.6732931  47.8034395  97.8804962
 117.3030719  47.2505436  98.5685868 118.1692024  47.1992529  97.3279962
 115.5022130  58.2631890 104.9759980 116.2031589  58.8968373 105.1289374
 115.0317245  58.6046622 104.2155619 111.0989848  57.7968245 101.9091083
 111.6843285  57.0511933 102.0418987 110.9014686  58.1072202 102.7927747
 113.9528503  60.8319493  96.9253525 113.2838878  61.3165620  96.4417565
 113.8141373  61.0788713  97.8396904 105.6907503  50.3673845 100.6295526
 105.7291602  49.8337436 101.4232644 105.1847795  49.8409051 100.0106503
 109.3216080  49.0937948  93.7049457 109.6169521  48.1848626  93.6516511
 108.4204116  49.0725687  93.3830460 112.8510327  47.1693944  99.6877006
 112.1296913  47.7829912  99.5484479 113.6403583  47.7051709  99.6093652
 111.0503922  46.7752045  93.8288782 110.7216628  45.8949424  93.6463888
 111.4043292  46.7199714  94.7165172 114.1645745  47.0625015  94.1964260
 114.5041817  47.5910936  93.4742868 114.6117865  47.4005421  94.9722827
 116.1513892  45.5599637  92.3957553 116.8722254  45.9380889  91.8921270
 115.5279196  46.2788513  92.4992531 115.0344236  49.2230499  99.9086630
 114.8888817  49.5370802 100.8010911 114.5569440  49.8415399  99.3557528
 109.5089898  51.7635843 102.8474291 108.9643366  52.5395651 102.9794565
 110.3869248  52.1106648 102.6893412 116.2977515  45.0947427  95.2255089
 116.4193426  44.1664073  95.4245977 116.0079557  45.1086113  94.3133405
 110.2955920  50.8905740 105.7404448 109.5537656  51.0388375 106.3269078
 109.9748665  51.1514005 104.8771197 110.7412534  58.7771168  97.7714842
 111.5670554  58.4774940  97.3913486 110.3906586  58.0078791  98.2204631
 115.7094067  58.1297636  99.8412516 115.0874076  57.4668342  99.5414744
 116.3798934  58.1558768  99.1586164 108.9421139  56.6957495  98.7303776
 108.1053047  56.2679669  98.5487777 108.9144784  56.8889938  99.6674567
 115.2707574  56.6801560  93.3170977 115.4195694  57.3637024  92.6637649
 116.0774017  56.6606650  93.8320432 113.0260207  52.7066737  94.3232045
 112.7806249  51.8029067  94.5212256 113.1956122  52.7083888  93.3811523
 112.2955855  48.4395095  91.8218207 111.6025099  48.5139450  91.1658243
 112.0507606  47.6755439  92.3439724 117.3392695  48.4360479  88.0653662
 116.4324151  48.1393592  88.1416375 117.6168676  48.1390298  87.1987948
 108.2570636  49.7566843  98.5152708 107.9373420  48.9032151  98.2227082
 107.7104064  49.9715421  99.2710675 112.0350543  52.4729284 102.2322215
 112.2536553  53.4046392 102.2510248 112.4476317  52.1137258 103.0177018
 116.1091480  45.2947415  88.2065641 116.9710644  45.6202313  88.4661458
 116.2941824  44.5078911  87.6938707 108.1258896  53.3769754 100.4845830
 107.4322367  52.9623707  99.9715784 108.8731887  53.4190291  99.8879249
 110.0395638  53.3088008  98.3611845 110.0166326  53.4075695  97.4093728
 110.3496275  54.1553159  98.6829011 112.6983016  55.3664163 102.4758459
 113.6526270  55.3348105 102.4088391 112.4995540  54.9054787 103.2908685
 113.2882398  53.9365279 105.0429257 114.1075287  54.4309358 105.0664094
 113.5619206  53.0197247 105.0146824 111.0533245  60.9083783  99.4928657
 110.9187713  60.1484183  98.9266655 110.6365307  61.6324682  99.0257446
 114.2102371  61.8053100  99.7047100 114.0934755  62.7498532  99.6025790
 113.3894817  61.5026661 100.0932899 108.5417312  48.2703413 105.7421454
 109.1876176  47.7602367 106.2308679 108.3334463  49.0072095 106.3164879
 117.0620923  42.5343458  91.4945350 117.0499593  43.4785298  91.6513621
 117.9544345  42.3513603  91.2004811 115.2356885  62.4581362 102.9203028
 116.1384131  62.4904972 103.2369523 115.0094255  61.5281812 102.9349364
 116.9910487  61.2112348  99.5813107 116.0406118  61.2114210  99.4677479
 117.2942973  60.4645083  99.0649141 116.9533281  67.6165170  98.3578059
 117.6404321  67.3026900  97.7699074 116.7981410  68.5206534  98.0845310
 116.5301257  65.6965763 100.6295526 116.5685357  65.1629354 101.4232644
 116.0241550  65.1700969 100.0106503  91.7996163  11.1549778  86.3200053
  92.0392761  11.7868302  86.9979072  90.9565360  10.8037818  86.6065412
 103.7152195  15.2014078  83.2962591 103.1517060  15.1104015  82.5278879
 103.6004590  14.3813983  83.7765084 101.2616626  16.6965270  86.1346812
 102.0537918  16.3556094  85.7193111 101.5013277  16.8060245  87.0548965
 109.2951753  18.8685046  78.6077056 108.6439733  19.4539126  78.2211070
 110.0896116  19.3991241  78.6672094 103.2207380  15.9574183  79.0064191
 103.9938256  15.4103170  78.8677066 103.5732779  16.8218432  79.2178652
 105.0592423  17.2850565  92.2131090 104.7682289  18.1896196  92.0977756
 105.6949407  17.3267093  92.9275159 105.9848630  14.6627414  88.8032449
 106.5812202  14.4383436  88.0889412 106.0423601  13.9212159  89.4057897
 110.7727018  16.5575478  79.1446040 110.1372851  16.6310104  79.8566945
 110.4424425  17.1469077  78.4665120 105.2769947  14.0194955  78.8407015
 105.1606205  13.3439859  79.5088100 105.3872207  13.5327329  78.0239168
 103.4694790  13.4225778  85.2417588 102.5445286  13.2901992  85.4495280
 103.7179203  14.2019997  85.7387530 100.8303601  13.0659051  86.0761377
 100.9595982  13.3193530  86.9900789 100.1501052  13.6586759  85.7566032
 105.0003088  23.7356301  82.1751851 104.9227118  24.6864126  82.2540332
 104.3964731  23.3902174  82.8326777 111.5450844  16.4199951  86.7455635
 110.9159707  16.5845665  86.0431703 111.1576506  16.8341561  87.5166599
 115.4240076  17.3554389  84.0999999 114.7391114  17.7353290  83.5497033
 115.5083925  17.9649716  84.8331947 107.0978806  16.1574359  84.0105721
 107.5617152  16.4362062  83.2210343 106.8335604  15.2557804  83.8278811
 103.9902887  15.7045841  86.9485484 104.5604244  16.1333109  86.3102968
 104.5810999  15.4228425  87.6469669 107.5593439  17.4270347  91.0278411
 107.6237872  17.8890754  91.8636582 106.8504363  16.7967712  91.1560720
 107.2741457  19.0938454  80.8957391 107.1387132  19.9389990  81.3242239
 107.8151269  19.2957732  80.1323325 100.7270854  16.6113892  81.4685316
 101.2395375  17.4057142  81.6190881 101.3793567  15.9140183  81.4018917
 102.5365739  19.7279648  83.5508069 102.7132367  20.6497613  83.3629053
 103.3322572  19.4138068  83.9802449 103.6597054  21.2457822  89.5518412
 104.2104479  21.1174886  88.7795405 102.8208530  21.5452711  89.2013304
  98.6919771  14.9402546  82.2444887  99.5294993  15.3499555  82.0278594
  98.8698039  14.0001989  82.2145080 108.8216938  16.6394943  81.4081455
 108.2938300  15.9047702  81.0954692 108.3204441  17.4169619  81.1621423
 109.8737617  23.1672660  77.3313114 109.1999316  23.4704357  77.9398072
 110.2603439  23.9701740  76.9818571 108.1457772  14.5587748  78.9340418
 107.2368991  14.2746781  79.0312888 108.1752855  14.9786826  78.0743725
 113.3777039  18.1694337  82.7031585 112.9239366  17.3285247  82.7596776
 112.7471006  18.8055736  83.0406365 111.8209978  20.0070834  83.6381403
 112.1132953  20.5675891  82.9193769 112.3308599  20.2999395  84.3934563
  98.7145942  12.2793262  82.9155620  98.5170342  11.6862623  82.1906687
  98.1592606  11.9745472  83.6331559 107.8433859  16.0996491  76.2728496
 107.4053289  15.3832350  75.8134134 108.5844300  16.3272606  75.7113588
 106.7843604  20.7851185  84.7274857 106.7419782  21.0112031  83.7983389
 107.7006302  20.5514560  84.8760658 104.9009404  17.6614214  84.5236819
 105.6950003  17.1664534  84.3219394 104.1901097  17.1332077  84.1604525
 109.7204249  20.0432310  88.8749187 109.7741271  20.6123246  89.6426903
 108.8519030  20.2134195  88.5103224 107.4780680  18.2343236  88.2034657
 107.3391766  17.8662020  89.0760595 106.6895277  18.7490875  88.0318614
 108.0728832  23.3352332  79.5460193 108.2480588  22.8640376  80.3605816
 107.3861620  23.9618099  79.7741454 109.0285895  17.6124839  85.5923494
 108.6935728  17.5725609  86.4881144 108.5289841  16.9469555  85.1193905
 102.6389918  26.4841695  86.3200053 102.8786516  27.1160219  86.9979072
 101.7959114  26.1329735  86.6065412  95.2745773  13.9643457  85.0823365
  95.9616813  13.6505187  84.4944381  95.1193902  14.8684822  84.8090617
 107.1517779  22.2920818  88.7241557 107.0787951  23.0975789  89.2360862
 106.7095173  22.4912783  87.8989579 106.9407559  21.5292588  82.2344379
 106.1575081  22.0714268  82.3282603 107.6400304  22.0466567  82.6338620
 109.6116463  22.1907652  90.8799716 110.3244435  22.8255116  90.8075617
 109.1206492  22.2871518  90.0639718 104.6628376  19.9402095  91.7005287
 105.3637836  20.5738578  91.8534681 104.1923491  20.2816827  90.9400926
 112.7882772  18.2820045  79.9853194 113.0642616  18.1676640  80.8947068
 111.9187271  17.8837530  79.9465367 109.4236836  22.5306396  83.6286007
 109.6059231  21.7128052  84.0913760 110.2469822  22.7474088  83.1910897
 109.7579002  21.4574581  80.8901056 110.2866768  20.9467035  80.2771218
 110.0207221  21.1417111  81.7546589 100.2596095  19.4738450  88.6336389
 100.8449531  18.7282138  88.7664294 100.0620933  19.7842407  89.5173053
 103.1134750  22.5089698  83.6498832 102.4445125  22.9935825  83.1662872
 102.9747619  22.7558918  84.5642210  94.8513749  12.0444050  87.3540832
  94.8897849  11.5107641  88.1477951  94.3454042  11.5179256  86.7351810
 107.2540018  24.5433441  90.2481490 107.8058326  24.7065063  91.0130575
 107.5946212  25.1337879  89.5761515 110.3908406  22.4915417  87.2345172
 110.2659545  21.6905156  86.7256118 111.0487497  22.9861610  86.7459142
 112.4543314  20.2924437  88.8624722 111.5073650  20.1729788  88.7903049
 112.8026087  19.4046935  88.9450984 109.4589747  20.0877153  85.0629075
 109.3114710  19.1593860  85.2436645 110.2843241  20.1097244  84.5786150
 113.0623869  20.9105712  86.1493947 113.9870417  20.7048573  86.0118398
 112.8939173  20.6622113  87.0583289 112.8519185  21.4291379  81.5056039
 113.0256063  20.8637802  80.7529891 113.3448077  22.2292274  81.3235529
  98.6696145  13.4406048  89.5719598  98.1249613  14.2165856  89.7039872
  99.5475495  13.7876853  89.4138719 113.8394358  20.7458144  78.6052937
 114.5345262  21.3664836  78.8240252 114.1817508  19.8953495  78.8805315
  99.4562167  12.5675944  92.4649754  98.7143903  12.7158580  93.0514385
  99.1354911  12.8284210  91.6016504 115.7385781  18.1957849  80.1340268
 116.2637105  18.5345122  79.4089588 115.6508134  17.2604864  79.9503402
 107.4005830  22.1091923  92.2630144 107.7092956  21.8641069  93.1352844
 108.1981312  22.3138561  91.7749015 107.4226442  24.2629832  84.4935521
 106.9831432  23.7706211  85.1868378 108.1734559  23.7202800  84.2527596
  99.9018781  20.4541373  84.4960149 100.7276801  20.1545145  84.1158793
  99.5512833  19.6848996  84.9449938 104.8700314  19.8067841  86.5657823
 104.2480323  19.1438546  86.2660051 105.5405181  19.8328973  85.8831470
  98.1027386  18.3727700  85.4549083  97.2659294  17.9449874  85.2733084
  98.0751031  18.5660143  86.3919874 104.4313821  18.3571765  80.0416283
 104.5801941  19.0407229  79.3882956 105.2380264  18.3376855  80.5565739
 102.1866454  14.3836942  81.0477352 101.9412496  13.4799272  81.2457562
 102.3562368  14.3854093  80.1056830 107.9309226  20.8519895  77.5128031
 107.3583193  21.4710082  77.0598503 108.5042020  21.4019257  78.0467953
 111.1506486  21.1357045  78.6436613 112.0837159  21.0702607  78.8469488
 111.0629699  21.9713312  78.1851146 113.7794503  20.4522916  75.6040560
 113.7008134  20.1182779  76.4976318 114.6004170  20.9444684  75.6032033
  97.4176882  11.4337048  85.2398015  97.0979667  10.5802356  84.9472389
  96.8710311  11.6485626  85.9955982 101.1956790  14.1499489  88.9567521
 101.4142800  15.0816597  88.9755555 101.6082564  13.7907463  89.7422325
  97.2865142  15.0539959  87.2091136  96.5928614  14.6393912  86.6961091
  98.0338133  15.0960496  86.6124555  99.2001885  14.9858213  85.0857151
  99.1772573  15.0845900  84.1339034  99.5102521  15.8323364  85.4074317
 101.8589263  17.0434368  89.2003766 102.8132516  17.0118310  89.1333697
 101.6601786  16.5824992  90.0153992 102.4488645  15.6135484  91.7674563
 103.2681534  16.1079563  91.7909401 102.7225453  14.6967452  91.7392131
 100.2139492  22.5853988  86.2173964 100.0793959  21.8254388  85.6511962
  99.7971554  23.3094887  85.7502752 111.3498455  17.7690911  75.2250539
 112.0534305  17.9740914  75.8408194 110.6261103  18.3367673  75.4899622
 103.3708617  23.4823305  86.4292406 103.2541002  24.4268737  86.3271096
 102.5501064  23.1796866  86.8178205 113.2585152  18.2073440  77.2748999
 114.0930756  17.7754639  77.0926474 113.0969495  18.0355454  78.2025893
 104.3963132  24.1351566  89.6448335 105.2990378  24.1675177  89.9614830
 104.1700502  23.2052017  89.6594670 106.1516734  22.8882553  86.3058413
 105.2012365  22.8884415  86.1922785 106.4549220  22.1415288  85.7894448
 114.5545949  30.5305996  83.2962591 113.9910814  30.4395933  82.5278879
 114.4398344  29.7105900  83.7765084 112.1010381  32.0257187  86.1346812
 112.8931673  31.6848012  85.7193111 112.3407031  32.1352163  87.0548965
 114.0601135  31.2866101  79.0064191 114.8332011  30.7395088  78.8677066
 114.4126534  32.1510350  79.2178652 115.8986177  32.6142483  92.2131090
 115.6076043  33.5188114  92.0977756 116.5343162  32.6559011  92.9275159
 116.8242384  29.9919332  88.8032449 117.4205957  29.7675354  88.0889412
 116.8817356  29.2504077  89.4057897 116.3967413  27.4458767  76.6382640
 116.6492933  26.9240288  75.8766103 115.4591972  27.2824912  76.7409324
 116.1163701  29.3486873  78.8407015 115.9999960  28.6731776  79.5088100
 116.2265961  28.8619247  78.0239168 118.1000729  23.8386920  77.5415053
 118.2675132  24.7067156  77.9085524 117.9097898  24.0014201  76.6176342
 114.3088544  28.7517695  85.2417588 113.3839040  28.6193909  85.4495280
 114.5572957  29.5311915  85.7387530 118.0789950  26.2944577  78.5261720
 117.9589575  26.7401628  79.3647200 117.3842539  26.6429895  77.9675258
 111.6697355  28.3950969  86.0761377 111.7989736  28.6485448  86.9900789
 110.9894806  28.9878677  85.7566032 115.8396842  39.0648219  82.1751851
 115.7620872  40.0156044  82.2540332 115.2358486  38.7194091  82.8326777
 114.8296642  31.0337758  86.9485484 115.3997999  31.4625027  86.3102968
 115.4204753  30.7520343  87.6469669 116.8741447  27.6089429  80.8195286
 117.5765490  28.0610473  81.2869212 116.5422075  26.9673248  81.4475179
 110.6166781  25.8672982  86.1212419 109.8265835  26.1230510  85.6452530
 111.1078028  26.6821320  86.2264460 112.5681526  26.2317561  83.0795896
 111.7712689  26.3436255  83.5979392 112.3407118  26.5704213  82.2136786
 108.9004484  26.1203472  88.5527410 109.1512522  27.0050482  88.8184986
 109.4364032  25.9408074  87.7802502 111.5664609  31.9405810  81.4685316
 112.0789129  32.7349060  81.6190881 112.2187321  31.2432100  81.4018917
 113.3759493  35.0571566  83.5508069 113.5526122  35.9789531  83.3629053
 114.1716327  34.7429985  83.9802449 114.4990809  36.5749740  89.5518412
 115.0498234  36.4466803  88.7795405 113.6602285  36.8744629  89.2013304
 109.5313525  30.2694464  82.2444887 110.3688747  30.6791473  82.0278594
 109.7091793  29.3293906  82.2145080 114.3929420  22.6306527  83.7688066
 114.9673172  22.4081708  83.0361259 114.9800403  22.6995221  84.5216667
 114.7199007  24.6610988  77.7883951 113.8836320  24.9985674  78.1093226
 114.5803777  24.5259967  76.8511088 116.6952088  19.5047775  82.4963136
 116.0416500  19.1896793  81.8719750 116.6532562  18.8823516  83.2222959
 117.8063293  29.7867071  74.4116428 116.8990354  29.5556324  74.6107577
 118.3034325  28.9904690  74.5990409 109.5539697  27.6085179  82.9155620
 109.3564096  27.0154540  82.1906687 108.9986361  27.3037390  83.6331559
 117.5336420  27.5008286  85.0350213 117.5885030  26.5482122  84.9592690
 116.7227622  27.6567725  85.5191512 115.4728780  26.1185346  82.7940592
 114.6596646  26.4179516  83.2005784 115.9687774  25.7241034  83.5115074
 114.9642855  23.6903701  88.4101827 115.6042234  23.5492460  87.7124790
 114.1320385  23.4038215  88.0340429 115.7403159  32.9906132  84.5236819
 116.5343757  32.4956452  84.3219394 115.0294851  32.4623995  84.1604525
 112.0485922  27.1349213  80.5996572 111.1183510  27.0733669  80.8166534
 112.1443394  26.6125166  79.8033213 111.9671471  23.6604026  83.1874814
 112.2278289  24.5749359  83.0783974 112.7888644  23.1928469  83.3371427
 113.4396397  25.0741783  90.3573638 114.1119450  24.8659146  89.7086287
 112.6126183  24.8763869  89.9178871 113.8423894  28.3484386  91.1176075
 113.7043692  27.6164625  91.7187614 114.7528817  28.2593286  90.8360263
 113.4783672  41.8133613  86.3200053 113.7180270  42.4452137  86.9979072
 112.6352869  41.4621653  86.6065412 114.5937387  24.5058215  74.9881858
 113.7166854  24.3847016  74.6244105 115.0695141  23.7144293  74.7360747
 106.1139528  29.2935375  85.0823365 106.8010567  28.9797105  84.4944381
 105.9587656  30.1976739  84.8090617 110.9174250  24.1825571  89.5108389
 110.8332439  23.5751241  88.7758799 110.0956956  24.6734590  89.5117885
 117.9911534  37.6212735  88.7241557 117.9181705  38.4267707  89.2360862
 117.5488927  37.8204701  87.8989579 117.6732932  24.8096518  84.6050269
 117.3030720  24.2567558  85.2931174 118.1692025  24.2054651  84.0525269
 115.5022131  35.2694013  91.7005287 116.2031590  35.9030496  91.8534681
 115.0317246  35.6108744  90.9400926 111.0989849  34.8030368  88.6336389
 111.6843286  34.0574056  88.7664294 110.9014687  35.1134325  89.5173053
 113.9528504  37.8381615  83.6498832 113.2838880  38.3227743  83.1662872
 113.8141374  38.0850836  84.5642210 105.6907504  27.3735968  87.3540832
 105.7291603  26.8399559  88.1477951 105.1847797  26.8471174  86.7351810
 109.3216081  26.1000070  80.4294764 109.6169522  25.1910749  80.3761818
 108.4204117  26.0787810  80.1075766 112.8510328  24.1756067  86.4122312
 112.1296914  24.7892035  86.2729786 113.6403584  24.7113832  86.3338958
 111.0503923  23.7814168  80.5534089 110.7216629  22.9011547  80.3709195
 111.4043294  23.7261837  81.4410478 114.1645746  24.0687138  80.9209567
 114.5041819  24.5973059  80.1988175 114.6117867  24.4067544  81.6968133
 116.1513893  22.5661759  79.1202859 116.8722256  22.9443012  78.6166576
 115.5279197  23.2850636  79.2237837 115.0344237  26.2292621  86.6331936
 114.8888818  26.5432925  87.5256218 114.5569441  26.8477522  86.0802835
 109.5089900  28.7697966  89.5719598 108.9643368  29.5457774  89.7039872
 110.3869250  29.1168770  89.4138719 116.2977516  22.1009550  81.9500396
 116.4193427  21.1726196  82.1491284 116.0079559  22.1148236  81.0378712
 110.2955922  27.8967862  92.4649754 109.5537658  28.0450497  93.0514385
 109.9748666  28.1576128  91.6016504 110.7412535  35.7833291  84.4960149
 111.5670555  35.4837063  84.1158793 110.3906587  35.0140913  84.9449938
 115.7094068  35.1359759  86.5657823 115.0874078  34.4730464  86.2660051
 116.3798935  35.1620891  85.8831470 108.9421140  33.7019617  85.4549083
 108.1053049  33.2741792  85.2733084 108.9144786  33.8952061  86.3919874
 115.2707575  33.6863682  80.0416283 115.4195696  34.3699147  79.3882956
 116.0774019  33.6668772  80.5565739 113.0260208  29.7128860  81.0477352
 112.7806250  28.8091190  81.2457562 113.1956123  29.7146011  80.1056830
 112.2955856  25.4457218  78.5463514 111.6025101  25.5201573  77.8903550
 112.0507608  24.6817561  79.0685031 117.3392696  25.4422602  74.7898968
 116.4324152  25.1455715  74.8661682 117.6168677  25.1452420  73.9233255
 108.2570637  26.7628965  85.2398015 107.9373421  25.9094274  84.9472389
 107.7104065  26.9777544  85.9955982 112.0350544  29.4791406  88.9567521
 112.2536554  30.4108514  88.9755555 112.4476318  29.1199381  89.7422325
 116.1091481  22.3009537  74.9310948 116.9710645  22.6264436  75.1906765
 116.2941825  21.5141033  74.4184013 108.1258897  30.3831877  87.2091136
 107.4322368  29.9685830  86.6961091 108.8731888  30.4252413  86.6124555
 110.0395639  30.3150131  85.0857151 110.0166327  30.4137818  84.1339034
 110.3496276  31.1615281  85.4074317 112.6983017  32.3726286  89.2003766
 113.6526271  32.3410228  89.1333697 112.4995541  31.9116909  90.0153992
 113.2882399  30.9427402  91.7674563 114.1075288  31.4371480  91.7909401
 113.5619207  30.0259370  91.7392131 111.0533246  37.9145905  86.2173964
 110.9187714  37.1546306  85.6511962 110.6365308  38.6386805  85.7502752
 114.2102372  38.8115222  86.4292406 114.0934756  39.7560655  86.3271096
 113.3894818  38.5088784  86.8178205 108.5417314  25.2765536  92.4666760
 109.1876177  24.7664490  92.9553986 108.3334465  26.0134217  93.0410186
 117.0620924  19.5405580  78.2190657 117.0499594  20.4847420  78.3758927
 117.9544346  19.3575726  77.9250118 115.2356886  39.4643484  89.6448335
 116.1384133  39.4967094  89.9614830 115.0094256  38.5343935  89.6594670
 116.9910488  38.2174471  86.3058413 116.0406119  38.2176332  86.1922785
 117.2942974  37.4707205  85.7894448 116.9533282  44.6227292  85.0823365
 117.6404322  44.3089022  84.4944381 116.7981411  45.5268657  84.8090617
 116.5301258  42.7027886  87.3540832 116.5685358  42.1691476  88.1477951
 116.0241551  42.1763091  86.7351810 113.4783673  18.8195735  73.0445360
 113.7180272  19.4514260  73.7224378 112.6352870  18.4683775  73.3310719
 116.9533283  21.6289415  71.8068672 117.6404323  21.3151145  71.2189687
 116.7981412  22.5330780  71.5335923 116.5301260  19.7090008  74.0786139
 116.5685359  19.1753599  74.8723257 116.0241552  19.1825214  73.4597116
  44.8375085  69.1548417 130.4331884  44.1636784  69.4580113 131.0416842
  45.2240907  69.9577497 130.0837341  48.7431971  66.4398672 128.7059331
  48.6645602  66.1058536 129.5995089  49.5641638  66.9320440 128.7050803
  46.3135923  63.7566668 128.3269309  47.0171773  63.9616670 128.9426965
  45.5898571  64.3243430 128.5918393  49.5574856  70.4933972 128.0900629
  48.6804322  70.3722772 127.7262875  50.0332609  69.7020050 127.8379517
  51.0728949  68.2885294 128.0329718  51.9348113  68.6140192 128.2925535
  51.2579293  67.5016790 127.5202784  44.8375086  46.1610539 117.1577191
  44.1636785  46.4642236 117.7662149  45.2240908  46.9639620 116.8082648
  48.7431972  43.4460795 115.4304637  48.6645604  43.1120658 116.3240395
  49.5641639  43.9382563 115.4296110  46.3135924  40.7628790 115.0514616
  47.0171774  40.9678793 115.6672271  45.5898573  41.3305552 115.3163699
  49.5183418  53.5243875 123.1226668  48.9548283  53.4333812 122.3542956
  49.4035813  52.7043780 123.6029161  55.0982977  57.1914843 118.4341133
  54.4470957  57.7768923 118.0475147  55.8927340  57.7221038 118.4936171
  49.0238604  54.2803980 118.8328268  49.7969480  53.7332967 118.6941143
  49.3764003  55.1448229 119.0442729  51.3604882  50.4396646 116.4646717
  51.6130403  49.9178167 115.7030180  50.4229441  50.2762791 116.5673401
  56.4048165  49.4432424 124.2721461  57.1911254  49.0251848 123.9211878
  56.6686869  50.3478517 124.4403109  56.5758242  54.8805275 118.9710117
  55.9404075  54.9539901 119.6831022  56.2455649  55.4698874 118.2929197
  61.8056592  49.3807658 125.1754439  62.5381764  48.8106874 125.4092269
  61.0495948  48.9929258 125.6160945  51.0801171  52.3424752 118.6671092
  50.9637429  51.6669655 119.3352177  51.1903431  51.8557126 117.8503245
  53.4232712  51.8034899 122.3717782  53.0590919  51.2765520 123.0830703
  54.2799828  51.4133368 122.1984267  53.0638199  46.8324799 117.3679130
  53.2312601  47.7005035 117.7349601  52.8735368  46.9952081 116.4440419
  53.0427420  49.2882456 118.3525797  52.9227045  49.7339507 119.1911277
  52.3480008  49.6367774 117.7939335  50.8034312  62.0586098 122.0015928
  50.7258341  63.0093923 122.0804409  50.1995955  61.7131971 122.6590854
  58.7412486  49.7603929 119.1806131  59.6530342  49.9931316 119.0053829
  58.2322133  50.3440974 118.6181210  57.3482068  54.7429748 126.5719712
  56.7190930  54.9075462 125.8695780  56.9607730  55.1571357 127.3430676
  61.2271300  55.6784186 123.9264076  60.5422338  56.0583087 123.3761110
  61.3115149  56.2879512 124.6596024  52.9010030  54.4804156 123.8369798
  53.3648375  54.7591859 123.0474420  52.6366828  53.5787601 123.6542888
  51.8378916  50.6027308 120.6459363  52.5402959  51.0548352 121.1133289
  51.5059544  49.9611127 121.2739256  59.5968059  56.2016100 128.6981777
  60.4185503  55.7996288 128.4164459  59.5930462  56.0984334 129.6497893
  67.6874052  52.5454849 125.0466749  66.9337761  51.9762247 124.8910753
  67.8221594  52.5117513 125.9937383  53.0772681  57.4168251 120.7221468
  52.9418355  58.2619787 121.1506316  53.6182493  57.6187529 119.9587402
  46.5302078  54.9343689 121.2949393  47.0426598  55.7286939 121.4454958
  47.1824791  54.2369980 121.2282994  48.3396963  58.0509445 123.3772146
  48.5163591  58.9727410 123.1893130  49.1353796  57.7367865 123.8066526
  56.3915427  50.9307424 117.7592797  55.8762050  51.7012029 117.9981184
  56.1192735  50.2572560 118.3825858  61.3649701  53.6839779 119.6945970
  60.5879144  53.3450938 119.2501132  62.0441182  53.6892402 119.0200935
  56.1801730  48.8034516 119.5852578  55.8751866  49.1180665 120.4362721
  57.1332172  48.8815936 119.6279911  54.6248162  54.9624739 121.2345532
  54.0969523  54.2277499 120.9218769  54.1235665  55.7399416 120.9885500
  59.6041008  53.1573760 126.3512578  58.9464682  53.8473021 126.4392707
  60.4081407  53.5470192 126.6946564  58.4146467  51.5118133 124.4016520
  58.9278348  52.1448124 124.9038229  59.0647691  50.9119328 124.0359880
  49.6836477  47.6548867 117.6148028  48.8473789  47.9923553 117.9357303
  49.5441246  47.5197847 116.6775165  52.7700762  52.7804950 114.2380505
  51.8627824  52.5494203 114.4371654  53.2671794  51.9842569 114.4254486
  55.6768841  61.4902457 117.1577191  55.0030540  61.7934154 117.7662149
  56.0634663  62.2931537 116.8082648  55.6762345  50.3859004 121.7777540
  56.4234164  50.8980401 121.4684663  55.9453935  50.0643057 122.6381934
  53.9488995  52.8817545 118.7604495  53.0400215  52.5976577 118.8576965
  53.9784079  53.3016623 117.9007802  59.1808263  56.4924134 122.5295662
  58.7270590  55.6515044 122.5860853  58.5502230  57.1285532 122.8670442
  57.6241202  58.3300631 123.4645480  57.9164176  58.8905688 122.7457846
  58.1339823  58.6229192 124.2198640  53.6465083  54.4226288 116.0992573
  53.2084513  53.7062147 115.6398211  54.3875524  54.6502403 115.5377665
  52.5874827  59.1080982 124.5538934  52.5451006  59.3341828 123.6247466
  53.5037526  58.8744356 124.7024735  61.7638198  52.6983485 122.1568892
  61.6256097  52.8885081 121.2290081  61.4074417  53.4602868 122.6136943
  61.7907578  54.7660012 127.1680163  62.2244084  54.6735301 128.0163217
  62.5039158  54.7417513 126.5300179  50.7040628  55.9844011 124.3500896
  51.4981227  55.4894331 124.1483471  49.9932320  55.4561874 123.9868602
  55.5235473  58.3662106 128.7013264  55.5772495  58.9353043 129.4690980
  54.6550254  58.5363991 128.3367301  47.0123392  50.1287093 120.4260649
  46.0820980  50.0671548 120.6430611  47.1080864  49.6063045 119.6297290
  53.8760056  61.6582129 119.3724270  54.0511812  61.1870172 120.1869893
  53.1892844  62.2847895 119.6005531  54.8317119  55.9354636 125.4187571
  54.4966952  55.8955405 126.3145221  54.3321065  55.2699351 124.9457982
  57.7676311  53.2810670 115.6924631  57.1505482  52.5557498 115.5957684
  57.2992799  54.0420030 115.3491705  48.4421141  64.8071492 126.1464130
  48.6817740  65.4390016 126.8243149  47.5990338  64.4559532 126.4329489
  49.5574857  47.4996094 114.8145935  48.6804323  47.3784895 114.4508182
  50.0332610  46.7082172 114.5624824  52.9549003  60.6150614 128.5505634
  52.8819175  61.4205586 129.0624939  52.5126396  60.8142580 127.7253656
  52.7438783  59.8522385 122.0608456  51.9606305  60.3944065 122.1546680
  53.4431528  60.3696364 122.4602697  63.9065190  51.3657380 126.3460953
  63.8955067  52.2482095 125.9754886  63.0382570  51.0128930 126.1515490
  57.1365214  54.4188701 122.2781085  56.2021492  54.5390164 122.1085789
  57.3141882  53.5161168 122.0141094  60.5237765  50.2606020 122.8131119
  60.9898217  51.0934012 122.7391421  60.9745265  49.7951002 123.5176377
  58.5913996  56.6049842 119.8117271  58.8673840  56.4906436 120.7211145
  57.7218495  56.2067327 119.7729444  55.2268060  60.8536193 123.4550084
  55.4090455  60.0357849 123.9177837  56.0501046  61.0703885 123.0174974
  55.5610226  59.7804378 120.7165133  56.0897992  59.2696832 120.1035295
  55.8238445  59.4646908 121.5810666  48.9165974  60.8319494 123.4762909
  48.2476349  61.3165622 122.9926949  48.7778843  61.0788715 124.3906287
  53.0571242  62.8663238 130.0745567  53.6089550  63.0294859 130.8394652
  53.3977436  63.4567676 129.4025592  56.1939629  60.8145213 127.0609249
  56.0690769  60.0134953 126.5520195  56.8518721  61.3091407 126.5723219
  58.2574538  58.6154234 128.6888799  57.3104873  58.4959585 128.6167126
  58.6057311  57.7276732 128.7715061  55.2620971  58.4106950 124.8893152
  55.1145934  57.4823657 125.0700722  56.0874465  58.4327040 124.4050227
  58.8655093  59.2335509 125.9758024  59.7901640  59.0278370 125.8382475
  58.6970396  58.9851910 126.8847366  51.1151363  45.5599638 118.9466936
  51.8359725  45.9380891 118.4430653  50.4916667  46.2788515 119.0501914
  55.2582485  46.2644787 119.8825269  55.4746100  47.1469425 119.5814097
  54.7776553  45.8731001 119.1530911  58.6550409  59.7521176 121.3320116
  58.8287287  59.1867598 120.5793968  59.1479300  60.5522071 121.1499606
  64.5089800  52.5157599 122.9510416  64.9520946  51.7664924 122.5529539
  63.6316311  52.5067735 122.5684148  59.6425582  59.0687940 118.4317014
  60.3376486  59.6894633 118.6504329  59.9848732  58.2183292 118.7069392
  61.5417005  56.5187646 119.9604345  62.0668329  56.8574919 119.2353665
  61.4539357  55.5834661 119.7767479  53.2257665  62.5859629 124.3199598
  52.7862656  62.0936008 125.0132455  53.9765782  62.0432597 124.0791673
  45.7050004  58.7771170 124.3224226  46.5308024  58.4774942 123.9422870
  45.3544056  58.0078792 124.7714015  50.6731538  58.1297638 126.3921900
  50.0511547  57.4668343 126.0924128  51.3436405  58.1558770 125.7095547
  50.2345045  56.6801562 119.8680360  50.3833165  57.3637026 119.2147033
  51.0411488  56.6606652 120.3829816  64.0522665  53.9862837 125.3432863
  64.8869556  54.4252641 125.5070423  64.1881794  53.5101490 124.5241109
  47.9897678  52.7066739 120.8741429  47.7443719  51.8029069 121.0721639
  48.1593592  52.7083890 119.9320907  47.2593325  48.4395097 118.3727591
  46.5662570  48.5139452 117.7167627  47.0145077  47.6755440 118.8949108
  53.7340450  59.1749692 117.3392108  53.1614417  59.7939879 116.8862580
  54.3073244  59.7249054 117.8732030  56.9537710  59.4586842 118.4700690
  57.8868383  59.3932404 118.6733565  56.8660923  60.2943109 118.0115223
  59.5825727  58.7752713 115.4304637  59.5039358  58.4412576 116.3240395
  60.4035393  59.2674480 115.4296110  54.1187249  50.5110505 114.6808160
  55.0646353  50.3816713 114.7496578  53.7401494  49.7725167 115.1577588
  68.0980468  52.7030459 127.7786993  68.8283856  52.4415747 128.3394696
  67.4887413  51.9659181 127.8189061  66.1795765  50.8438321 128.3761444
  65.4528928  50.7094286 127.7677936  65.7643052  51.1515150 129.1818162
  52.3030166  48.4360481 114.6163045  51.3961621  48.1393594 114.6925759
  52.5806147  48.1390299 113.7497332  51.0728950  45.2947416 114.7575025
  51.9348114  45.6202315 115.0170842  51.2579295  44.5078912 114.2448090
  59.2261587  44.1675943 121.9010248  58.6460256  44.8260747 121.5188300
  58.9597520  43.3453287 121.4897665  58.0086465  46.3276033 120.9566596
  57.1212320  46.6125684 120.7386791  58.4240454  46.1669797 120.1093873
  46.0170715  60.9083784 126.0438041  45.8825183  60.1484185 125.4776039
  45.6002778  61.6324684 125.5766829  57.1529678  56.0920708 115.0514616
  57.8565528  56.2970710 115.6672271  56.4292327  56.6597470 115.3163699
  57.9827489  51.8430569 121.1716886  57.9262690  52.2999121 120.3324518
  58.5355831  51.0821254 120.9939729  61.7932295  47.6320301 121.9967005
  61.5369229  47.2316937 122.8275213  61.1685163  48.3464095 121.8717145
  66.1044632  50.3716374 124.5038297  65.5444190  50.4409564 125.2769859
  65.4988136  50.1957359 123.7837793  49.1739841  61.8053101 126.2556483
  49.0572225  62.7498534 126.1535173  48.3532287  61.5026663 126.6442282
  59.0616376  56.5303237 117.1013076  59.8961980  56.0984436 116.9190551
  58.9000719  56.3585251 118.0289970  58.7162268  53.0335350 118.4669415
  58.6611072  52.8679622 117.5257859  58.0908323  53.7411383 118.6231605
  52.0258393  42.5343459 118.0454734  52.0137063  43.4785299 118.2023004
  52.9181815  42.3513605 117.7514195  51.9547957  61.2112350 126.1322490
  51.0043588  61.2114211 126.0186862  52.2580443  60.4645084 125.6158525
  60.3577173  68.8535793 123.1226668  59.7942038  68.7625730 122.3542956
  60.2429568  68.0335697 123.6029161  65.9376732  72.5206760 118.4341133
  65.2864711  73.1060841 118.0475147  66.7321094  73.0512955 118.4936171
  59.8632359  69.6095898 118.8328268  60.6363235  69.0624885 118.6941143
  60.2157758  70.4740147 119.0442729  62.1998636  65.7688564 116.4646717
  62.4524157  65.2470085 115.7030180  61.2623196  65.6054709 116.5673401
  67.2441919  64.7724342 124.2721461  68.0305009  64.3543765 123.9211878
  67.5080624  65.6770434 124.4403109  67.4151997  70.2097192 118.9710117
  66.7797830  70.2831819 119.6831022  67.0849403  70.7990791 118.2929197
  61.9194925  67.6716670 118.6671092  61.8031183  66.9961573 119.3352177
  62.0297185  67.1849044 117.8503245  64.2626466  67.1326817 122.3717782
  63.8984673  66.6057438 123.0830703  65.1193582  66.7425286 122.1984267
  63.9031953  62.1616716 117.3679130  64.0706355  63.0296953 117.7349601
  63.7129122  62.3243998 116.4440419  60.1119768  67.0747492 125.0681665
  59.1870264  66.9423706 125.2759357  60.3604181  67.8541711 125.5651607
  63.8821174  64.6174374 118.3525797  63.7620799  65.0631425 119.1911277
  63.1873762  64.9659692 117.7939335  57.4728579  66.7180766 125.9025454
  57.6020960  66.9715245 126.8164866  56.7926030  67.3108474 125.5830109
  69.5806240  65.0895847 119.1806131  70.4924096  65.3223234 119.0053829
  69.0715887  65.6732891 118.6181210  66.9242215  61.2653883 127.4295992
  66.0626694  61.5635137 127.7212729  66.9504650  61.4824282 126.4977025
  63.7403784  69.8096074 123.8369798  64.2042130  70.0883777 123.0474420
  63.4760582  68.9079518 123.6542888  62.6772670  65.9319226 120.6459363
  63.3796714  66.3840270 121.1133289  62.3453299  65.2903045 121.2739256
  56.4198004  64.1902779 125.9476496  55.6297058  64.4460307 125.4716607
  56.9109252  65.0051117 126.0528537  58.3712750  64.5547358 122.9059973
  57.5743913  64.6666052 123.4243469  58.1438342  64.8934010 122.0400863
  54.7035707  64.4433269 128.3791487  54.9543746  65.3280279 128.6449063
  55.2395256  64.2637871 127.6066579  63.9166435  72.7460169 120.7221468
  63.7812110  73.5911704 121.1506316  64.4576248  72.9479446 119.9587402
  57.3695832  70.2635607 121.2949393  57.8820353  71.0578857 121.4454958
  58.0218545  69.5661897 121.2282994  67.2658899  56.2690731 129.2520361
  66.9223168  57.1592372 129.1759472  67.6337861  56.0792388 128.3889946
  55.3344749  68.5924261 122.0708964  56.1719971  69.0021269 121.8542671
  55.5123017  67.6523703 122.0409157  67.2309181  66.2599342 117.7592797
  66.7155805  67.0303946 117.9981184  66.9586490  65.5864478 118.3825858
  64.8156292  61.1049042 122.8178035  63.9597889  60.7155893 122.6383674
  65.2283244  61.1841003 121.9577820  66.3455439  58.6395386 127.2169595
  65.8420235  58.6025521 126.4037400  66.6386046  59.5488128 127.2766251
  62.5898325  58.7234115 126.2235776  63.4551322  58.5276924 125.8641666
  62.6575834  58.4944467 127.1505133  72.2043455  69.0131696 119.6945970
  71.4272898  68.6742856 119.2501132  72.8834936  69.0184319 119.0200935
  67.0195484  64.1326434 119.5852578  66.7145620  64.4472583 120.4362721
  67.9725927  64.2107854 119.6279911  65.4641916  70.2916657 121.2345532
  64.9363278  69.5569417 120.9218769  64.9629419  71.0691333 120.9885500
  60.1960644  60.9536323 123.5952143  60.7704396  60.7311505 122.8625336
  60.7831626  61.0225018 124.3480744  60.5230231  62.9840784 117.6148028
  59.6867543  63.3215471 117.9357303  60.3835001  62.8489764 116.6775165
  62.4983312  57.8277572 122.3227213  61.8447724  57.5126589 121.6983827
  62.4563786  57.2053313 123.0487036  63.6094517  68.1096867 114.2380505
  62.7021578  67.8786121 114.4371654  64.1065548  67.3134487 114.4254486
  66.5162595  76.8194375 117.1577191  65.8424294  77.1226071 117.7662149
  66.9028417  77.6223455 116.8082648  66.5156100  65.7150922 121.7777540
  67.2627919  66.2272319 121.4684663  66.7847689  65.3934974 122.6381934
  64.7882750  68.2109462 118.7604495  63.8793969  67.9268495 118.8576965
  64.8177834  68.6308541 117.9007802  68.9634937  62.7508038 123.7596330
  68.2257694  62.2385424 124.0906572  69.2161710  62.3108419 122.9479607
  69.0646564  55.5284290 124.3538099  69.3705441  54.6681653 124.0664014
  69.7899169  56.1201910 124.1537093  55.3570920  65.9314976 122.7419697
  55.1595320  65.3384337 122.0170764  54.8017584  65.6267187 123.4595636
  63.3367644  65.8238083 124.8614290  63.3916254  64.8711919 124.7856767
  62.5258846  65.9797522 125.3455589  64.4858838  69.7518206 116.0992573
  64.0478268  69.0354065 115.6398211  65.2269279  69.9794321 115.5377665
  61.2760004  64.4415143 122.6204669  60.4627869  64.7409313 123.0269861
  61.7718998  64.0470831 123.3379151  60.7674079  62.0133498 128.2365904
  61.4073458  61.8722257 127.5388867  59.9351609  61.7268011 127.8604506
  57.8517146  65.4579010 120.4260649  56.9214734  65.3963466 120.6430611
  57.9474618  64.9354963 119.6297290  57.7702695  61.9833823 123.0138891
  58.0309512  62.8979156 122.9048051  58.5919867  61.5158266 123.1635504
  68.6070065  68.6102588 115.6924631  67.9899236  67.8849416 115.5957684
  68.1386554  69.3711948 115.3491705  60.3968611  62.8288012 114.8145935
  59.5198078  62.7076813 114.4508182  60.8726364  62.0374090 114.5624824
  51.9170751  67.6165172 124.9087442  52.6041791  67.3026902 124.3208458
  51.7618880  68.5206536 124.6354694  56.7205474  62.5055368 129.3372466
  56.6363662  61.8981038 128.6022876  55.8988180  62.9964386 129.3381962
  66.8929187  60.9908932 124.7042661  67.3897887  60.2378894 124.3843731
  66.1216169  61.0273248 124.1385870  63.4764156  63.1326315 124.4314346
  63.1061944  62.5797355 125.1195251  63.9723249  62.5284448 123.8789346
  69.3348182  57.9578525 126.8522020  68.4211262  58.1882752 127.0204227
  69.7641284  58.0416969 127.7036052  51.4938728  65.6965765 127.1804910
  51.5322827  65.1629356 127.9742028  50.9879020  65.1700970 126.5615887
  58.8729490  60.5430305 130.6767452  58.9370816  61.4045136 130.2644849
  58.8096610  59.9304307 129.9439810  55.1247305  64.4229867 120.2558841
  55.4200746  63.5140545 120.2025895  54.2235341  64.4017607 119.9339843
  58.6541552  62.4985864 126.2386389  57.9328138  63.1121831 126.0993863
  59.4434808  63.0343628 126.1603035  56.8535147  62.1043965 120.3798166
  56.5247853  61.2241344 120.1973272  57.2074517  62.0491633 121.2674555
  59.9676970  62.3916935 120.7473644  60.3073042  62.9202856 120.0252252
  60.4149090  62.7297341 121.5232210  63.3136883  57.8603298 128.6504035
  64.1362952  57.3863776 128.5282925  63.5574946  58.6393781 129.1502721
  61.9545117  60.8891556 118.9466936  62.6753479  61.2672809 118.4430653
  61.3310421  61.6080433 119.0501914  66.0976240  61.5936705 119.8825269
  66.3139854  62.4761343 119.5814097  65.6170307  61.2022919 119.1530911
  60.8375461  64.5522418 126.4596013  60.6920042  64.8662721 127.3520295
  60.3600665  65.1707319 125.9066912  62.6971844  61.5424966 126.5076903
  62.6833413  60.6466060 126.1709201  63.4144272  61.5495630 127.1415189
  62.1008740  60.4239347 121.7764473  62.2224651  59.4955993 121.9755361
  61.8110782  60.4378033 120.8642789  64.9699930  58.1094257 124.9131193
  64.9921627  58.1733590 123.9583172  65.3867989  57.2698766 125.1071699
  56.5443759  74.1063088 124.3224226  57.3701779  73.8066860 123.9422870
  56.1937811  73.3370710 124.7714015  54.7452364  72.0249414 125.2813160
  53.9084272  71.5971589 125.0997161  54.7176009  72.2181858 126.2183951
  61.0738799  72.0093479 119.8680360  61.2226919  72.6928944 119.2147033
  61.8805242  71.9898569 120.3829816  58.8291432  68.0358657 120.8741429
  58.5837474  67.1320987 121.0721639  58.9987347  68.0375807 119.9320907
  58.0987080  63.7687014 118.3727591  57.4056324  63.8431369 117.7167627
  57.8538831  63.0047358 118.8949108  66.7700736  55.3282616 125.7767081
  67.0502490  54.6605805 126.4027508  67.5551343  55.5211711 125.2641745
  64.5734205  74.5041610 117.3392108  64.0008172  75.1231797 116.8862580
  65.1466998  75.0540971 117.8732030  67.7931464  74.7878760 118.4700690
  68.7262138  74.7224322 118.6733565  67.7054677  75.6235027 118.0115223
  70.4219481  74.1044630 115.4304637  70.3433113  73.7704494 116.3240395
  71.2429148  74.5966398 115.4296110  64.9581003  65.8402422 114.6808160
  65.9040108  65.7108631 114.7496578  64.5795248  65.1017084 115.1577588
  70.9302888  57.5058429 124.6435052  70.7327709  57.1973517 125.5278384
  71.5402593  58.2320067 124.7732982  63.1423920  63.7652399 114.6163045
  62.2355376  63.4685512 114.6925759  63.4199901  63.4682217 113.7497332
  54.0601861  65.0858762 125.0662092  53.7404645  64.2324070 124.7736466
  53.5135289  65.3007340 125.8220059  64.7585986  58.3089289 120.7707287
  63.9486714  57.9636374 121.1462533  65.4470403  57.9996832 121.3594898
  66.6876534  57.3867335 122.3931583  67.2407573  57.8062789 123.0521606
  66.9246621  56.4603084 122.4354539  61.9122705  60.6239334 114.7575025
  62.7741869  60.9494232 115.0170842  62.0973049  59.8370830 114.2448090
  53.9290121  68.7061674 127.0355213  53.2353592  68.2915627 126.5225168
  54.6763112  68.7482210 126.4388632  70.0655341  59.4967861 121.9010248
  69.4854010  60.1552665 121.5188300  69.7991274  58.6745205 121.4897665
  68.5158908  58.8972918 124.1031568  69.0158686  59.0089453 123.2945887
  69.1594516  58.5933971 124.7432376  55.8426863  68.6379928 124.9121228
  55.8197551  68.7367615 123.9603111  56.1527500  69.4845078 125.2338394
  68.8480219  61.6567951 120.9566596  67.9606074  61.9417602 120.7386791
  69.2634208  61.4961714 120.1093873  67.9923433  71.4212626 115.0514616
  68.6959283  71.6262628 115.6672271  67.2686082  71.9889387 115.3163699
  68.8221243  67.1722487 121.1716886  68.7656444  67.6291038 120.3324518
  69.3749586  66.4113171 120.9939729  72.6326049  62.9612219 121.9967005
  72.3762983  62.5608854 122.8275213  72.0078917  63.6756013 121.8717145
  69.9010130  71.8595155 117.1013076  70.7355734  71.4276353 116.9190551
  69.7394473  71.6877168 118.0289970  69.5556022  68.3627268 118.4669415
  69.5004826  68.1971540 117.5257859  68.9302078  69.0703301 118.6231605
  62.8652148  57.8635377 118.0454734  62.8530818  58.8077217 118.2023004
  63.7575570  57.6805523 117.7514195  66.6804267  54.4578154 122.3000670
  65.9136663  53.9036640 122.4457353  67.0914972  54.5300023 123.1614822
  71.2362366  78.1579930 114.8145935  70.3591832  78.0368730 114.4508182
  71.7120119  77.3666008 114.5624824  72.7516459  75.9531252 114.7575025
  73.6135623  76.2786150 115.0170842  72.9366803  75.1662748 114.2448090
  44.8375088  23.1672662 103.8822497  44.1636786  23.4704359 104.4907455
  45.2240910  23.9701742 103.5327955  48.7431973  20.4522917 102.1549944
  48.6645605  20.1182781 103.0485702  49.5641640  20.9444685 102.1541416
  46.3135925  17.7690913 101.7759922  47.0171775  17.9740915 102.3917578
  45.5898574  18.3367675 102.0409006  49.5183420  30.5305998 109.8471975
  48.9548285  30.4395935 109.0788263  49.4035815  29.7105902 110.3274467
  55.0982978  34.1976965 105.1586440  54.4470958  34.7831046 104.7720454
  55.8927341  34.7283160 105.2181477  49.0238605  31.2866103 105.5573574
  49.7969481  30.7395090 105.4186450  49.3764004  32.1510352 105.7688036
  51.3604883  27.4458769 103.1892024  51.6130404  26.9240290 102.4275487
  50.4229442  27.2824914 103.2918708  56.4048166  26.4494547 110.9966767
  57.1911255  26.0313970 110.6457184  56.6686870  27.3540639 111.1648416
  56.5758243  31.8867397 105.6955424  55.9404076  31.9602024 106.4076329
  56.2455650  32.4760996 105.0174503  61.8056593  26.3869780 111.8999746
  62.5381765  25.8168997 112.1337575  61.0495949  25.9991381 112.3406251
  51.0801172  29.3486875 105.3916399  50.9637430  28.6731778 106.0597483
  51.1903432  28.8619249 104.5748552  53.4232713  28.8097022 109.0963088
  53.0590920  28.2827643 109.8076010  54.2799829  28.4195491 108.9229574
  53.0638200  23.8386921 104.0924437  53.2312602  24.7067158 104.4594908
  52.8735369  24.0014203 103.1685726  53.0427421  26.2944579 105.0771104
  52.9227046  26.7401630 105.9156584  52.3480009  26.6429897 104.5184642
  50.8034313  39.0648221 108.7261235  50.7258343  40.0156046 108.8049715
  50.1995956  38.7194093 109.3836161  58.7412487  26.7666052 105.9051438
  59.6530343  26.9993439 105.7299135  58.2322134  27.3503096 105.3426516
  57.3482069  31.7491871 113.2965019  56.7190932  31.9137585 112.5941087
  56.9607731  32.1633480 114.0675983  61.2271301  32.6846308 110.6509383
  60.5422339  33.0645210 110.1006416  61.3115150  33.2941635 111.3841331
  52.9010031  31.4866279 110.5615104  53.3648377  31.7653982 109.7719727
  52.6366829  30.5849723 110.3788195  51.8378917  27.6089431 107.3704669
  52.5402961  28.0610475 107.8378596  51.5059546  26.9673250 107.9984562
  59.5968061  33.2078223 115.4227084  60.4185504  32.8058410 115.1409765
  59.5930464  33.1046457 116.3743200  67.6874054  29.5516971 111.7712055
  66.9337762  28.9824369 111.6156060  67.8221595  29.5179636 112.7182690
  53.0772682  34.4230374 107.4466775  52.9418357  35.2681909 107.8751622
  53.6182494  34.6249651 106.6832708  46.5302079  31.9405812 108.0194700
  47.0426600  32.7349062 108.1700264  47.1824792  31.2432102 107.9528301
  48.3396964  35.0571568 110.1017453  48.5163592  35.9789533 109.9138437
  49.1353797  34.7429987 110.5311833  56.3915428  27.9369547 104.4838103
  55.8762052  28.7074151 104.7226491  56.1192737  27.2634683 105.1071165
  61.3649702  30.6901901 106.4191277  60.5879145  30.3513061 105.9746439
  62.0441183  30.6954524 105.7446242  56.1801731  25.8096639 106.3097884
  55.8751867  26.1242788 107.1608028  57.1332173  25.8878059 106.3525217
  54.6248163  31.9686862 107.9590838  54.0969525  31.2339622 107.6464076
  54.1235666  32.7461538 107.7130807  59.6041009  30.1635883 113.0757885
  58.9464684  30.8535144 113.1638013  60.4081408  30.5532314 113.4191871
  58.4146468  28.5180255 111.1261826  58.9278350  29.1510247 111.6283536
  59.0647692  27.9181451 110.7605186  49.6836478  24.6610989 104.3393335
  48.8473790  24.9985676 104.6602610  49.5441247  24.5259969 103.4020472
  52.7700763  29.7867072 100.9625811  51.8627825  29.5556326 101.1616960
  53.2671795  28.9904692 101.1499793  55.6768842  38.4964579 103.8822497
  55.0030541  38.7996276 104.4907455  56.0634664  39.2993660 103.5327955
  55.6762347  27.3921126 108.5022847  56.4234165  27.9042524 108.1929969
  55.9453936  27.0705179 109.3627241  53.9488997  29.8879667 105.4849801
  53.0400216  29.6038700 105.5822271  53.9784081  30.3078746 104.6253108
  59.1808264  33.4986257 109.2540969  58.7270591  32.6577167 109.3106159
  58.5502231  34.1347655 109.5915749  57.6241203  35.3362753 110.1890787
  57.9164178  35.8967810 109.4703153  58.1339824  35.6291314 110.9443946
  53.6465085  31.4288411 102.8237880  53.2084514  30.7124270 102.3643517
  54.3875525  31.6564526 102.2622971  52.5874829  36.1143104 111.2784240
  52.5451007  36.3403951 110.3492772  53.5037527  35.8806479 111.4270041
  61.7638199  29.7045608 108.8814199  61.6256098  29.8947204 107.9535388
  61.4074418  30.4664991 109.3382250  61.7907579  31.7722135 113.8925470
  62.2244086  31.6797424 114.7408524  62.5039160  31.7479635 113.2545486
  50.7040629  32.9906133 111.0746203  51.4981228  32.4956454 110.8728778
  49.9932322  32.4623997 110.7113909  55.5235474  35.3724229 115.4258571
  55.5772496  35.9415165 116.1936287  54.6550255  35.5426114 115.0612608
  47.0123393  27.1349215 107.1505956  46.0820981  27.0733671 107.3675918
  47.1080865  26.6125168 106.3542597  53.8760057  38.6644252 106.0969577
  54.0511813  38.1932295 106.9115199  53.1892845  39.2910018 106.3250837
  54.8317120  32.9416758 112.1432878  54.4966953  32.9017528 113.0390528
  54.3321066  32.2761474 111.6703288  57.7676312  30.2872792 102.4169938
  57.1505483  29.5619621 102.3202990  57.2992801  31.0482153 102.0737012
  48.4421143  41.8133615 112.8709437  48.6817741  42.4452139 113.5488455
  47.5990339  41.4621655 113.1574796  49.5574858  24.5058217 101.5391242
  48.6804324  24.3847018 101.1753489  50.0332611  23.7144295 101.2870131
  52.9549004  37.6212737 115.2750941  52.8819176  38.4267709 115.7870245
  52.5126398  37.8204703 114.4498962  52.7438784  36.8584507 108.7853762
  51.9606306  37.4006187 108.8791987  53.4431529  37.3758487 109.1848004
  63.9065192  28.3719502 113.0706259  63.8955068  29.2544218 112.7000192
  63.0382571  28.0191053 112.8760796  57.1365215  31.4250824 109.0026391
  56.2021494  31.5452286 108.8331095  57.3141883  30.5223291 108.7386401
  60.5237766  27.2668143 109.5376425  60.9898218  28.0996135 109.4636728
  60.9745267  26.8013125 110.2421684  58.5913997  33.6111964 106.5362577
  58.8673841  33.4968559 107.4456451  57.7218496  33.2129449 106.4974750
  55.2268061  37.8598315 110.1795391  55.4090456  37.0419971 110.6423143
  56.0501047  38.0766007 109.7420281  55.5610227  36.7866500 107.4410439
  56.0897993  36.2758955 106.8280602  55.8238446  36.4709031 108.3055972
  48.9165975  37.8381617 110.2008215  48.2476350  38.3227745 109.7172255
  48.7778844  38.0850837 111.1151594  53.0571243  39.8725361 116.7990874
  53.6089551  40.0356982 117.5639959  53.3977437  40.4629798 116.1270899
  56.1939631  37.8207336 113.7854556  56.0690770  37.0197076 113.2765501
  56.8518722  38.3153529 113.2968526  58.2574539  35.6216356 115.4134106
  57.3104875  35.5021707 115.3412433  58.6057312  34.7338854 115.4960367
  55.2620972  35.4169072 111.6138458  55.1145935  34.4885780 111.7946028
  56.0874466  35.4389163 111.1295533  58.8655094  36.2397631 112.7003331
  59.7901642  36.0340492 112.5627782  58.6970398  35.9914032 113.6092672
  51.1151364  22.5661761 105.6712243  51.8359726  22.9443014 105.1675960
  50.4916668  23.2850638 105.7747221  55.2582487  23.2706910 106.6070575
  55.4746101  24.1531548 106.3059404  54.7776554  22.8793123 105.8776217
  58.6550410  36.7583299 108.0565422  58.8287288  36.1929721 107.3039275
  59.1479302  37.5584193 107.8744912  64.5089802  29.5219722 109.6755722
  64.9520948  28.7727047 109.2774845  63.6316312  29.5129858 109.2929454
  59.6425583  36.0750063 105.1562321  60.3376488  36.6956756 105.3749635
  59.9848733  35.2245414 105.4314699  61.5417006  33.5249768 106.6849651
  62.0668330  33.8637041 105.9598971  61.4539359  32.5896784 106.5012786
  53.2257667  39.5921752 111.0444905  52.7862657  39.0998130 111.7377761
  53.9765784  39.0494719 110.8036980  45.7050006  35.7833293 111.0469533
  46.5308026  35.4837065 110.6668176  45.3544058  35.0140915 111.4959321
  50.6731539  35.1359761 113.1167206  50.0511548  34.4730466 112.8169434
  51.3436406  35.1620893 112.4340854  50.2345046  33.6863684 106.5925667
  50.3833166  34.3699149 105.9392340  51.0411489  33.6668774 107.1075123
  64.0522666  30.9924960 112.0678170  64.8869558  31.4314764 112.2315730
  64.1881795  30.5163613 111.2486415  47.9897679  29.7128862 107.5986736
  47.7443721  28.8091192 107.7966946  48.1593593  29.7146012 106.6566214
  47.2593326  25.4457219 105.0972897  46.5662571  25.5201574 104.4412933
  47.0145078  24.6817563 105.6194414  53.7340451  36.1811815 104.0637414
  53.1614418  36.8002002 103.6107886  54.3073245  36.7311176 104.5977336
  56.9537711  36.4648965 105.1945997  57.8868384  36.3994526 105.3978872
  56.8660924  37.3005232 104.7360529  59.5825728  35.7814835 102.1549944
  59.5039359  35.4474699 103.0485702  60.4035395  36.2736603 102.1541416
  54.1187250  27.5172627 101.4053467  55.0646355  27.3878836 101.4741885
  53.7401495  26.7787289 101.8822895  68.0980469  29.7092581 114.5032300
  68.8283857  29.4477869 115.0640003  67.4887414  28.9721303 114.5434368
  66.1795766  27.8500444 115.1006751  65.4528930  27.7156409 114.4923242
  65.7643053  28.1577272 115.9063469  52.3030167  25.4422604 101.3408352
  51.3961622  25.1455717 101.4171066  52.5806148  25.1452422 100.4742638
  51.0728952  22.3009539 101.4820331  51.9348116  22.6264437 101.7416149
  51.2579296  21.5141035 100.9693397  59.2261588  21.1738065 108.6255554
  58.6460257  21.8322870 108.2433607  58.9597521  20.3515410 108.2142972
  58.0086466  23.3338156 107.6811902  57.1212321  23.6187806 107.4632097
  58.4240455  23.1731919 106.8339179  46.0170717  37.9145907 112.7683347
  45.8825184  37.1546308 112.2021345  45.6002779  38.6386807 112.3012136
  57.1529680  33.0982831 101.7759922  57.8565530  33.3032833 102.3917578
  56.4292328  33.6659592 102.0409006  57.9827490  28.8492692 107.8962193
  57.9262691  29.3061243 107.0569825  58.5355832  28.0883376 107.7185035
  61.7932296  24.6382424 108.7212312  61.5369230  24.2379059 109.5520520
  61.1685164  25.3526218 108.5962451  66.1044634  27.3778497 111.2283604
  65.5444192  27.4471686 112.0015166  65.4988137  27.2019482 110.5083100
  49.1739842  38.8115224 112.9801790  49.0572227  39.7560656 112.8780480
  48.3532289  38.5088786 113.3687589  59.0616377  33.5365360 103.8258382
  59.8961981  33.1046558 103.6435857  58.9000720  33.3647373 104.7535277
  58.7162269  30.0397473 105.1914722  58.6611073  29.8741744 104.2503166
  58.0908324  30.7473506 105.3476912  52.0258395  19.5405582 104.7700040
  52.0137064  20.4847422 104.9268311  52.9181816  19.3575727 104.4759501
  51.9547959  38.2174472 112.8567797  51.0043590  38.2176334 112.7432169
  52.2580445  37.4707207 112.3403831  67.6900652  44.0535011 113.9213559
  68.3279062  43.9341758 113.2176899  67.5721495  45.0015855 113.9801511
  64.4990358  44.0062439 113.8575084  64.1608870  43.8903504 112.9695619
  65.3680127  43.6053604 113.8376090  60.3577174  45.8597915 109.8471975
  59.7942039  45.7687852 109.0788263  60.2429569  45.0397820 110.3274467
  64.9810141  45.1597291 119.8161289  64.9698782  44.7650089 118.9441793
  65.1430781  44.4263363 120.4095061  57.9041606  47.3549107 112.6856195
  58.6962898  47.0139932 112.2702495  58.1438256  47.4644082 113.6058349
  65.9376733  49.5268883 105.1586440  65.2864713  50.1122963 104.7720454
  66.7321096  50.0575078 105.2181477  59.8632360  46.6158020 105.5573574
  60.6363236  46.0687007 105.4186450  60.2157759  47.4802270 105.7688036
  61.7017402  47.9434402 118.7640473  61.4107268  48.8480033 118.6487140
  62.3374387  47.9850930 119.4784543  62.6273609  45.3211251 115.3541833
  63.2237182  45.0967273 114.6398796  62.6848581  44.5795996 115.9567281
  62.1998638  42.7750686 103.1892024  62.4524158  42.2532208 102.4275487
  61.2623197  42.6116832 103.2918708  67.2441921  41.7786465 110.9966767
  68.0305010  41.3605888 110.6457184  67.5080625  42.6832557 111.1648416
  67.4151998  47.2159315 105.6955424  66.7797831  47.2893942 106.4076329
  67.0849404  47.8052914 105.0174503  72.6450348  41.7161698 111.8999746
  73.3775520  41.1460915 112.1337575  71.8889703  41.3283298 112.3406251
  61.9194926  44.6778792 105.3916399  61.8031185  44.0023696 106.0597483
  62.0297186  44.1911166 104.5748552  64.2626467  44.1388939 109.0963088
  63.8984675  43.6119560 109.8076010  65.1193583  43.7487408 108.9229574
  70.1675768  35.4283272 116.3594354  69.8359093  36.2978683 116.1355569
  69.5721381  35.1119556 117.0388385  63.9031954  39.1678839 104.0924437
  64.0706357  40.0359075 104.4594908  63.7129123  39.3306121 103.1685726
  66.6607288  47.6295818 115.7590267  66.3608011  48.5320857 115.6506074
  66.3158347  47.3628001 116.6111420  60.1119769  44.0809615 111.7926972
  59.1870266  43.9485829 112.0004663  60.3604182  44.8603834 112.2896914
  70.0604431  40.1478358 113.4387704  69.1521309  40.0793767 113.1446465
  70.0092027  40.6250303 114.2669530  63.8821175  41.6236497 105.0771104
  63.7620800  42.0693547 105.9156584  63.1873764  41.9721814 104.5184642
  57.4728580  43.7242888 112.6270761  57.6020961  43.9777367 113.5410172
  56.7926031  44.3170596 112.3075416  61.6428067  54.3940138 108.7261235
  61.5652097  55.3447963 108.8049715  61.0389711  54.0486011 109.3836161
  64.1345297  41.5668004 121.3822602  63.3578631  42.1261924 121.3725466
  64.7735860  42.0524787 121.9037472  71.9266078  38.3494797 115.2165578
  71.2840458  38.6427330 114.5705373  71.4221006  38.2347717 116.0218775
  69.5806241  42.0957970 105.9051438  70.4924098  42.3285357 105.7299135
  69.0715888  42.6795014 105.3426516  62.3891669  44.3753457 120.9440569
  63.1306354  44.9138501 120.6675392  61.6828655  45.0019746 121.1012121
  67.8647009  46.5182598 119.5412730  68.2730365  46.0765008 118.7967363
  67.1424271  45.9435225 119.7946923  64.2178079  41.4555204 116.9146287
  65.0639274  41.8794618 117.0580936  64.1576717  40.7988829 117.6084850
  68.1875824  47.0783788 113.2965019  67.5584686  47.2429502 112.5941087
  67.8001486  47.4925398 114.0675983  72.0665056  48.0138226 110.6509383
  71.3816094  48.3937127 110.1006416  72.1508905  48.6233553 111.3841331
  67.3677524  39.1159573 118.5727461  67.1238456  39.8701633 118.0361736
  67.6437455  39.4944920 119.4074708  69.3215987  45.6598185 117.2504726
  69.5332882  46.3029945 116.5739107  69.2745735  44.8260502 116.7826656
  66.9242216  38.2716006 114.1541299  66.0626695  38.5697259 114.4458036
  66.9504651  38.4886405 113.2222331  63.7403786  46.8158196 110.5615104
  64.2042131  47.0945899 109.7719727  63.4760584  45.9141641 110.3788195
  60.6327867  46.3629678 113.4994867  61.2029224  46.7916946 112.8612352
  61.2235979  46.0812263 114.1979053  62.6772672  42.9381349 107.3704669
  63.3796715  43.3902392 107.8378596  62.3453300  42.2965168 107.9984562
  61.1253033  41.5293105 121.7455879  60.4951694  42.2109386 121.9791276
  61.0189121  41.4176187 120.8009017  56.4198006  41.1964901 112.6721803
  55.6297060  41.4522430 112.1961914  56.9109253  42.0113239 112.7773843
  70.4361815  48.5370141 115.4227084  71.2579259  48.1350328 115.1409765
  70.4324218  48.4338375 116.3743200  58.3712751  41.5609481 109.6305280
  57.5743914  41.6728175 110.1488775  58.1438343  41.8996133 108.7646170
  64.2018419  48.0854184 117.5787794  64.2662851  48.5474591 118.4145966
  63.4929343  47.4551549 117.7070104  54.7035709  41.4495392 115.1036794
  54.9543747  42.3342402 115.3694370  55.2395257  41.2699993 114.3311886
  78.5267808  44.8808889 111.7712055  77.7731517  44.3116287 111.6156060
  78.6615349  44.8471553 112.7182690  63.9166436  49.7522291 107.4466775
  63.7812111  50.5973827 107.8751622  64.4576249  49.9541569 106.6832708
  57.3695834  47.2697729 108.0194700  57.8820354  48.0640980 108.1700264
  58.0218547  46.5724020 107.9528301  59.1790718  50.3863486 110.1017453
  59.3557347  51.3081450 109.9138437  59.9747552  50.0721905 110.5311833
  58.4643075  42.4328117 119.9779616  58.3496590  41.5313375 120.2786715
  57.6087593  42.6791814 119.6264433  65.5434913  50.3745858 121.5767117
  65.0998767  49.5882236 121.2588021  66.2052126  50.5625008 120.9111007
  60.3022034  51.9041659 116.1027795  60.8529459  51.7758723 115.3304789
  59.4633510  52.2036548 115.7522688  67.6416151  50.6548658 119.6048518
  67.6234626  51.4757539 119.1128787  68.5636071  50.5302733 119.8298659
  64.0989205  48.1692787 120.4472026  64.6317542  47.4081075 120.2171334
  63.5703286  47.8766439 121.1896181  67.2658900  33.2752853 115.9765668
  66.9223169  34.1654495 115.9004779  67.6337862  33.0854511 115.1135253
  55.3344750  45.5986384 108.7954270  56.1719972  46.0083392 108.5787978
  55.5123018  44.6585826 108.7654464  67.2309183  43.2661464 104.4838103
  66.7155806  44.0366069 104.7226491  66.9586491  42.5926600 105.1071165
  64.8156294  38.1111165 109.5423342  63.9597890  37.7218015 109.3628980
  65.2283245  38.1903126 108.6823127  66.3455440  35.6457508 113.9414901
  65.8420236  35.6087643 113.1282707  66.6386047  36.5550251 114.0011558
  62.5898326  35.7296238 112.9481083  63.4551323  35.5339047 112.5886972
  62.6575835  35.5006590 113.8750440  72.2043457  46.0193819 106.4191277
  71.4272899  45.6804978 105.9746439  72.8834938  46.0246442 105.7446242
  67.0195486  41.1388556 106.3097884  66.7145621  41.4534706 107.1608028
  67.9725928  41.2169976 106.3525217  65.4641918  47.2978780 107.9590838
  64.9363279  46.5631539 107.6464076  64.9629420  48.0753456 107.7130807
  70.4434764  45.4927800 113.0757885  69.7858438  46.1827062 113.1638013
  71.2475163  45.8824232 113.4191871  60.1960645  37.9598446 110.3197450
  60.7704397  37.7373627 109.5870643  60.7831628  38.0287140 111.0726051
  69.2540222  43.8472173 111.1261826  69.7672104  44.4802165 111.6283536
  69.9041446  43.2473368 110.7605186  60.5230232  39.9902907 104.3393335
  59.6867545  40.3277594 104.6602610  60.3835002  39.8551887 103.4020472
  62.4983313  34.8339695 109.0472519  61.8447725  34.5188712 108.4229134
  62.4563787  34.2115435 109.7732342  63.6094518  45.1158990 100.9625811
  62.7021580  44.8848243 101.1616960  64.1065550  44.3196609 101.1499793
  66.5162597  53.8256497 103.8822497  65.8424295  54.1288194 104.4907455
  66.9028419  54.6285577 103.5327955  65.7321053  41.3221628 113.3720167
  64.8143615  41.5436575 113.2141855  66.1481197  41.3967939 112.5131874
  66.5156101  42.7213044 108.5022847  67.2627920  43.2334441 108.1929969
  66.7847691  42.3997097 109.3627241  64.7882751  45.2171585 105.4849801
  63.8793970  44.9330618 105.5822271  64.8177835  45.6370663 104.6253108
  70.0202019  48.8278174 109.2540969  69.5664346  47.9869084 109.3106159
  69.3895985  49.4639573 109.5915749  68.9634938  39.7570160 110.4841636
  68.2257695  39.2447547 110.8151879  69.2161712  39.3170542 109.6724913
  68.4634958  50.6654671 110.1890787  68.7557932  51.2259728 109.4703153
  68.9733578  50.9583232 110.9443946  69.0646566  32.5346412 111.0783406
  69.3705442  31.6743776 110.7909321  69.7899170  33.1264033 110.8782400
  55.3570922  42.9377099 109.4665004  55.1595321  42.3446460 108.7416070
  54.8017586  42.6329309 110.1840942  63.3367645  42.8300205 111.5859597
  63.3916255  41.8774042 111.5102073  62.5258847  42.9859645 112.0700895
  64.4858839  46.7580328 102.8237880  64.0478269  46.0416187 102.3643517
  65.2269280  46.9856443 102.2622971  61.2760005  41.4477265 109.3449976
  60.4627871  41.7471436 109.7515168  61.7718999  41.0532954 110.0624458
  63.4268583  51.4435022 111.2784240  63.3844762  51.6695868 110.3492772
  64.3431282  51.2098397 111.4270041  66.8734217  41.9119090 118.1764870
  67.2283605  42.1390563 119.0359335  67.5206348  42.2437466 117.5542125
  72.6031954  45.0337526 108.8814199  72.4649852  45.2239122 107.9535388
  72.2468173  45.7956908 109.3382250  60.7674080  39.0195621 114.9611211
  61.4073459  38.8784380 114.2634174  59.9351610  38.7330134 114.5849813
  72.6301333  47.1014053 113.8925470  73.0637840  47.0089342 114.7408524
  73.3432914  47.0771553 113.2545486  61.5434384  48.3198051 111.0746203
  62.3374982  47.8248371 110.8728778  60.8326076  47.7915914 110.7113909
  66.3629228  50.7016147 115.4258571  66.4166251  51.2707083 116.1936287
  65.4944010  50.8718032 115.0612608  57.8517147  42.4641133 107.1505956
  56.9214735  42.4025588 107.3675918  57.9474619  41.9417086 106.3542597
  57.7702696  38.9895946 109.7384197  58.0309514  39.9041279 109.6293358
  58.5919869  38.5220388 109.8880810  59.2427622  40.4033703 116.9083022
  59.9150675  40.1951065 116.2595671  58.4157408  40.2055789 116.4688254
  73.4916883  47.1437753 116.4258355  73.6852773  48.0483564 116.6717630
  73.3917501  46.6845172 117.2596940  65.1453194  37.0295644 118.9248683
  64.4981109  37.7285593 118.8313159  65.9154209  37.4631788 119.2924931
  68.5531992  47.2944496 121.9999236  68.4017498  47.0655048 121.0829320
  68.5436671  48.2515097 122.0130581  65.3217328  44.8676409 116.9845503
  66.2509388  45.0187568 116.8114470  64.9008358  44.9560429 116.1294149
  64.1205660  48.8927073 114.7544040  63.9816746  48.5245857 115.6269978
  63.3320256  49.4074713 114.5827998  64.7153812  53.9936170 106.0969577
  64.8905567  53.5224213 106.9115199  64.0286600  54.6201936 106.3250837
  65.6710875  48.2708676 112.1432878  65.3360708  48.2309446 113.0390528
  65.1714821  47.6053392 111.6703288  59.6455119  43.6776306 117.6685459
  59.5074917  42.9456545 118.2696998  60.5560042  43.5885206 117.3869647
  68.6070067  45.6164710 102.4169938  67.9899237  44.8911538 102.3202990
  68.1386555  46.3774070 102.0737012  62.2737420  43.3896265 117.1569139
  62.9837038  42.7489457 117.1155757  62.2306728  43.6409160 118.0795320
  70.2624198  50.3263618 120.0775718  70.2036744  49.6422839 119.4106301
  70.6643717  51.0682608 119.6256344  60.9866354  40.3761483 118.9764778
  60.4503711  39.9252221 119.6286375  60.3983062  40.5107392 118.2335243
  59.2814897  57.1425532 112.8709437  59.5211495  57.7744056 113.5488455
  58.4384094  56.7913572 113.1574796  60.3968613  39.8350134 101.5391242
  59.5198079  39.7138935 101.1753489  60.8726366  39.0436213 101.2870131
  70.2641606  48.2903202 118.3089698  69.3768384  47.9529124 118.4316096
  70.8340157  47.5586234 118.5458463  51.9170753  44.6227294 111.6332749
  52.6041793  44.3089024 111.0453764  51.7618881  45.5268659 111.3600000
  56.7205475  39.5117491 116.0617773  56.6363664  38.9043160 115.3268183
  55.8988181  40.0026509 116.0627269  63.7942759  52.9504655 115.2750941
  63.7212930  53.7559626 115.7870245  63.3520152  53.1496621 114.4498962
  63.5832539  52.1876425 108.7853762  62.8000060  52.7298105 108.8791987
  64.2825284  52.7050404 109.1848004  66.8929189  37.9971054 111.4287968
  67.3897888  37.2441017 111.1089038  66.1216170  38.0335371 110.8631177
  74.7458946  43.7011420 113.0706259  74.7348822  44.5836135 112.7000192
  73.8776326  43.3482971 112.8760796  66.2541442  52.8491489 117.4309099
  66.9669415  53.4838954 117.3585001  65.7631471  52.9455355 116.6149101
  67.9758969  46.7542741 109.0026391  67.0415248  46.8744204 108.8331095
  68.1535638  45.8515208 108.7386401  63.4764157  40.1388437 111.1559652
  63.1061945  39.5859478 111.8440558  63.9723250  39.5346571 110.6034652
  71.3631521  42.5960061 109.5376425  71.8291973  43.4288052 109.4636728
  71.8139021  42.1305042 110.2421684  61.3053356  50.5985932 118.2514670
  62.0062815  51.2322415 118.4044065  60.8348471  50.9400664 117.4910310
  69.4307752  48.9403882 106.5362577  69.7067596  48.8260477 107.4456451
  68.5612251  48.5421367 106.4974750  69.3348183  34.9640648 113.5767327
  68.4211263  35.1944875 113.7449534  69.7641285  35.0479092 114.4281359
  69.1054642  43.1530540 116.0767221  68.4526092  43.4006447 115.4219673
  69.4835022  42.3394678 115.7429698  66.0661816  53.1890233 110.1795391
  66.2484210  52.3711889 110.6423143  66.8894802  53.4057925 109.7420281
  66.4003981  52.1158418 107.4410439  66.9291748  51.6050873 106.8280602
  66.6632201  51.8000948 108.3055972  65.1542215  43.8950351 122.5633258
  64.4782852  43.7944480 123.2335633  65.9769849  43.7389565 123.0269255
  56.9021074  50.1322287 115.1845773  57.4874511  49.3865975 115.3173677
  56.7045913  50.4426244 116.0682437  59.7559729  53.1673535 110.2008215
  59.0870105  53.6519662 109.7172255  59.6172599  53.4142755 111.1151594
  51.4938729  42.7027888 113.9050216  51.5322828  42.1691478 114.6987334
  50.9879022  42.1763093 113.2861193  63.8964998  55.2017278 116.7990874
  64.4483306  55.3648900 117.5639959  64.2371191  55.7921716 116.1270899
  58.8729491  37.5492428 117.4012758  58.9370818  38.4107259 116.9890156
  58.8096611  36.9366430 116.6685117  68.7475872  50.0278536 122.6539528
  69.2915776  50.6408494 122.1594483  68.1662717  50.5858114 123.1706541
  55.1247306  41.4291990 106.9804148  55.4200747  40.5202668 106.9271201
  54.2235342  41.4079729 106.6585150  67.0333385  53.1499254 113.7854556
  66.9084525  52.3488994 113.2765501  67.6912476  53.6445447 113.2968526
  58.6541553  39.5047986 112.9631696  57.9328139  40.1183954 112.8239169
  59.4434809  40.0405751 112.8848342  69.0968294  50.9508274 115.4134106
  68.1498629  50.8313625 115.3412433  69.4451067  50.0630772 115.4960367
  56.8535148  39.1106087 107.1043473  56.5247854  38.2303466 106.9218579
  57.2074519  39.0553756 107.9919862  66.1014727  50.7460990 111.6138458
  65.9539689  49.8177697 111.7946028  66.9268220  50.7681081 111.1295533
  59.9676971  39.3979057 107.4718950  60.3073044  39.9264978 106.7497559
  60.4149092  39.7359463 108.2477517  69.7048849  51.5689549 112.7003331
  70.6295396  51.3632410 112.5627782  69.5364152  51.3205950 113.6092672
  62.6620412  37.7816108 116.9222018  62.3217232  36.9823921 117.3242698
  61.9559418  38.0817819 116.3498852  63.3136884  34.8665420 115.3749341
  64.1362953  34.3925898 115.2528232  63.5574947  35.6455904 115.8748028
  61.9545118  37.8953679 105.6712243  62.6753481  38.2734932 105.1675960
  61.3310422  38.6142556 105.7747221  66.0976241  38.5998828 106.6070575
  66.3139856  39.4823466 106.3059404  65.6170308  38.2085041 105.8776217
  60.8375463  41.5584541 113.1841320  60.6920043  41.8724844 114.0765602
  60.3600666  42.1769441 112.6312219  62.6971845  38.5487089 113.2322210
  62.6833414  37.6528182 112.8954508  63.4144274  38.5557753 113.8660496
  64.5497976  38.9824429 115.2775337  64.2915754  39.9041500 115.2759667
  64.0183016  38.5854864 115.9675801  69.4944165  52.0875216 108.0565422
  69.6681042  51.5221639 107.3039275  69.9873056  52.8876111 107.8744912
  55.3121125  44.0989885 116.1228981  54.7674593  44.8749693 116.2549256
  56.1900475  44.4460690 115.9648103  62.1008741  37.4301469 108.5009780
  62.2224653  36.5018115 108.7000667  61.8110784  37.4440155 107.5888095
  64.9699932  35.1156380 111.6376500  64.9921629  35.1795713 110.6828479
  65.3867991  34.2760888 111.8317006  75.3483556  44.8511639 109.6755722
  75.7914702  44.1018964 109.2774845  74.4710066  44.8421776 109.2929454
  70.4819337  51.4041981 105.1562321  71.1770242  52.0248673 105.3749635
  70.8242488  50.5537332 105.4314699  56.0987147  43.2259782 119.0159138
  55.3568883  43.3742417 119.6023769  55.7779891  43.4868047 118.1525887
  72.3810760  48.8541686 106.6849651  72.9062085  49.1928959 105.9598971
  72.2933113  47.9188701 106.5012786  64.0430809  52.7675760 118.8139528
  64.3517936  52.5224907 119.6862228  64.8406291  52.9722398 118.3258398
  64.0651421  54.9213669 111.0444905  63.6256412  54.4290048 111.7377761
  64.8159538  54.3786637 110.8036980  56.5443760  51.1125210 111.0469533
  57.3701780  50.8128982 110.6668176  56.1937812  50.3432833 111.4959321
  61.5125293  50.4651679 113.1167206  60.8905303  49.8022384 112.8169434
  62.1830160  50.4912810 112.4340854  54.7452365  49.0311537 112.0058466
  53.9084274  48.6033711 111.8242468  54.7176011  49.2243980 112.9429258
  72.0704667  49.4874590 121.9900849  71.2800210  49.4698729 121.4505349
  71.8338021  50.0262884 122.7449886  72.1902542  46.3367056 119.3033578
  72.2400547  46.1717064 120.2449101  72.0816465  45.4694315 118.9131459
  61.0738800  49.0155602 106.5925667  61.2226921  49.6991066 105.9392340
  61.8805244  48.9960692 107.1075123  69.4806304  42.3197984 120.6192885
  70.3816167  42.1804449 120.3276882  69.5554279  42.4852439 121.5591062
  63.8149109  39.6964839 119.4646071  62.9452419  39.9898405 119.1928660
  64.0508590  40.2805284 120.1853335  73.6920738  48.7563998 119.5475599
  73.4005547  49.1193978 120.3839060  73.0792870  48.0431006 119.3688932
  74.8916421  46.3216877 112.0678170  75.7263312  46.7606682 112.2315730
  75.0275550  45.8455531 111.2486415  71.9407927  43.8796612 118.0155657
  72.4162048  44.0724259 117.2074509  71.0173492  43.9355798 117.7699041
  58.8291433  45.0420780 107.5986736  58.5837475  44.1383110 107.7966946
  58.9987348  45.0437930 106.6566214  66.5188143  35.9144456 116.9811491
  67.0370087  36.6505483 116.6557980  66.1643276  36.2208449 117.8158250
  58.0987081  40.7749137 105.0972897  57.4056326  40.8493492 104.4412933
  57.8538833  40.0109481 105.6194414  66.7700737  32.3344738 112.5012388
  67.0502491  31.6667927 113.1272815  67.5551344  32.5273834 111.9887052
  64.5734206  51.5103732 104.0637414  64.0008173  52.1293919 103.6107886
  65.1466999  52.0603094 104.5977336  70.6409596  40.7562372 116.2483963
  71.5927019  40.8560470 116.2696187  70.4713046  39.9640641 116.7582047
  68.6623975  37.8417956 116.4343364  68.0673907  38.1222968 115.7389853
  68.3773672  38.3311857 117.2060105  67.7931466  51.7940882 105.1945997
  68.7262139  51.7286444 105.3978872  67.7054678  52.6297149 104.7360529
  70.4219482  51.1106753 102.1549944  70.3433114  50.7766616 103.0485702
  71.2429149  51.6028521 102.1541416  73.1197673  43.9768492 115.3626263
  73.0873994  43.0384493 115.5485947  73.7298297  44.0552529 114.6292088
  64.9581004  42.8464545 101.4053467  65.9040109  42.7170753 101.4741885
  64.5795249  42.1079207 101.8822895  73.2692162  40.7679536 115.4084546
  72.7531211  39.9837992 115.2214475  74.1532110  40.4398252 115.5731065
  70.9302889  34.5120551 111.3680359  70.7327710  34.2035639 112.2523691
  71.5402594  35.2382190 111.4978288  78.9374223  45.0384499 114.5032300
  79.6677612  44.7769787 115.0640003  78.3281169  44.3013221 114.5434368
  77.0189520  43.1792362 115.1006751  76.2922684  43.0448326 114.4923242
  76.6036807  43.4869190 115.9063469  64.8419697  46.8982291 122.8654124
  65.7622706  47.0760890 123.0594170  64.8069280  45.9538337 122.7133823
  63.1423921  40.7714521 101.3408352  62.2355377  40.4747634 101.4171066
  63.4199902  40.4744340 100.4742638  54.0601862  42.0920885 111.7907398
  53.7404646  41.2386193 111.4981772  53.5135290  42.3069463 112.5465366
  57.8381769  44.8083326 115.5076905  58.0567779  45.7400434 115.5264939
  58.2507543  44.4491300 116.2931709  64.7585987  35.3151411 107.4952593
  63.9486716  34.9698496 107.8707839  65.4470404  35.0058955 108.0840205
  66.6876535  34.3929458 109.1176890  67.2407574  34.8124911 109.7766913
  66.9246622  33.4665206 109.1599846  61.9122706  37.6301457 101.4820331
  62.7741870  37.9556355 101.7416149  62.0973050  36.8432953 100.9693397
  53.9290122  45.7123796 113.7600520  53.2353593  45.2977749 113.2470474
  54.6763113  45.7544333 113.1633939  70.0655343  36.5029983 108.6255554
  69.4854012  37.1614787 108.2433607  69.7991275  35.6807328 108.2142972
  68.5158909  35.9035041 110.8276875  69.0158687  36.0151575 110.0191193
  69.1594517  35.5996094 111.4677683  62.5740905  43.8113670 123.7144715
  62.0907986  44.6114031 123.9208605  62.6601844  43.8221615 122.7612159
  55.8426864  45.6442050 111.6366535  55.8197552  45.7429737 110.6848418
  56.1527501  46.4907201 111.9583701  58.5014242  47.7018205 115.7513149
  59.4557496  47.6702148 115.6843081  58.3026766  47.2408829 116.5663375
  59.0913624  46.2719321 118.3183947  59.9106513  46.7663400 118.3418784
  59.3650432  45.3551289 118.2901514  68.8480221  38.6630074 107.6811902
  67.9606076  38.9479724 107.4632097  69.2634210  38.5023837 106.8339179
  72.1994757  38.6876595 111.3966242  72.9755147  39.1773047 111.6690859
  71.4742891  39.1134649 111.8538111  74.6367315  39.4004214 112.4540182
  75.2311806  39.1599950 111.7433491  74.7093899  38.6811344 113.0813719
  56.8564471  53.2437825 112.7683347  56.7218939  52.4838226 112.2021345
  56.4396533  53.9678725 112.3012136  67.9923434  48.4274748 101.7759922
  68.6959284  48.6324751 102.3917578  67.2686083  48.9951510 102.0409006
  68.8221244  44.1784609 107.8962193  68.7656446  44.6353161 107.0569825
  69.3749587  43.4175294 107.7185035  72.6326050  39.9674341 108.7212312
  72.3762984  39.5670977 109.5520520  72.0078918  40.6818135 108.5962451
  76.9438388  42.7070415 111.2283604  76.3837946  42.7763604 112.0015166
  76.3381891  42.5311399 110.5083100  60.0133597  54.1407142 112.9801790
  59.8965981  55.0852574 112.8780480  59.1926043  53.8380703 113.3687589
  69.9010131  48.8657277 103.8258382  70.7355735  48.4338476 103.6435857
  69.7394474  48.6939291 104.7535277  69.5556024  45.3689391 105.1914722
  69.5004827  45.2033662 104.2503166  68.9302079  46.0765424 105.3476912
  66.8701931  47.6738303 124.5168285  67.7393090  47.8478955 124.1554919
  66.3908682  48.4932719 124.3944014  62.8652149  34.8697500 104.7700040
  62.8530819  35.8139340 104.9268311  63.7575571  34.6867645 104.4759501
  61.0388111  54.7935404 116.1957718  61.9415358  54.8259014 116.5124213
  60.8125481  53.8635855 116.2104054  62.7941713  53.5466390 112.8567797
  61.8437344  53.5468252 112.7432169  63.0974199  52.7999125 112.3403831
  66.6804269  31.4640276 109.0245977  65.9136664  30.9098763 109.1702659
  67.0914974  31.5362145 109.8860129  78.5294407  59.3826929 113.9213559
  79.1672817  59.2633676 113.2176899  78.4115249  60.3307772 113.9801511
  75.3384113  59.3354357 113.8575084  75.0002624  59.2195421 112.9695619
  76.2073881  58.9345522 113.8376090  71.1970929  61.1889833 109.8471975
  70.6335794  61.0979770 109.0788263  71.0823324  60.3689737 110.3274467
  75.8203896  60.4889208 119.8161289  75.8092537  60.0942007 118.9441793
  75.9824535  59.7555281 120.4095061  68.7435360  62.6841025 112.6856195
  69.5356652  62.3431849 112.2702495  68.9832011  62.7936000 113.6058349
  76.7770487  64.8560801 105.1586440  76.1258467  65.4414881 104.7720454
  77.5714850  65.3866996 105.2181477  70.7026114  61.9449938 105.5573574
  71.4756990  61.3978925 105.4186450  71.0551513  62.8094187 105.7688036
  72.5411157  63.2726320 118.7640473  72.2501023  64.1771951 118.6487140
  73.1768141  63.3142848 119.4784543  73.4667364  60.6503169 115.3541833
  74.0630936  60.4259191 114.6398796  73.5242335  59.9087914 115.9567281
  73.0392392  58.1042604 103.1892024  73.2917913  57.5824125 102.4275487
  72.1016951  57.9408749 103.2918708  78.0835675  57.1078382 110.9966767
  78.8698764  56.6897806 110.6457184  78.3474379  58.0124475 111.1648416
  78.2545752  62.5451233 105.6955424  77.6191585  62.6185859 106.4076329
  77.9243159  63.1344832 105.0174503  83.4844102  57.0453616 111.8999746
  84.2169274  56.4752832 112.1337575  82.7283458  56.6575216 112.3406251
  72.7588681  60.0070710 105.3916399  72.6424939  59.3315613 106.0597483
  72.8690941  59.5203084 104.5748552  75.1020222  59.4680857 109.0963088
  74.7378429  58.9411478 109.8076010  75.9587338  59.0779326 108.9229574
  81.0069523  50.7575190 116.3594354  80.6752847  51.6270601 116.1355569
  80.4115136  50.4411474 117.0388385  74.7425709  54.4970757 104.0924437
  74.9100111  55.3650993 104.4594908  74.5522878  54.6598038 103.1685726
  77.5001042  62.9587736 115.7590267  77.2001765  63.8612774 115.6506074
  77.1552102  62.6919919 116.6111420  70.9513524  59.4101533 111.7926972
  70.0264020  59.2777747 112.0004663  71.1997937  60.1895752 112.2896914
  80.8998186  55.4770276 113.4387704  79.9915063  55.4085684 113.1446465
  80.8485782  55.9542221 114.2669530  74.7214930  56.9528414 105.0771104
  74.6014555  57.3985465 105.9156584  74.0267518  57.3013732 104.5184642
  68.3122335  59.0534806 112.6270761  68.4414716  59.3069285 113.5410172
  67.6319786  59.6462514 112.3075416  72.4821822  69.7232056 108.7261235
  72.4045852  70.6739881 108.8049715  71.8783465  69.3777929 109.3836161
  74.9739052  56.8959921 121.3822602  74.1972386  57.4553842 121.3725466
  75.6129615  57.3816704 121.9037472  82.7659832  53.6786714 115.2165578
  82.1234212  53.9719247 114.5705373  82.2614761  53.5639635 116.0218775
  80.4199996  57.4249887 105.9051438  81.3317852  57.6577274 105.7299135
  79.9109643  58.0086932 105.3426516  73.2285424  59.7045375 120.9440569
  73.9700108  60.2430419 120.6675392  72.5222409  60.3311664 121.1012121
  78.7040764  61.8474515 119.5412730  79.1124120  61.4056926 118.7967363
  77.9818025  61.2727143 119.7946923  75.0571834  56.7847122 116.9146287
  75.9033029  57.2086536 117.0580936  74.9970471  56.1280746 117.6084850
  79.0269578  62.4075706 113.2965019  78.3978441  62.5721420 112.5941087
  78.6395240  62.8217315 114.0675983  82.9058810  63.3430144 110.6509383
  82.2209848  63.7229045 110.1006416  82.9902659  63.9525470 111.3841331
  78.2071279  54.4451490 118.5727461  77.9632211  55.1993551 118.0361736
  78.4831209  54.8236838 119.4074708  80.1609742  60.9890103 117.2504726
  80.3726637  61.6321863 116.5739107  80.1139490  60.1552419 116.7826656
  77.7635971  53.6007923 114.1541299  76.9020450  53.8989177 114.4458036
  77.7898405  53.8178322 113.2222331  74.5797540  62.1450114 110.5615104
  75.0435886  62.4237817 109.7719727  74.3154338  61.2433559 110.3788195
  71.4721621  61.6921596 113.4994867  72.0422978  62.1208864 112.8612352
  72.0629733  61.4104180 114.1979053  73.5166426  58.2673266 107.3704669
  74.2190469  58.7194310 107.8378596  73.1847055  57.6257085 107.9984562
  71.9646788  56.8585023 121.7455879  71.3345448  57.5401304 121.9791276
  71.8582876  56.7468105 120.8009017  67.2591760  56.5256819 112.6721803
  66.4690814  56.7814348 112.1961914  67.7503007  57.3405157 112.7773843
  81.2755570  63.8662058 115.4227084  82.0973013  63.4642245 115.1409765
  81.2717973  63.7630292 116.3743200  69.2106505  56.8901398 109.6305280
  68.4137669  57.0020093 110.1488775  68.9832098  57.2288050 108.7646170
  75.0412173  63.4146101 117.5787794  75.1056606  63.8766509 118.4145966
  74.3323097  62.7843466 117.7070104  65.5429463  56.7787309 115.1036794
  65.7937502  57.6634319 115.3694370  66.0789011  56.5991911 114.3311886
  89.3661563  60.2100807 111.7712055  88.6125271  59.6408205 111.6156060
  89.5009104  60.1763471 112.7182690  74.7560191  65.0814209 107.4466775
  74.6205866  65.9265745 107.8751622  75.2970003  65.2833487 106.6832708
  71.2427530  51.1605789 124.1081130  70.8494476  50.6071987 124.7828774
  72.0593671  51.4716367 124.4987647  68.2089588  62.5989647 108.0194700
  68.7214109  63.3932897 108.1700264  68.8612301  61.9015937 107.9528301
  70.0184473  65.7155403 110.1017453  70.1951101  66.6373368 109.9138437
  70.8141306  65.4013822 110.5311833  74.1595491  52.5763668 121.7001386
  74.9005205  53.1770821 121.6205849  74.3913414  51.8341306 121.1419429
  69.3036829  57.7620035 119.9779616  69.1890345  56.8605292 120.2786715
  68.4481347  58.0083732 119.6264433  71.1415788  67.2333577 116.1027795
  71.6923213  67.1050640 115.3304789  70.3027264  67.5328466 115.7522688
  78.4809905  65.9840575 119.6048518  78.4628381  66.8049456 119.1128787
  79.4029825  65.8594651 119.8298659  74.9382959  63.4984705 120.4472026
  75.4711296  62.7372993 120.2171334  74.4097040  63.2058357 121.1896181
  78.1052654  48.6044771 115.9765668  77.7616924  49.4946413 115.9004779
  78.4731617  48.4146428 115.1135253  66.1738505  60.9278301 108.7954270
  67.0113727  61.3375310 108.5787978  66.3516773  59.9877743 108.7654464
  78.0702937  58.5953382 104.4838103  77.5549560  59.3657987 104.7226491
  77.7980246  57.9218518 105.1071165  75.6550048  53.4403083 109.5423342
  74.7991644  53.0509933 109.3628980  76.0677000  53.5195044 108.6823127
  77.1849195  50.9749426 113.9414901  76.6813990  50.9379561 113.1282707
  77.4779802  51.8842169 114.0011558  73.4292081  51.0588156 112.9481083
  74.2945077  50.8630964 112.5886972  73.4969590  50.8298507 113.8750440
  83.0437211  61.3485737 106.4191277  82.2666654  61.0096896 105.9746439
  83.7228692  61.3538360 105.7446242  77.8589240  56.4680474 106.3097884
  77.5539376  56.7826623 107.1608028  78.8119682  56.5461894 106.3525217
  76.3035672  62.6270697 107.9590838  75.7757034  61.8923457 107.6464076
  75.8023175  63.4045374 107.7130807  81.2828518  60.8219718 113.0757885
  80.6252193  61.5118979 113.1638013  82.0868917  61.2116150 113.4191871
  71.0354400  53.2890364 110.3197450  71.6098152  53.0665545 109.5870643
  71.6225382  53.3579058 111.0726051  80.0933977  59.1764091 111.1261826
  80.6065859  59.8094082 111.6283536  80.7435201  58.5765286 110.7605186
  71.3623987  55.3194825 104.3393335  70.5261299  55.6569511 104.6602610
  71.2228756  55.1843804 103.4020472  73.3377067  50.1631613 109.0472519
  72.6841480  49.8480630 108.4229134  73.2957542  49.5407353 109.7732342
  74.4488272  60.4450908 100.9625811  73.5415334  60.2140161 101.1616960
  74.9459304  59.6488527 101.1499793  77.3556351  69.1548415 103.8822497
  76.6818050  69.4580112 104.4907455  77.7422173  69.9577495 103.5327955
  76.5714808  56.6513546 113.3720167  75.6537369  56.8728493 113.2141855
  76.9874951  56.7259857 112.5131874  77.3549856  58.0504962 108.5022847
  78.1021674  58.5626359 108.1929969  77.6241445  57.7289015 109.3627241
  75.6276506  60.5463503 105.4849801  74.7187725  60.2622535 105.5822271
  75.6571590  60.9662581 104.6253108  80.8595773  64.1570092 109.2540969
  80.4058100  63.3161002 109.3106159  80.2289740  64.7931490 109.5915749
  79.8028693  55.0862078 110.4841636  79.0651449  54.5739464 110.8151879
  80.0555466  54.6462460 109.6724913  79.3028712  65.9946589 110.1890787
  79.5951687  66.5551646 109.4703153  79.8127333  66.2875150 110.9443946
  79.9040320  47.8638330 111.0783406  80.2099197  47.0035693 110.7909321
  80.6292925  48.4555950 110.8782400  66.1964676  58.2669017 109.4665004
  65.9989076  57.6738377 108.7416070  65.6411340  57.9621227 110.1840942
  74.1761400  58.1592123 111.5859597  74.2310010  57.2065960 111.5102073
  73.3652602  58.3151562 112.0700895  75.3252593  62.0872246 102.8237880
  74.8872023  61.3708105 102.3643517  76.0663034  62.3148361 102.2622971
  72.1153760  56.7769183 109.3449976  71.3021625  57.0763353 109.7515168
  72.6112754  56.3824872 110.0624458  74.2662338  66.7726940 111.2784240
  74.2238516  66.9987786 110.3492772  75.1825036  66.5390314 111.4270041
  77.7127971  57.2411007 118.1764870  78.0677359  57.4682480 119.0359335
  78.3600103  57.5729384 117.5542125  83.4425708  60.3629443 108.8814199
  83.3043607  60.5531039 107.9535388  83.0861927  61.1248826 109.3382250
  71.6067834  54.3487538 114.9611211  72.2467214  54.2076297 114.2634174
  70.7745365  54.0622052 114.5849813  83.4695088  62.4305970 113.8925470
  83.9031595  62.3381259 114.7408524  84.1826669  62.4063471 113.2545486
  72.3828138  63.6489969 111.0746203  73.1768737  63.1540289 110.8728778
  71.6719831  63.1207832 110.7113909  77.2022983  66.0308064 115.4258571
  77.2560005  66.5999001 116.1936287  76.3337764  66.2009949 115.0612608
  68.6910902  57.7933051 107.1505956  67.7608490  57.7317506 107.3675918
  68.7868374  57.2709003 106.3542597  68.6096451  54.3187863 109.7384197
  68.8703268  55.2333197 109.6293358  69.4313623  53.8512306 109.8880810
  70.0821376  55.7325621 116.9083022  70.7544430  55.5242983 116.2595671
  69.2551163  55.5347707 116.4688254  84.3310637  62.4729671 116.4258355
  84.5246528  63.3775481 116.6717630  84.2311256  62.0137090 117.2596940
  75.9846948  52.3587561 118.9248683  75.3374863  53.0577511 118.8313159
  76.7547964  52.7923705 119.2924931  76.1611083  60.1968326 116.9845503
  77.0903143  60.3479486 116.8114470  75.7402113  60.2852347 116.1294149
  74.9599414  64.2218991 114.7544040  74.8210500  63.8537775 115.6269978
  74.1714011  64.7366630 114.5827998  75.5547566  69.3228087 106.0969577
  75.7299322  68.8516130 106.9115199  74.8680354  69.9493853 106.3250837
  76.5104629  63.6000593 112.1432878  76.1754462  63.5601363 113.0390528
  76.0108575  62.9345309 111.6703288  70.4848873  59.0068223 117.6685459
  70.3468671  58.2748462 118.2696998  71.3953797  58.9177124 117.3869647
  79.4463821  60.9456628 102.4169938  78.8292992  60.2203456 102.3202990
  78.9780310  61.7065988 102.0737012  73.1131174  58.7188183 117.1569139
  73.8230793  58.0781375 117.1155757  73.0700482  58.9701078 118.0795320
  71.8260108  55.7053401 118.9764778  71.2897465  55.2544139 119.6286375
  71.2376817  55.8399310 118.2335243  70.1208652  72.4717450 112.8709437
  70.3605250  73.1035974 113.5488455  69.2777848  72.1205490 113.1574796
  71.2362367  55.1642052 101.5391242  70.3591833  55.0430853 101.1753489
  71.7120120  54.3728130 101.2870131  81.1035360  63.6195120 118.3089698
  80.2162139  63.2821042 118.4316096  81.6733911  62.8878151 118.5458463
  62.7564507  59.9519212 111.6332749  63.4435547  59.6380942 111.0453764
  62.6012636  60.8560576 111.3600000  67.5599229  54.8409408 116.0617773
  67.4757418  54.2335078 115.3268183  66.7381936  55.3318427 116.0627269
  74.6336513  68.2796572 115.2750941  74.5606685  69.0851544 115.7870245
  74.1913907  68.4788538 114.4498962  74.4226293  67.5168342 108.7853762
  73.6393815  68.0590023 108.8791987  75.1219038  68.0342322 109.1848004
  77.7322943  53.3262972 111.4287968  78.2291643  52.5732934 111.1089038
  76.9609925  53.3627289 110.8631177  85.5852701  59.0303337 113.0706259
  85.5742577  59.9128053 112.7000192  84.7170080  58.6774888 112.8760796
  77.0935197  68.1783406 117.4309099  77.8063169  68.8130871 117.3585001
  76.6025226  68.2747272 116.6149101  78.8152724  62.0834659 109.0026391
  77.8809003  62.2036122 108.8331095  78.9929392  61.1807126 108.7386401
  74.3157912  55.4680355 111.1559652  73.9455699  54.9151395 111.8440558
  74.8117004  54.8638488 110.6034652  82.2025275  57.9251978 109.5376425
  82.6685727  58.7579970 109.4636728  82.6532776  57.4596960 110.2421684
  72.1447110  65.9277850 118.2514670  72.8456570  66.5614333 118.4044065
  71.6742225  66.2692581 117.4910310  80.2701506  64.2695800 106.5362577
  80.5461350  64.1552394 107.4456451  79.4006005  63.8713285 106.4974750
  80.1741938  50.2932565 113.5767327  79.2605018  50.5236792 113.7449534
  80.6035039  50.3771009 114.4281359  79.9448396  58.4822457 116.0767221
  79.2919847  58.7298365 115.4219673  80.3228776  57.6686596 115.7429698
  76.9055570  68.5182151 110.1795391  77.0877965  67.7003807 110.6423143
  77.7288556  68.7349843 109.7420281  77.2397736  67.4450336 107.4410439
  77.7685502  66.9342790 106.8280602  77.5025955  67.1292866 108.3055972
  75.9935969  59.2242268 122.5633258  75.3176606  59.1236398 123.2335633
  76.8163603  59.0681482 123.0269255  67.7414829  65.4614205 115.1845773
  68.3268265  64.7157893 115.3173677  67.5439667  65.7718162 116.0682437
  70.5953484  68.4965452 110.2008215  69.9263859  68.9811580 109.7172255
  70.4566353  68.7434673 111.1151594  62.3332483  58.0319805 113.9050216
  62.3716583  57.4983396 114.6987334  61.8272776  57.5055011 113.2861193
  74.7358752  70.5309196 116.7990874  75.2877060  70.6940817 117.5639959
  75.0764946  71.1213634 116.1270899  69.7123246  52.8784346 117.4012758
  69.7764572  53.7399177 116.9890156  69.6490366  52.2658347 116.6685117
  69.1875518  54.9507478 121.0485793  69.8147557  54.5684556 121.6623317
  68.3303437  54.7321680 121.4141485  65.9641061  56.7583907 106.9804148
  66.2594502  55.8494586 106.9271201  65.0629097  56.7371647 106.6585150
  77.8727140  68.4791171 113.7854556  77.7478279  67.6780911 113.2765501
  78.5306231  68.9737365 113.2968526  69.4935308  54.8339904 112.9631696
  68.7721894  55.4475872 112.8239169  70.2828564  55.3697669 112.8848342
  79.9362048  66.2800192 115.4134106  78.9892384  66.1605543 115.3412433
  80.2844821  65.3922690 115.4960367  72.2961621  52.1694330 119.2372348
  72.8196023  52.4156627 119.9998657  72.0773955  53.0014365 118.8175485
  67.6928902  54.4398005 107.1043473  67.3641609  53.5595384 106.9218579
  68.0468273  54.3845674 107.9919862  76.9408481  66.0752908 111.6138458
  76.7933444  65.1469615 111.7946028  77.7661975  66.0972998 111.1295533
  70.8070726  54.7270975 107.4718950  71.1466798  55.2556896 106.7497559
  71.2542846  55.0651381 108.2477517  80.5442603  66.8981466 112.7003331
  81.4689151  66.6924328 112.5627782  80.3757907  66.6497868 113.6092672
  73.5014166  53.1108026 116.9222018  73.1610987  52.3115839 117.3242698
  72.7953173  53.4109736 116.3498852  74.1530638  50.1957338 115.3749341
  74.9756708  49.7217816 115.2528232  74.3968702  50.9747822 115.8748028
  72.7938873  53.2245596 105.6712243  73.5147235  53.6026849 105.1675960
  72.1704177  53.9434473 105.7747221  76.9369996  53.9290745 106.6070575
  77.1533610  54.8115383 106.3059404  76.4564063  53.5376959 105.8776217
  71.6769217  56.8876459 113.1841320  71.5313798  57.2016762 114.0765602
  71.1994421  57.5061359 112.6312219  73.5365600  53.8779007 113.2322210
  73.5227169  52.9820100 112.8954508  74.2538028  53.8849670 113.8660496
  75.3891731  54.3116347 115.2775337  75.1309508  55.2333417 115.2759667
  74.8576771  53.9146781 115.9675801  80.3337919  67.4167134 108.0565422
  80.5074797  66.8513556 107.3039275  80.8266811  68.2168029 107.8744912
  66.1514879  59.4281803 116.1228981  65.6068347  60.2041611 116.2549256
  67.0294229  59.7752607 115.9648103  72.9402496  52.7593387 108.5009780
  73.0618407  51.8310033 108.7000667  72.6504538  52.7732073 107.5888095
  75.8093686  50.4448297 111.6376500  75.8315383  50.5087630 110.6828479
  76.2261745  49.6052806 111.8317006  86.1877311  60.1803557 109.6755722
  86.6308457  59.4310882 109.2774845  85.3103821  60.1713693 109.2929454
  81.3213092  66.7333898 105.1562321  82.0163996  67.3540591 105.3749635
  81.6636242  65.8829250 105.4314699  66.9380901  58.5551699 119.0159138
  66.1962637  58.7034335 119.6023769  66.6173645  58.8159965 118.1525887
  83.2204515  64.1833604 106.6849651  83.7455839  64.5220877 105.9598971
  83.1326868  63.2480619 106.5012786  74.8824564  68.0967677 118.8139528
  75.1911690  67.8516824 119.6862228  75.6800046  68.3014316 118.3258398
  74.9045176  70.2505587 111.0444905  74.4650166  69.7581966 111.7377761
  75.6553293  69.7078555 110.8036980  67.3837515  66.4417128 111.0469533
  68.2095535  66.1420900 110.6668176  67.0331567  65.6724750 111.4959321
  72.3519048  65.7943596 113.1167206  71.7299057  65.1314301 112.8169434
  73.0223915  65.8204728 112.4340854  65.5846120  64.3603454 112.0058466
  64.7478028  63.9325629 111.8242468  65.5569765  64.5535898 112.9429258
  72.4243575  54.2725384 122.7099712  72.4731731  55.1487507 122.3277482
  72.9666090  53.7302777 122.1371356  83.0296296  61.6658974 119.3033578
  83.0794301  61.5008981 120.2449101  82.9210219  60.7986233 118.9131459
  71.9132555  64.3447520 106.5925667  72.0620675  65.0282984 105.9392340
  72.7198998  64.3252610 107.1075123  80.3200058  57.6489902 120.6192885
  81.2209921  57.5096367 120.3276882  80.3948033  57.8144357 121.5591062
  74.6542864  55.0256757 119.4646071  73.7846173  55.3190323 119.1928660
  74.8902344  55.6097202 120.1853335  85.7310175  61.6508795 112.0678170
  86.5657067  62.0898599 112.2315730  85.8669304  61.1747448 111.2486415
  82.7801681  59.2088530 118.0155657  83.2555803  59.4016176 117.2074509
  81.8567247  59.2647716 117.7699041  69.6685188  60.3712697 107.5986736
  69.4231230  59.4675027 107.7966946  69.8381102  60.3729848 106.6566214
  77.3581898  51.2436374 116.9811491  77.8763842  51.9797400 116.6557980
  77.0037030  51.5500367 117.8158250  68.9380835  56.1041055 105.0972897
  68.2450080  56.1785410 104.4412933  68.6932587  55.3401398 105.6194414
  77.6094492  47.6636656 112.5012388  77.8896246  46.9959845 113.1272815
  78.3945099  47.8565752 111.9887052  75.4127960  66.8395650 104.0637414
  74.8401927  67.4585837 103.6107886  75.9860754  67.3895012 104.5977336
  81.4803350  56.0854290 116.2483963  82.4320773  56.1852388 116.2696187
  81.3106801  55.2932559 116.7582047  79.5017730  53.1709873 116.4343364
  78.9067662  53.4514886 115.7389853  79.2167426  53.6603774 117.2060105
  78.6325220  67.1232800 105.1945997  79.5655893  67.0578362 105.3978872
  78.5448433  67.9589067 104.7360529  81.2613237  66.4398670 102.1549944
  81.1826868  66.1058534 103.0485702  82.0822904  66.9320438 102.1541416
  83.9591428  59.3060410 115.3626263  83.9267748  58.3676411 115.5485947
  84.5692052  59.3844446 114.6292088  75.7974759  58.1756463 101.4053467
  76.7433864  58.0462671 101.4741885  75.4189004  57.4371125 101.8822895
  84.1085916  56.0971453 115.4084546  83.5924965  55.3129910 115.2214475
  84.9925865  55.7690170 115.5731065  81.7696643  49.8412469 111.3680359
  81.5721464  49.5327557 112.2523691  82.3796349  50.5674108 111.4978288
  89.7767978  60.3676417 114.5032300  90.5071366  60.1061705 115.0640003
  89.1674923  59.6305139 114.5434368  87.8583275  58.5084279 115.1006751
  87.1316439  58.3740244 114.4923242  87.4430562  58.8161108 115.9063469
  73.9817676  56.1006439 101.3408352  73.0749131  55.8039552 101.4171066
  74.2593657  55.8036257 100.4742638  64.8995616  57.4212803 111.7907398
  64.5798401  56.5678111 111.4981772  64.3529045  57.6361381 112.5465366
  68.6775524  60.1375244 115.5076905  68.8961534  61.0692351 115.5264939
  69.0901298  59.7783218 116.2931709  75.5979742  50.6443329 107.4952593
  74.7880470  50.2990414 107.8707839  76.2864159  50.3350873 108.0840205
  77.5270290  49.7221376 109.1176890  78.0801329  50.1416829 109.7766913
  77.7640376  48.7957124 109.1599846  73.5503389  55.7108449 124.8979654
  73.4500116  56.6602806 124.8291745  73.3324931  55.3826688 124.0255724
  72.7516461  52.9593374 101.4820331  73.6135625  53.2848273 101.7416149
  72.9366805  52.1724870 100.9693397  64.7683876  61.0415714 113.7600520
  64.0747348  60.6269667 113.2470474  65.5156867  61.0836251 113.1633939
  80.9049097  51.8321901 108.6255554  80.3247766  52.4906705 108.2433607
  80.6385030  51.0099245 108.2142972  79.3552663  51.2326959 110.8276875
  79.8552442  51.3443493 110.0191193  79.9988271  50.9288011 111.4677683
  73.4134659  59.1405588 123.7144715  72.9301741  59.9405948 123.9208605
  73.4995598  59.1513533 122.7612159  66.6820619  60.9733968 111.6366535
  66.6591307  61.0721655 110.6848418  66.9921255  61.8199119 111.9583701
  69.3407997  63.0310123 115.7513149  70.2951250  62.9994065 115.6843081
  69.1420520  62.5700747 116.5663375  69.9307379  61.6011239 118.3183947
  70.7500268  62.0955318 118.3418784  70.2044187  60.6843207 118.2901514
  79.6873975  53.9921991 107.6811902  78.7999830  54.2771642 107.4632097
  80.1027964  53.8315755 106.8339179  83.0388511  54.0168512 111.3966242
  83.8148901  54.5064965 111.6690859  82.3136645  54.4426566 111.8538111
  85.4761070  54.7296131 112.4540182  86.0705561  54.4891867 111.7433491
  85.5487654  54.0103262 113.0813719  67.6958226  68.5729742 112.7683347
  67.5612693  67.8130143 112.2021345  67.2790288  69.2970642 112.3012136
  78.8317189  63.7566666 101.7759922  79.5353039  63.9616668 102.3917578
  78.1079837  64.3243428 102.0409006  79.6614999  59.5076527 107.8962193
  79.6050200  59.9645079 107.0569825  80.2143341  58.7467212 107.7185035
  83.4719805  55.2966259 108.7212312  83.2156739  54.8962895 109.5520520
  82.8472673  56.0110053 108.5962451  87.7832143  58.0362332 111.2283604
  87.2231701  58.1055522 112.0015166  87.1775646  57.8603317 110.5083100
  70.8527351  69.4699059 112.9801790  70.7359736  70.4144492 112.8780480
  70.0319798  69.1672621 113.3687589  80.7403886  64.1949195 103.8258382
  81.5749490  63.7630394 103.6435857  80.5788229  64.0231209 104.7535277
  80.3949778  60.6981308 105.1914722  80.3398582  60.5325580 104.2503166
  79.7695833  61.4057341 105.3476912  65.1842293  55.9349373 119.0176144
  65.8301157  55.4248327 119.5063369  64.9759444  56.6718054 119.5919569
  73.7045904  50.1989417 104.7700040  73.6924573  51.1431257 104.9268311
  74.5969325  50.0159563 104.4759501  71.8781866  70.1227321 116.1957718
  72.7809112  70.1550932 116.5124213  71.6519236  69.1927772 116.2104054
  73.6335468  68.8758308 112.8567797  72.6831099  68.8760169 112.7432169
  73.9367954  68.1291042 112.3403831  77.5198023  46.7932194 109.0245977
  76.7530419  46.2390681 109.1702659  77.9308728  46.8654063 109.8860129
  69.5239784  53.0816990 123.1151158  70.3871246  52.7253795 123.3254483
  68.9505195  52.7430885 123.8026563  82.0364683  76.5181751 109.8471975
  81.4729548  76.4271688 109.0788263  81.9217078  75.6981655 110.3274467
  87.6164242  80.1852718 105.1586440  86.9652222  80.7706799 104.7720454
  88.4108605  80.7158913 105.2181477  81.5419869  77.2741856 105.5573574
  82.3150745  76.7270843 105.4186450  81.8945268  78.1386105 105.7688036
  83.8786147  73.4334522 103.1892024  84.1311667  72.9116043 102.4275487
  82.9410706  73.2700667 103.2918708  88.9229430  72.4370300 110.9966767
  89.7092519  72.0189723 110.6457184  89.1868134  73.3416392 111.1648416
  89.0939507  77.8743150 105.6955424  88.4585340  77.9477777 106.4076329
  88.7636913  78.4636749 105.0174503  83.5982435  75.3362628 105.3916399
  83.4818694  74.6607531 106.0597483  83.7084695  74.8495002 104.5748552
  85.9413976  74.7972775 109.0963088  85.5772184  74.2703396 109.8076010
  86.7981092  74.4071244 108.9229574  85.5819463  69.8262674 104.0924437
  85.7493866  70.6942911 104.4594908  85.3916632  69.9889956 103.1685726
  81.7907278  74.7393450 111.7926972  80.8657774  74.6069664 112.0004663
  82.0391691  75.5187669 112.2896914  85.5608684  72.2820332 105.0771104
  85.4408309  72.7277383 105.9156584  84.8661273  72.6305650 104.5184642
  79.1516089  74.3826724 112.6270761  79.2808470  74.6361203 113.5410172
  78.4713540  74.9754432 112.3075416  91.2593750  72.7541805 105.9051438
  92.1711607  72.9869192 105.7299135  90.7503397  73.3378849 105.3426516
  88.6029725  68.9299841 114.1541299  87.7414204  69.2281095 114.4458036
  88.6292160  69.1470240 113.2222331  85.4191295  77.4742032 110.5615104
  85.8829640  77.7529735 109.7719727  85.1548093  76.5725476 110.3788195
  84.3560181  73.5965184 107.3704669  85.0584224  74.0486228 107.8378596
  84.0240809  72.9549003 107.9984562  78.0985515  71.8548737 112.6721803
  77.3084569  72.1106265 112.1961914  78.5896762  72.6697075 112.7773843
  80.0500260  72.2193316 109.6305280  79.2531423  72.3312010 110.1488775
  79.8225852  72.5579968 108.7646170  76.3823218  72.1079227 115.1036794
  76.6331256  72.9926237 115.3694370  76.9182766  71.9283829 114.3311886
  85.5953945  80.4106127 107.4466775  85.4599620  81.2557662 107.8751622
  86.1363758  80.6125404 106.6832708  79.0483343  77.9281565 108.0194700
  79.5607863  78.7224815 108.1700264  79.7006055  77.2307855 107.9528301
  88.9446409  63.9336689 115.9765668  88.6010678  64.8238330 115.9004779
  89.3125371  63.7438346 115.1135253  77.0132259  76.2570219 108.7954270
  77.8507481  76.6667227 108.5787978  77.1910527  75.3169661 108.7654464
  88.9096692  73.9245300 104.4838103  88.3943315  74.6949904 104.7226491
  88.6374000  73.2510436 105.1071165  86.4943803  68.7695000 109.5423342
  85.6385399  68.3801851 109.3628980  86.9070754  68.8486961 108.6823127
  88.0242949  66.3041344 113.9414901  87.5207745  66.2671479 113.1282707
  88.3173556  67.2134086 114.0011558  84.2685835  66.3880073 112.9481083
  85.1338832  66.1922882 112.5886972  84.3363344  66.1590425 113.8750440
  93.8830966  76.6777654 106.4191277  93.1060408  76.3388814 105.9746439
  94.5622447  76.6830277 105.7446242  88.6982995  71.7972392 106.3097884
  88.3933130  72.1118541 107.1608028  89.6513437  71.8753812 106.3525217
  87.1429427  77.9562615 107.9590838  86.6150788  77.2215375 107.6464076
  86.6416929  78.7337291 107.7130807  81.8748154  68.6182281 110.3197450
  82.4491906  68.3957463 109.5870643  82.4619137  68.6870976 111.0726051
  82.2017741  70.6486742 104.3393335  81.3655054  70.9861429 104.6602610
  82.0622511  70.5135722 103.4020472  84.1770822  65.4923530 109.0472519
  83.5235234  65.1772547 108.4229134  84.1351296  64.8699271 109.7732342
  85.2882027  75.7742825 100.9625811  84.3809088  75.5432079 101.1616960
  85.7853059  74.9780445 101.1499793  88.1950106  84.4840332 103.8822497
  87.5211804  84.7872029 104.4907455  88.5815928  85.2869413 103.5327955
  88.1943610  73.3796879 108.5022847  88.9415429  73.8918277 108.1929969
  88.4635200  73.0580932 109.3627241  86.4670260  75.8755420 105.4849801
  85.5581479  75.5914453 105.5822271  86.4965344  76.2954499 104.6253108
  90.6422447  70.4153996 110.4841636  89.9045204  69.9031382 110.8151879
  90.8949221  69.9754377 109.6724913  90.7434074  63.1930248 111.0783406
  91.0492951  62.3327611 110.7909321  91.4686679  63.7847868 110.8782400
  77.0358431  73.5960934 109.4665004  76.8382830  73.0030295 108.7416070
  76.4805095  73.2913144 110.1840942  85.0155154  73.4884041 111.5859597
  85.0703764  72.5357877 111.5102073  84.2046356  73.6443480 112.0700895
  86.1646348  77.4164164 102.8237880  85.7265778  76.7000023 102.3643517
  86.9056789  77.6440279 102.2622971  82.9547514  72.1061101 109.3449976
  82.1415380  72.4055271 109.7515168  83.4506508  71.7116789 110.0624458
  82.4461589  69.6779456 114.9611211  83.0860968  69.5368215 114.2634174
  81.6139119  69.3913969 114.5849813  79.5304656  73.1224968 107.1505956
  78.6002244  73.0609424 107.3675918  79.6262128  72.6000921 106.3542597
  79.4490205  69.6479781 109.7384197  79.7097023  70.5625114 109.6293358
  80.2707378  69.1804224 109.8880810  90.2857576  76.2748545 102.4169938
  89.6686746  75.5495374 102.3202990  89.8174064  77.0357906 102.0737012
  82.0756122  70.4933970 101.5391242  81.1985588  70.3722771 101.1753489
  82.5513875  69.7020048 101.2870131  73.5958262  75.2811130 111.6332749
  74.2829301  74.9672860 111.0453764  73.4406390  76.1852494 111.3600000
  78.3992984  70.1701326 116.0617773  78.3151173  69.5626996 115.3268183
  77.5775690  70.6610344 116.0627269  88.5716698  68.6554890 111.4287968
  89.0685397  67.9024852 111.1089038  87.8003679  68.6919206 110.8631177
  85.1551666  70.7972273 111.1559652  84.7849454  70.2443313 111.8440558
  85.6510759  70.1930406 110.6034652  91.0135692  65.6224483 113.5767327
  90.0998772  65.8528710 113.7449534  91.4428794  65.7062927 114.4281359
  73.1726238  73.3611723 113.9050216  73.2110337  72.8275314 114.6987334
  72.6666531  72.8346928 113.2861193  80.5517000  68.2076263 117.4012758
  80.6158327  69.0691094 116.9890156  80.4884120  67.5950265 116.6685117
  76.8034815  72.0875825 106.9804148  77.0988256  71.1786503 106.9271201
  75.9022851  72.0663564 106.6585150  80.3329062  70.1631822 112.9631696
  79.6115648  70.7767789 112.8239169  81.1222318  70.6989586 112.8848342
  78.5322657  69.7689923 107.1043473  78.2035363  68.8887302 106.9218579
  78.8862028  69.7137591 107.9919862  81.6464480  70.0562892 107.4718950
  81.9860553  70.5848814 106.7497559  82.0936601  70.3943299 108.2477517
  84.9924393  65.5249256 115.3749341  85.8150462  65.0509734 115.2528232
  85.2362456  66.3039739 115.8748028  83.6332627  68.5537514 105.6712243
  84.3540990  68.9318767 105.1675960  83.0097931  69.2726391 105.7747221
  87.7763750  69.2582663 106.6070575  87.9927365  70.1407301 106.3059404
  87.2957817  68.8668876 105.8776217  82.5162972  72.2168376 113.1841320
  82.3707552  72.5308679 114.0765602  82.0388175  72.8353277 112.6312219
  84.3759354  69.2070924 113.2322210  84.3620923  68.3112018 112.8954508
  85.0931782  69.2141588 113.8660496  83.7796250  68.0885305 108.5009780
  83.9012162  67.1601951 108.7000667  83.4898293  68.1023991 107.5888095
  86.6487441  65.7740215 111.6376500  86.6709138  65.8379548 110.6828479
  87.0655500  64.9344724 111.8317006  78.2231269  81.7709046 111.0469533
  79.0489289  81.4712818 110.6668176  77.8725321  81.0016668 111.4959321
  76.4239874  79.6895372 112.0058466  75.5871783  79.2617546 111.8242468
  76.3963520  79.8827815 112.9429258  82.7526309  79.6739437 106.5925667
  82.9014430  80.3574902 105.9392340  83.5592753  79.6544527 107.1075123
  80.5078942  75.7004615 107.5986736  80.2624984  74.7966945 107.7966946
  80.6774857  75.7021765 106.6566214  79.7774590  71.4332972 105.0972897
  79.0843835  71.5077327 104.4412933  79.5326342  70.6693316 105.6194414
  88.4488246  62.9928574 112.5012388  88.7290000  62.3251763 113.1272815
  89.2338853  63.1857669 111.9887052  86.2521715  82.1687568 104.0637414
  85.6795682  82.7877755 103.6107886  86.8254508  82.7186929 104.5977336
  89.4718975  82.4524718 105.1945997  90.4049648  82.3870279 105.3978872
  89.3842187  83.2880985 104.7360529  92.1006991  81.7690588 102.1549944
  92.0220623  81.4350452 103.0485702  92.9216658  82.2612356 102.1541416
  86.6368513  73.5048380 101.4053467  87.5827618  73.3754589 101.4741885
  86.2582758  72.7663042 101.8822895  92.6090398  65.1704386 111.3680359
  92.4115219  64.8619475 112.2523691  93.2190103  65.8966025 111.4978288
  84.8211430  71.4298357 101.3408352  83.9142886  71.1331470 101.4171066
  85.0987411  71.1328175 100.4742638  75.7389371  72.7504720 111.7907398
  75.4192155  71.8970028 111.4981772  75.1922799  72.9653298 112.5465366
  86.4373496  65.9735247 107.4952593  85.6274225  65.6282332 107.8707839
  87.1257913  65.6642790 108.0840205  88.3664044  65.0513293 109.1176890
  88.9195083  65.4708747 109.7766913  88.6034131  64.1249041 109.1599846
  83.5910215  68.2885292 101.4820331  84.4529379  68.6140190 101.7416149
  83.7760559  67.5016788 100.9693397  75.6077631  76.3707632 113.7600520
  74.9141102  75.9561585 113.2470474  76.3550622  76.4128168 113.1633939
  91.7442852  67.1613818 108.6255554  91.1641521  67.8198623 108.2433607
  91.4778784  66.3391163 108.2142972  90.1946418  66.5618876 110.8276875
  90.6946196  66.6735411 110.0191193  90.8382026  66.2579929 111.4677683
  77.5214373  76.3025886 111.6366535  77.4985061  76.4013573 110.6848418
  77.8315010  77.1491036 111.9583701  90.5267730  69.3213909 107.6811902
  89.6393585  69.6063560 107.4632097  90.9421719  69.1607672 106.8339179
  89.6710943  79.0858584 101.7759922  90.3746793  79.2908586 102.3917578
  88.9473592  79.6535345 102.0409006  90.5008753  74.8368445 107.8962193
  90.4443955  75.2936996 107.0569825  91.0537096  74.0759129 107.7185035
  94.3113559  70.6258177 108.7212312  94.0550493  70.2254812 109.5520520
  93.6866427  71.3401971 108.5962451  91.5797640  79.5241113 103.8258382
  92.4143244  79.0922311 103.6435857  91.4181983  79.3523126 104.7535277
  91.2343533  76.0273226 105.1914722  91.1792336  75.8617497 104.2503166
  90.6089588  76.7349259 105.3476912  84.5439658  65.5281335 104.7700040
  84.5318328  66.4723175 104.9268311  85.4363080  65.3451480 104.4759501
  88.3591778  62.1224112 109.0245977  87.5924173  61.5682598 109.1702659
  88.7702483  62.1945980 109.8860129  92.9149876  85.8225887 101.5391242
  92.0379342  85.7014688 101.1753489  93.3907629  85.0311966 101.2870131
  94.4303970  83.6177210 101.4820331  95.2923134  83.9432108 101.7416149
  94.6154314  82.8308706 100.9693397  44.8375089   0.1734784  90.6067804
  44.1636788   0.4766481  91.2152762  45.2240911   0.9763865  90.2573261
  48.7431975  -2.5414960  88.8795251  48.6645606  -2.8755096  89.7731009
  49.5641641  -2.0493192  88.8786723  46.3135926  -5.2246965  88.5005229
  47.0171776  -5.0196962  89.1162885  45.5898575  -4.6570203  88.7654313
  49.5183421   7.5368120  96.5717282  48.9548286   7.4458057  95.8033569
  49.4035816   6.7168025  97.0519774  55.0982980  11.2039088  91.8831746
  54.4470959  11.7893168  91.4965760  55.8927342  11.7345283  91.9426784
  49.0238607   8.2928225  92.2818881  49.7969483   7.7457212  92.1431757
  49.3764006   9.1572474  92.4933342  51.3604885   4.4520891  89.9137331
  51.6130405   3.9302413  89.1520794  50.4229444   4.2887037  90.0164014
  56.4048167   3.4556670  97.7212074  57.1911257   3.0376093  97.3702491
  56.6686872   4.3602762  97.8893722  56.5758245   8.8929520  92.4200731
  55.9404078   8.9664146  93.1321635  56.2455651   9.4823119  91.7419810
  61.8056594   3.3931903  98.6245052  62.5381766   2.8231120  98.8582882
  61.0495950   3.0053503  99.0651558  51.0801173   6.3548997  92.1161706
  50.9637431   5.6793901  92.7842790  51.1903433   5.8681371  91.2993859
  53.4232714   5.8159144  95.8208395  53.0590921   5.2889765  96.5321316
  54.2799830   5.4257613  95.6474880  53.0638201   0.8449044  90.8169743
  53.2312604   1.7129280  91.1840214  52.8735370   1.0076326  89.8931033
  53.0427422   3.3006701  91.8016410  52.9227047   3.7463752  92.6401891
  52.3480010   3.6492019  91.2429948  50.8034314  16.0710343  95.4506541
  50.7258344  17.0218168  95.5295022  50.1995958  15.7256216  96.1081468
  58.7412488   3.7728175  92.6296744  59.6530344   4.0055561  92.4544442
  58.2322135   4.3565219  92.0671823  57.3482070   8.7553993 100.0210326
  56.7190933   8.9199707  99.3186394  56.9607733   9.1695603 100.7921290
  61.2271302   9.6908431  97.3754690  60.5422341  10.0707332  96.8251723
  61.3115152  10.3003758  98.1086637  52.9010032   8.4928401  97.2860411
  53.3648378   8.7716104  96.4965033  52.6366830   7.5911846  97.1033502
  51.8378918   4.6151554  94.0949976  52.5402962   5.0672597  94.5623902
  51.5059547   3.9735372  94.7229869  59.5968062  10.2140345 102.1472390
  60.4185506   9.8120533 101.8655072  59.5930465  10.1108580 103.0988506
  67.6874055   6.5579094  98.4957362  66.9337763   5.9886492  98.3401366
  67.8221596   6.5241758  99.4427997  53.0772683  11.4292496  94.1712081
  52.9418358  12.2744032  94.5996929  53.6182496  11.6311774  93.4078015
  46.5302080   8.9467934  94.7440006  47.0426601   9.7411185  94.8945571
  47.1824793   8.2494225  94.6773608  48.3396965  12.0633691  96.8262759
  48.5163593  12.9851655  96.6383743  49.1353799  11.7492110  97.2557139
  56.3915429   4.9431669  91.2083410  55.8762053   5.7136274  91.4471797
  56.1192738   4.2696805  91.8316471  61.3649703   7.6964024  93.1436583
  60.5879146   7.3575183  92.6991745  62.0441184   7.7016647  92.4691548
  56.1801733   2.8158761  93.0343191  55.8751868   3.1304910  93.8853334
  57.1332175   2.8940181  93.0770524  54.6248164   8.9748985  94.6836145
  54.0969526   8.2401744  94.3709382  54.1235667   9.7523661  94.4376113
  59.6041010   7.1698005  99.8003191  58.9464685   7.8597266  99.8883320
  60.4081410   7.5594437 100.1437178  58.4146469   5.5242378  97.8507133
  58.9278351   6.1572370  98.3528843  59.0647693   4.9243573  97.4850493
  49.6836479   1.6673112  91.0638642  48.8473791   2.0047798  91.3847916
  49.5441249   1.5322092  90.1265779  52.7700765   6.7929195  87.6871118
  51.8627826   6.5618448  87.8862267  53.2671797   5.9966814  87.8745100
  55.6768843  15.5026702  90.6067804  55.0030542  15.8058399  91.2152762
  56.0634665  16.3055782  90.2573261  55.6762348   4.3983249  95.2268154
  56.4234167   4.9104646  94.9175276  55.9453937   4.0767302  96.0872547
  53.9488998   6.8941790  92.2095108  53.0400217   6.6100823  92.3067578
  53.9784082   7.3140868  91.3498415  59.1808265  10.5048379  95.9786276
  58.7270592   9.6639289  96.0351466  58.5502232  11.1409778  96.3161056
  57.6241205  12.3424876  96.9136094  57.9164179  12.9029933  96.1948459
  58.1339825  12.6353437  97.6689253  53.6465086   8.4350533  89.5483187
  53.2084516   7.7186392  89.0888824  54.3875527   8.6626648  88.9868278
  52.5874830  13.1205227  98.0029547  52.5451009  13.3466073  97.0738079
  53.5037529  12.8868602  98.1515348  61.7638201   6.7107730  95.6059505
  61.6256099   6.9009326  94.6780694  61.4074419   7.4727113  96.0627556
  61.7907580   8.7784257 100.6170777  62.2244087   8.6859547 101.4653831
  62.5039161   8.7541758  99.9790793  50.7040631   9.9968256  97.7991510
  51.4981229   9.5018576  97.5974085  49.9932323   9.4686119  97.4359215
  55.5235475  12.3786352 102.1503877  55.5772497  12.9477288 102.9181593
  54.6550256  12.5488237 101.7857914  47.0123394   4.1411338  93.8751262
  46.0820982   4.0795793  94.0921225  47.1080866   3.6187291  93.0787904
  53.8760059  15.6706374  92.8214883  54.0511814  15.1994418  93.6360506
  53.1892847  16.2972141  93.0496144  54.8317122   9.9478881  98.8678185
  54.4966954   9.9079651  99.7635834  54.3321067   9.2823597  98.3948595
  57.7676313   7.2934915  89.1415244  57.1505484   6.5681743  89.0448297
  57.2992802   8.0544275  88.7982318  48.4421144  18.8195737  99.5954743
  48.6817742  19.4514261 100.2733762  47.5990340  18.4683777  99.8820103
  49.5574859   1.5120339  88.2636548  48.6804326   1.3909140  87.8998795
  50.0332612   0.7206418  88.0115437  52.9549006  14.6274860 101.9996247
  52.8819177  15.4329831 102.5115552  52.5126399  14.8266826 101.1744269
  52.7438785  13.8646630  95.5099069  51.9606307  14.4068310  95.6037294
  53.4431531  14.3820609  95.9093310  63.9065193   5.3781625  99.7951566
  63.8955069   6.2606340  99.4245499  63.0382572   5.0253176  99.6006103
  57.1365216   8.4312946  95.7271698  56.2021495   8.5514409  95.5576402
  57.3141885   7.5285413  95.4631708  60.5237767   4.2730266  96.2621732
  60.9898220   5.1058257  96.1882035  60.9745268   3.8075247  96.9666990
  58.5913999  10.6174087  93.2607884  58.8673842  10.5030682  94.1701758
  57.7218497  10.2191572  93.2220057  55.2268063  14.8660438  96.9040698
  55.4090457  14.0482094  97.3668450  56.0501049  15.0828130  96.4665588
  55.5610228  13.7928623  94.1655746  56.0897995  13.2821078  93.5525908
  55.8238448  13.4771153  95.0301279  48.9165976  14.8443740  96.9253522
  48.2476351  15.3289867  96.4417562  48.7778846  15.0912960  97.8396901
  53.0571245  16.8787483 103.5236180  53.6089553  17.0419105 104.2885266
  53.3977438  17.4691921 102.8516205  56.1939632  14.8269459 100.5099863
  56.0690771  14.0259199 100.0010808  56.8518723  15.3215652 100.0213833
  58.2574540  12.6278479 102.1379413  57.3104876  12.5083830 102.0657739
  58.6057313  11.7400977 102.2205674  55.2620974  12.4231195  98.3383765
  55.1145936  11.4947902  98.5191335  56.0874467  12.4451286  97.8540840
  58.8655095  13.2459754  99.4248638  59.7901643  13.0402615  99.2873089
  58.6970399  12.9976155 100.3337979  51.1151365  -0.4276116  92.3957550
  51.8359728  -0.0494864  91.8921267  50.4916669   0.2912760  92.4992528
  55.2582488   0.2769033  93.3315882  55.4746102   1.1593670  93.0304710
  54.7776555  -0.1144754  92.6021524  58.6550412  13.7645421  94.7810729
  58.8287289  13.1991844  94.0284582  59.1479303  14.5646316  94.5990219
  64.5089803   6.5281844  96.4001029  64.9520949   5.7789169  96.0020152
  63.6316313   6.5191980  96.0174761  59.6425584  13.0812186  91.8807627
  60.3376489  13.7018878  92.0994942  59.9848734  12.2307537  92.1560005
  61.5417007  10.5311891  93.4094958  62.0668331  10.8699164  92.6844278
  61.4539360   9.5958906  93.2258093  53.2257668  16.5983874  97.7690211
  52.7862658  16.1060253  98.4623068  53.9765785  16.0556842  97.5282287
  45.7050007  12.7895415  97.7714839  46.5308027  12.4899187  97.3913483
  45.3544059  12.0203038  98.2204628  50.6731540  12.1421883  99.8412513
  50.0511549  11.4792588  99.5414741  51.3436407  12.1683015  99.1586161
  50.2345047  10.6925807  93.3170974  50.3833167  11.3761271  92.6637646
  51.0411491  10.6730897  93.8320429  64.0522668   7.9987082  98.7923476
  64.8869559   8.4376886  98.9561037  64.1881796   7.5225736  97.9731722
  47.9897680   6.7190984  94.3232042  47.7443722   5.8153314  94.5212253
  48.1593595   6.7208135  93.3811520  47.2593328   2.4519342  91.8218204
  46.5662573   2.5263697  91.1658240  47.0145079   1.6879686  92.3439721
  53.7340453  13.1873937  90.7882721  53.1614420  13.8064124  90.3353193
  54.3073246  13.7373299  91.3222643  56.9537712  13.4711087  91.9191303
  57.8868386  13.4056649  92.1224179  56.8660925  14.3067354  91.4605836
  59.5825729  12.7876958  88.8795251  59.5039361  12.4536821  89.7731009
  60.4035396  13.2798726  88.8786723  54.1187251   4.5234750  88.1298773
  55.0646356   4.3940958  88.1987191  53.7401496   3.7849412  88.6068202
  68.0980470   6.7154704 101.2277606  68.8283859   6.4539992 101.7885310
  67.4887416   5.9783426 101.2679674  66.1795767   4.8562566 101.8252057
  65.4528931   4.7218531 101.2168549  65.7643054   5.1639395 102.6308775
  52.3030168   2.4484726  88.0653659  51.3961624   2.1517839  88.1416372
  52.5806149   2.1514544  87.1987945  51.0728953  -0.6928338  88.2065638
  51.9348117  -0.3673440  88.4661455  51.2579297  -1.4796842  87.6938704
  59.2261589  -1.8199812  95.3500861  58.6460258  -1.1615008  94.9678913
  58.9597522  -2.6422467  94.9388278  58.0086467   0.3400278  94.4057209
  57.1212322   0.6249929  94.1877404  58.4240456   0.1794042  93.5584486
  46.0170718  14.9208030  99.4928654  45.8825186  14.1608430  98.9266652
  45.6002780  15.6448929  99.0257443  57.1529681  10.1044953  88.5005229
  57.8565531  10.3094956  89.1162885  56.4292330  10.6721715  88.7654313
  57.9827491   5.8554814  94.6207499  57.9262693   6.3123366  93.7815132
  58.5355834   5.0945499  94.4430342  61.7932297   1.6444546  95.4457619
  61.5369231   1.2441182  96.2765826  61.1685165   2.3588340  95.3207758
  66.1044635   4.3840619  97.9528910  65.5444193   4.4533809  98.7260472
  65.4988138   4.2081604  97.2328406  49.1739844  15.8177347  99.7047096
  49.0572228  16.7622779  99.6025787  48.3532290  15.5150908 100.0932896
  59.0616378  10.5427482  90.5503689  59.8961982  10.1108681  90.3681164
  58.9000721  10.3709496  91.4780584  58.7162270   7.0459596  91.9160028
  58.6611074   6.8803867  90.9748473  58.0908326   7.7535629  92.0722218
  52.0258396  -3.4532295  91.4945347  52.0137066  -2.5090455  91.6513618
  52.9181818  -3.6362150  91.2004808  51.9547960  15.2236595  99.5813103
  51.0043591  15.2238457  99.4677476  52.2580446  14.4769330  99.0649138
  67.6900653  21.0597133 100.6458866  68.3279063  20.9403881  99.9422206
  67.5721496  22.0077977 100.7046818  64.4990360  21.0124562 100.5820391
  64.1608871  20.8965626  99.6940925  65.3680128  20.6115727 100.5621397
  60.3577175  22.8660038  96.5717282  59.7942040  22.7749975  95.8033569
  60.2429570  22.0459942  97.0519774  64.9810143  22.1659413 106.5406596
  64.9698783  21.7712212 105.6687100  65.1430782  21.4325486 107.1340368
  57.9041607  24.3611230  99.4101502  58.6962899  24.0202054  98.9947801
  58.1438257  24.4706205 100.3303655  65.9376734  26.5331006  91.8831746
  65.2864714  27.1185086  91.4965760  66.7321097  27.0637201  91.9426784
  59.8632361  23.6220143  92.2818881  60.6363237  23.0749130  92.1431757
  60.2157760  24.4864392  92.4933342  61.7017404  24.9496525 105.4885780
  61.4107270  25.8542156 105.3732446  62.3374388  24.9913053 106.2029850
  62.6273611  22.3273374 102.0787140  63.2237183  22.1029396 101.3644103
  62.6848582  21.5858119 102.6812588  62.1998639  19.7812809  89.9137331
  62.4524160  19.2594330  89.1520794  61.2623198  19.6178954  90.0164014
  67.2441922  18.7848587  97.7212074  68.0305011  18.3668010  97.3702491
  67.5080626  19.6894679  97.8893722  67.4151999  24.2221438  92.4200731
  66.7797832  24.2956064  93.1321635  67.0849406  24.8115036  91.7419810
  72.6450349  18.7223820  98.6245052  73.3775521  18.1523037  98.8582882
  71.8889705  18.3345421  99.0651558  61.9194928  21.6840915  92.1161706
  61.8031186  21.0085818  92.7842790  62.0297188  21.1973289  91.2993859
  64.2626469  21.1451062  95.8208395  63.8984676  20.6181683  96.5321316
  65.1193585  20.7549531  95.6474880  70.1675769  12.4345395 103.0839661
  69.8359094  13.3040806 102.8600876  69.5721383  12.1181679 103.7633691
  63.9031956  16.1740962  90.8169743  64.0706358  17.0421198  91.1840214
  63.7129125  16.3368243  89.8931033  66.6607289  24.6357941 102.4835574
  66.3608012  25.5382979 102.3751381  66.3158348  24.3690124 103.3356727
  60.1119770  21.0871737  98.5172278  59.1870267  20.9547952  98.7249970
  60.3604184  21.8665957  99.0142221  70.0604433  17.1540481 100.1633011
  69.1521310  17.0855889  99.8691772  70.0092028  17.6312426 100.9914837
  63.8821177  18.6298619  91.8016410  63.7620802  19.0755670  92.6401891
  63.1873765  18.9783937  91.2429948  57.4728581  20.7305011  99.3516067
  57.6020963  20.9839490 100.2655479  56.7926033  21.3232719  99.0320722
  61.6428069  31.4002261  95.4506541  61.5652098  32.3510086  95.5295022
  61.0389712  31.0548133  96.1081468  64.1345298  18.5730126 108.1067908
  63.3578632  19.1324046 108.0970773  64.7735861  19.0586909 108.6282778
  71.9266079  15.3556919 101.9410885  71.2840459  15.6489452 101.2950680
  71.4221008  15.2409840 102.7464082  69.5806243  19.1020092  92.6296744
  70.4924099  19.3347479  92.4544442  69.0715890  19.6857137  92.0671823
  62.3891671  21.3815580 107.6685875  63.1306355  21.9200624 107.3920699
  61.6828656  22.0081868 107.8257427  67.8647010  23.5244720 106.2658037
  68.2730366  23.0827131 105.5212669  67.1424272  22.9497348 106.5192230
  64.2178080  18.4617327 103.6391594  65.0639276  18.8856741 103.7826243
  64.1576718  17.8050951 104.3330157  68.1875825  24.0845911 100.0210326
  67.5584687  24.2491625  99.3186394  67.8001487  24.4987520 100.7921290
  72.0665057  25.0200349  97.3754690  71.3816095  25.3999250  96.8251723
  72.1508906  25.6295675  98.1086637  67.3677526  16.1221695 105.2972767
  67.1238458  16.8763756 104.7607043  67.6437456  16.5007043 106.1320015
  69.3215988  22.6660308 103.9750033  69.5332884  23.3092068 103.2984414
  69.2745737  21.8322624 103.5071963  66.9242217  15.2778128 100.8786605
  66.0626696  15.5759382 101.1703343  66.9504652  15.4948527  99.9467638
  63.7403787  23.8220319  97.2860411  64.2042132  24.1008022  96.4965033
  63.4760585  22.9203763  97.1033502  60.6327868  23.3691800 100.2240174
  61.2029225  23.7979069  99.5857659  61.2235980  23.0874385 100.9224360
  62.6772673  19.9443471  94.0949976  63.3796716  20.3964515  94.5623902
  62.3453301  19.3027290  94.7229869  61.1253034  18.5355228 108.4701185
  60.4951695  19.2171509 108.7036582  61.0189122  18.4238309 107.5254324
  56.4198007  18.2027024  99.3967110  55.6297061  18.4584552  98.9207220
  56.9109254  19.0175362  99.5019150  70.4361816  25.5432263 102.1472390
  71.2579260  25.1412450 101.8655072  70.4324219  25.4400497 103.0988506
  58.3712752  18.5671603  96.3550586  57.5743916  18.6790297  96.8734082
  58.1438344  18.9058255  95.4891477  64.2018420  25.0916306 104.3033101
  64.2662852  25.5536714 105.1391273  63.4929344  24.4613671 104.4315411
  54.7035710  18.4557514 101.8282100  54.9543748  19.3404524 102.0939676
  55.2395258  18.2762116 101.0557192  78.5267809  21.8871012  98.4957362
  77.7731518  21.3178410  98.3401366  78.6615351  21.8533676  99.4427997
  63.9166438  26.7584414  94.1712081  63.7812112  27.6035950  94.5996929
  64.4576250  26.9603692  93.4078015  57.3695835  24.2759852  94.7440006
  57.8820355  25.0703102  94.8945571  58.0218548  23.5786142  94.6773608
  59.1790720  27.3925608  96.8262759  59.3557348  28.3143573  96.6383743
  59.9747553  27.0784027  97.2557139  58.4643076  19.4390240 106.7024923
  58.3496591  18.5375497 107.0032022  57.6087594  19.6853937 106.3509739
  65.5434914  27.3807980 108.3012423  65.0998768  26.5944359 107.9833328
  66.2052127  27.5687131 107.6356314  60.3022035  28.9103782 102.8273102
  60.8529460  28.7820845 102.0550096  59.4633511  29.2098671 102.4767995
  67.6416152  27.6610780 106.3293825  67.6234627  28.4819661 105.8374094
  68.5636072  27.5364856 106.5543966  64.0989206  25.1754910 107.1717333
  64.6317543  24.4143198 106.9416641  63.5703287  24.8828562 107.9141487
  67.2658901  10.2814976 102.7010975  66.9223170  11.1716617 102.6250085
  67.6337864  10.0916633 101.8380560  55.3344752  22.6048506  95.5199577
  56.1719974  23.0145515  95.3033285  55.5123019  21.6647948  95.4899771
  67.2309184  20.2723587  91.2083410  66.7155807  21.0428192  91.4471797
  66.9586492  19.5988723  91.8316471  64.8156295  15.1173288  96.2668648
  63.9597891  14.7280138  96.0874287  65.2283247  15.1965248  95.4068434
  66.3455441  12.6519631 100.6660208  65.8420237  12.6149766  99.8528013
  66.6386048  13.5612374 100.7256865  62.5898327  12.7358361  99.6726390
  63.4551324  12.5401169  99.3132279  62.6575836  12.5068712 100.5995746
  72.2043458  23.0255942  93.1436583  71.4272901  22.6867101  92.6991745
  72.8834939  23.0308565  92.4691548  67.0195487  18.1450679  93.0343191
  66.7145623  18.4596828  93.8853334  67.9725929  18.2232099  93.0770524
  65.4641919  24.3040902  94.6836145  64.9363280  23.5693662  94.3709382
  64.9629422  25.0815579  94.4376113  70.4434765  22.4989923  99.8003191
  69.7858439  23.1889184  99.8883320  71.2475164  22.8886355 100.1437178
  60.1960646  14.9660569  97.0442756  60.7704398  14.7435750  96.3115949
  60.7831629  15.0349263  97.7971358  69.2540224  20.8534295  97.8507133
  69.7672105  21.4864287  98.3528843  69.9041448  20.2535491  97.4850493
  60.5230234  16.9965030  91.0638642  59.6867546  17.3339716  91.3847916
  60.3835003  16.8614009  90.1265779  62.4983314  11.8401817  95.7717826
  61.8447727  11.5250835  95.1474441  62.4563788  11.2177558  96.4977649
  63.6094519  22.1221113  87.6871118  62.7021581  21.8910366  87.8862267
  64.1065551  21.3258732  87.8745100  66.5162598  30.8318620  90.6067804
  65.8424297  31.1350316  91.2152762  66.9028420  31.6347700  90.2573261
  65.7321055  18.3283751 100.0965474  64.8143616  18.5498698  99.9387162
  66.1481198  18.4030061  99.2377181  66.5156102  19.7275167  95.2268154
  67.2627921  20.2396564  94.9175276  66.7847692  19.4059219  96.0872547
  64.7882752  22.2233707  92.2095108  63.8793972  21.9392740  92.3067578
  64.8177836  22.6432786  91.3498415  70.0202020  25.8340297  95.9786276
  69.5664347  24.9931207  96.0351466  69.3895987  26.4701695  96.3161056
  68.9634939  16.7632283  97.2086943  68.2257696  16.2509669  97.5397186
  69.2161713  16.3232665  96.3970220  68.4634959  27.6716794  96.9136094
  68.7557933  28.2321851  96.1948459  68.9733580  27.9645355  97.6689253
  69.0646567   9.5408535  97.8028712  69.3705444   8.6805898  97.5154627
  69.7899172  10.1326155  97.6027706  55.3570923  19.9439222  96.1910310
  55.1595323  19.3508582  95.4661377  54.8017587  19.6391432  96.9086249
  63.3367647  19.8362328  98.3104903  63.3916256  18.8836164  98.2347380
  62.5258849  19.9921767  98.7946202  64.4858840  23.7642451  89.5483187
  64.0478270  23.0478310  89.0888824  65.2269281  23.9918566  88.9868278
  61.2760006  18.4539388  96.0695282  60.4627872  18.7533558  96.4760474
  61.7719001  18.0595077  96.7869765  63.4268584  28.4497145  98.0029547
  63.3844763  28.6757991  97.0738079  64.3431283  28.2160519  98.1515348
  66.8734218  18.9181212 104.9010176  67.2283606  19.1452685 105.7604642
  67.5206349  19.2499589 104.2787431  72.6031955  22.0399648  95.6059505
  72.4649854  22.2301244  94.6780694  72.2468174  22.8019031  96.0627556
  60.7674081  16.0257743 101.6856517  61.4073461  15.8846502 100.9879481
  59.9351612  15.7392257 101.3095119  72.6301335  24.1076175 100.6170777
  73.0637841  24.0151464 101.4653831  73.3432915  24.0833676  99.9790793
  61.5434385  25.3260174  97.7991510  62.3374984  24.8310494  97.5974085
  60.8326077  24.7978037  97.4359215  66.3629230  27.7078269 102.1503877
  66.4166252  28.2769206 102.9181593  65.4944011  27.8780154 101.7857914
  57.8517149  19.4703255  93.8751262  56.9214737  19.4087711  94.0921225
  57.9474621  18.9479208  93.0787904  57.7702698  15.9958068  96.4629504
  58.0309515  16.9103402  96.3538665  58.5919870  15.5282511  96.6126117
  59.2427623  17.4095825 103.6328329  59.9150676  17.2013188 102.9840977
  58.4157409  17.2117911 103.1933561  73.4916884  24.1499876 103.1503662
  73.6852774  25.0545686 103.3962937  73.3917502  23.6907295 103.9842247
  65.1453195  14.0357766 105.6493989  64.4981110  14.7347716 105.5558466
  65.9154210  14.4693910 106.0170238  68.5531993  24.3006619 108.7244543
  68.4017499  24.0717170 107.8074626  68.5436672  25.2577220 108.7375888
  65.3217329  21.8738531 103.7090809  66.2509389  22.0249691 103.5359776
  64.9008359  21.9622552 102.8539456  64.1205661  25.8989196 101.4789347
  63.9816747  25.5307980 102.3515285  63.3320257  26.4136835 101.3073305
  64.7153813  30.9998292  92.8214883  64.8905569  30.5286335  93.6360506
  64.0286601  31.6264058  93.0496144  65.6710876  25.2770798  98.8678185
  65.3360709  25.2371568  99.7635834  65.1714822  24.6115514  98.3948595
  59.6455120  20.6838428 104.3930766  59.5074918  19.9518667 104.9942305
  60.5560044  20.5947329 104.1114953  68.6070068  22.6226833  89.1415244
  67.9899239  21.8973661  89.0448297  68.1386556  23.3836193  88.7982318
  62.2737421  20.3958388 103.8814445  62.9837039  19.7551580 103.8401064
  62.2306729  20.6471283 104.8040626  70.2624200  27.3325741 106.8021025
  70.2036746  26.6484961 106.1351608  70.6643718  28.0744731 106.3501651
  60.9866355  17.3823606 105.7010085  60.4503712  16.9314344 106.3531681
  60.3983063  17.5169514 104.9580549  59.2814898  34.1487655  99.5954743
  59.5211497  34.7806179 100.2733762  58.4384095  33.7975695  99.8820103
  60.3968614  16.8412257  88.2636548  59.5198080  16.7201058  87.8998795
  60.8726367  16.0498335  88.0115437  70.2641607  25.2965325 105.0335004
  69.3768386  24.9591247 105.1561403  70.8340158  24.5648356 105.2703770
  51.9170754  21.6289417  98.3578056  52.6041794  21.3151147  97.7699071
  51.7618883  22.5330781  98.0845307  56.7205476  16.5179613 102.7863079
  56.6363665  15.9105283 102.0513489  55.8988182  17.0088632 102.7872576
  63.7942760  29.9566777 101.9996247  63.7212932  30.7621749 102.5115552
  63.3520153  30.1558743 101.1744269  63.5832540  29.1938547  95.5099069
  62.8000062  29.7360228  95.6037294  64.2825285  29.7112527  95.9093310
  66.8929190  15.0033177  98.1533274  67.3897889  14.2503139  97.8334345
  66.1216171  15.0397494  97.5876484  74.7458947  20.7073542  99.7951566
  74.7348824  21.5898258  99.4245499  73.8776327  20.3545093  99.6006103
  66.2541444  29.8553611 104.1554406  66.9669416  30.4901076 104.0830308
  65.7631472  29.9517477 103.3394408  67.9758971  23.7604864  95.7271698
  67.0415249  23.8806327  95.5576402  68.1535639  22.8577331  95.4631708
  63.4764159  17.1450560  97.8804959  63.1061946  16.5921600  98.5685865
  63.9723251  16.5408693  97.3279959  71.3631522  19.6022183  96.2621732
  71.8291974  20.4350175  96.1882035  71.8139022  19.1367165  96.9666990
  61.3053357  27.6048055 104.9759977  62.0062817  28.2384538 105.1289371
  60.8348472  27.9462786 104.2155616  69.4307753  25.9466005  93.2607884
  69.7067597  25.8322599  94.1701758  68.5612252  25.5483490  93.2220057
  69.3348185  11.9702770 100.3012633  68.4211265  12.2006997 100.4694840
  69.7641286  12.0541214 101.1526666  69.1054643  20.1592662 102.8012527
  68.4526093  20.4068570 102.1464980  69.4835023  19.3456801 102.4675005
  66.0661817  30.1952355  96.9040698  66.2484212  29.3774011  97.3668450
  66.8894803  30.4120048  96.4665588  66.4003983  29.1220541  94.1655746
  66.9291749  28.6112995  93.5525908  66.6632202  28.8063071  95.0301279
  65.1542216  20.9012473 109.2878564  64.4782853  20.8006603 109.9580940
  65.9769850  20.7451687 109.7514562  56.9021075  27.1384410 101.9091080
  57.4874512  26.3928098 102.0418984  56.7045914  27.4488367 102.7927744
  59.7559731  30.1735657  96.9253522  59.0870106  30.6581785  96.4417562
  59.6172600  30.4204878  97.8396901  51.4938730  19.7090010 100.6295523
  51.5322830  19.1753601 101.4232641  50.9879023  19.1825216 100.0106500
  63.8964999  32.2079401 103.5236180  64.4483307  32.3711022 104.2885266
  64.2371193  32.7983839 102.8516205  58.8729492  14.5554551 104.1258065
  58.9370819  15.4169382 103.7135463  58.8096613  13.9428552 103.3930424
  68.7475873  27.0340658 109.3784835  69.2915777  27.6470617 108.8839790
  68.1662718  27.5920237 109.8951848  55.1247308  18.4354112  93.7049454
  55.4200749  17.5264791  93.6516508  54.2235343  18.4141852  93.3830457
  67.0333386  30.1561376 100.5099863  66.9084526  29.3551116 100.0010808
  67.6912478  30.6507570 100.0213833  58.6541555  16.5110109  99.6877003
  57.9328140  17.1246077  99.5484476  59.4434810  17.0467874  99.6093649
  69.0968295  27.9570396 102.1379413  68.1498630  27.8375748 102.0657739
  69.4451068  27.0692894 102.2205674  56.8535149  16.1168210  93.8288779
  56.5247855  15.2365589  93.6463885  57.2074520  16.0615879  94.7165169
  66.1014728  27.7523113  98.3383765  65.9539691  26.8239820  98.5191335
  66.9268222  27.7743203  97.8540840  59.9676972  16.4041180  94.1964257
  60.3073045  16.9327101  93.4742865  60.4149093  16.7421586  94.9722824
  69.7048850  28.5751671  99.4248638  70.6295397  28.3694533  99.2873089
  69.5364153  28.3268073 100.3337979  62.6620413  14.7878230 103.6467325
  62.3217234  13.9886044 104.0488005  61.9559419  15.0879941 103.0744158
  63.3136885  11.8727543 102.0994648  64.1362954  11.3988021 101.9773538
  63.5574949  12.6518027 102.5993334  61.9545120  14.9015801  92.3957550
  62.6753482  15.2797054  91.8921267  61.3310424  15.6204678  92.4992528
  66.0976242  15.6060950  93.3315882  66.3139857  16.4885588  93.0304710
  65.6170310  15.2147164  92.6021524  60.8375464  18.5646664  99.9086627
  60.6920045  18.8786967 100.8010908  60.3600667  19.1831564  99.3557525
  62.6971847  15.5549212  99.9567516  62.6833415  14.6590305  99.6199814
  63.4144275  15.5619875 100.5905802  64.5497977  15.9886552 102.0020644
  64.2915755  16.9103622 102.0004974  64.0183018  15.5916986 102.6921108
  69.4944166  29.0937339  94.7810729  69.6681044  28.5283761  94.0284582
  69.9873057  29.8938234  94.5990219  55.3121126  21.1052008 102.8474288
  54.7674594  21.8811816 102.9794562  56.1900476  21.4522812 102.6893409
  62.1008743  14.4363592  95.2255086  62.2224654  13.5080238  95.4245974
  61.8110785  14.4502278  94.3133402  64.9699933  12.1218502  98.3621806
  64.9921630  12.1857835  97.4073786  65.3867992  11.2823011  98.5562312
  75.3483557  21.8573762  96.4001029  75.7914703  21.1081087  96.0020152
  74.4710068  21.8483898  96.0174761  70.4819339  28.4104103  91.8807627
  71.1770243  29.0310796  92.0994942  70.8242489  27.5599454  92.1560005
  56.0987148  20.2321904 105.7404445  55.3568884  20.3804540 106.3269075
  55.7779892  20.4930170 104.8771194  72.3810762  25.8603809  93.4094958
  72.9062086  26.1991082  92.6844278  72.2933114  24.9250824  93.2258093
  64.0430810  29.7737882 105.5384835  64.3517937  29.5287029 106.4107534
  64.8406292  29.9784521 105.0503705  64.0651422  31.9275792  97.7690211
  63.6256413  31.4352171  98.4623068  64.8159539  31.3848760  97.5282287
  56.5443761  28.1187333  97.7714839  57.3701781  27.8191105  97.3913483
  56.1937813  27.3494955  98.2204628  61.5125295  27.4713801  99.8412513
  60.8905304  26.8084506  99.5414741  62.1830162  27.4974933  99.1586161
  54.7452367  26.0373659  98.7303773  53.9084275  25.6095834  98.5487774
  54.7176012  26.2306103  99.6674564  72.0704668  26.4936712 108.7146156
  71.2800212  26.4760851 108.1750655  71.8338022  27.0325006 109.4695193
  72.1902543  23.3429179 106.0278885  72.2400548  23.1779186 106.9694407
  72.0816466  22.4756438 105.6376765  61.0738802  26.0217724  93.3170974
  61.2226922  26.7053189  92.6637646  61.8805245  26.0022815  93.8320429
  69.4806305  19.3260107 107.3438191  70.3816168  19.1866572 107.0522189
  69.5554280  19.4914562 108.2836369  63.8149111  16.7026962 106.1891378
  62.9452420  16.9960528 105.9173966  64.0508591  17.2867407 106.9098641
  73.6920740  25.7626120 106.2720906  73.4005548  26.1256101 107.1084367
  73.0792871  25.0493129 106.0934238  74.8916422  23.3279000  98.7923476
  75.7263313  23.7668804  98.9561037  75.0275551  22.8517653  97.9731722
  71.9407928  20.8858735 104.7400964  72.4162050  21.0786381 103.9319816
  71.0173493  20.9417921 104.4944348  58.8291435  22.0482902  94.3232042
  58.5837476  21.1445232  94.5212253  58.9987349  22.0500053  93.3811520
  66.5188144  12.9206578 103.7056798  67.0370088  13.6567605 103.3803287
  66.1643277  13.2270572 104.5403557  58.0987082  17.7811260  91.8218204
  57.4056327  17.8555615  91.1658240  57.8538834  17.0171603  92.3439721
  66.7700739   9.3406861  99.2257695  67.0502492   8.6730050  99.8518121
  67.5551346   9.5335957  98.7132358  64.5734207  28.5165855  90.7882721
  64.0008174  29.1356042  90.3353193  65.1467001  29.0665217  91.3222643
  70.6409597  17.7624495 102.9729270  71.5927020  17.8622593 102.9941494
  70.4713047  16.9702764 103.4827354  68.6623976  14.8480078 103.1588671
  68.0673909  15.1285091 102.4635159  68.3773673  15.3373979 103.9305412
  67.7931467  28.8003005  91.9191303  68.7262140  28.7348567  92.1224179
  67.7054680  29.6359272  91.4605836  70.4219484  28.1168875  88.8795251
  70.3433115  27.7828739  89.7731009  71.2429150  28.6090643  88.8786723
  73.1197675  20.9830615 102.0871569  73.0873995  20.0446615 102.2731253
  73.7298298  21.0614651 101.3537394  64.9581006  19.8526668  88.1298773
  65.9040110  19.7232876  88.1987191  64.5795251  19.1141330  88.6068202
  73.2692163  17.7741658 102.1329853  72.7531212  16.9900115 101.9459781
  74.1532112  17.4460375 102.2976372  70.9302890  11.5182674  98.0925665
  70.7327711  11.2097762  98.9768997  71.5402596  12.2444313  98.2223595
  78.9374225  22.0446622 101.2277606  79.6677613  21.7831910 101.7885310
  78.3281170  21.3075343 101.2679674  77.0189522  20.1854484 101.8252057
  76.2922685  20.0510449 101.2168549  76.6036809  20.4931313 102.6308775
  64.8419698  23.9044414 109.5899430  65.7622708  24.0823013 109.7839477
  64.8069281  22.9600459 109.4379130  63.1423923  17.7776644  88.0653659
  62.2355378  17.4809757  88.1416372  63.4199904  17.4806462  87.1987945
  54.0601863  19.0983007  98.5152705  53.7404647  18.2448316  98.2227079
  53.5135291  19.3131586  99.2710672  57.8381771  21.8145448 102.2322212
  58.0567780  22.7462556 102.2510245  58.2507544  21.4553423 103.0177015
  64.7585988  12.3213534  94.2197900  63.9486717  11.9760619  94.5953146
  65.4470405  12.0121078  94.8085512  66.6876537  11.3991581  95.8422197
  67.2407575  11.8187034  96.5012220  66.9246623  10.4727329  95.8845153
  61.9122707  14.6363579  88.2065638  62.7741871  14.9618478  88.4661455
  62.0973052  13.8495075  87.6938704  53.9290123  22.7185919 100.4845827
  53.2353595  22.3039872  99.9715781  54.6763114  22.7606455  99.8879246
  70.0655344  13.5092106  95.3500861  69.4854013  14.1676910  94.9678913
  69.7991277  12.6869450  94.9388278  68.5158910  12.9097163  97.5522181
  69.0158689  13.0213698  96.7436500  69.1594518  12.6058216  98.1922990
  62.5740906  20.8175793 110.4390022  62.0907988  21.6176153 110.6453911
  62.6601845  20.8283738 109.4857466  55.8426866  22.6504173  98.3611842
  55.8197554  22.7491860  97.4093725  56.1527502  23.4969324  98.6829008
  58.5014244  24.7080328 102.4758456  59.4557497  24.6764270 102.4088387
  58.3026767  24.2470952 103.2908682  59.0913626  23.2781444 105.0429254
  59.9106515  23.7725522 105.0664091  59.3650433  22.3613412 105.0146821
  68.8480222  15.6692196  94.4057209  67.9606077  15.9541847  94.1877404
  69.2634211  15.5085960  93.5584486  72.1994758  15.6938717  98.1211548
  72.9755148  16.1835170  98.3936165  71.4742892  16.1196771  98.5783418
  74.6367317  16.4066336  99.1785489  75.2311807  16.1662072  98.4678797
  74.7093900  15.6873467  99.8059025  56.8564472  30.2499947  99.4928654
  56.7218940  29.4900348  98.9266652  56.4396535  30.9740847  99.0257443
  67.9923435  25.4336871  88.5005229  68.6959285  25.6386873  89.1162885
  67.2686084  26.0013633  88.7654313  68.8221246  21.1846732  94.6207499
  68.7656447  21.6415283  93.7815132  69.3749588  20.4237417  94.4430342
  72.6326052  16.9736464  95.4457619  72.3762986  16.5733100  96.2765826
  72.0078920  17.6880258  95.3207758  76.9438389  19.7132537  97.9528910
  76.3837947  19.7825726  98.7260472  76.3381893  19.5373522  97.2328406
  60.0133598  31.1469264  99.7047096  59.8965982  32.0914697  99.6025787
  59.1926044  30.8442826 100.0932896  69.9010133  25.8719400  90.5503689
  70.7355737  25.4400598  90.3681164  69.7394476  25.7001414  91.4780584
  69.5556025  22.3751513  91.9160028  69.5004829  22.2095785  90.9748473
  68.9302080  23.0827546  92.0722218  66.8701932  24.6800425 111.2413591
  67.7393092  24.8541077 110.8800226  66.3908684  25.4994842 111.1189321
  62.8652150  11.8759622  91.4945347  62.8530820  12.8201462  91.6513618
  63.7575572  11.6929768  91.2004808  61.0388112  31.7997526 102.9203025
  61.9415359  31.8321136 103.2369520  60.8125482  30.8697977 102.9349361
  62.7941714  30.5528513  99.5813103  61.8437345  30.5530374  99.4677476
  63.0974200  29.8061247  99.0649138  66.6804270   8.4702399  95.7491284
  65.9136666   7.9160886  95.8947966  67.0914975   8.5424268  96.6105435
  78.5294408  36.3889051 100.6458866  79.1672818  36.2695798  99.9422206
  78.4115251  37.3369895 100.7046818  75.3384114  36.3416479 100.5820391
  75.0002626  36.2257544  99.6940925  76.2073882  35.9407644 100.5621397
  71.1970930  38.1951956  96.5717282  70.6335795  38.1041893  95.8033569
  71.0823325  37.3751860  97.0519774  75.8203897  37.4951331 106.5406596
  75.8092538  37.1004129 105.6687100  75.9824537  36.7617404 107.1340368
  68.7435362  39.6903147  99.4101502  69.5356654  39.3493972  98.9947801
  68.9832012  39.7998122 100.3303655  76.7770489  41.8622923  91.8831746
  76.1258468  42.4477004  91.4965760  77.5714851  42.3929118  91.9426784
  70.7026116  38.9512060  92.2818881  71.4756992  38.4041048  92.1431757
  71.0551515  39.8156310  92.4933342  72.5411158  40.2788443 105.4885780
  72.2501024  41.1834074 105.3732446  73.1768143  40.3204970 106.2029850
  73.4667365  37.6565291 102.0787140  74.0630937  37.4321314 101.3644103
  73.5242337  36.9150037 102.6812588  73.0392393  35.1104727  89.9137331
  73.2917914  34.5886248  89.1520794  72.1016953  34.9470872  90.0164014
  78.0835676  34.1140505  97.7212074  78.8698766  33.6959928  97.3702491
  78.3474381  35.0186597  97.8893722  78.2545754  39.5513355  92.4200731
  77.6191587  39.6247982  93.1321635  77.9243160  40.1406954  91.7419810
  83.4844103  34.0515738  98.6245052  84.2169275  33.4814955  98.8582882
  82.7283459  33.6637339  99.0651558  72.7588682  37.0132833  92.1161706
  72.6424940  36.3377736  92.7842790  72.8690942  36.5265206  91.2993859
  75.1020223  36.4742980  95.8208395  74.7378430  35.9473601  96.5321316
  75.9587339  36.0841449  95.6474880  81.0069524  27.7637312 103.0839661
  80.6752849  28.6332723 102.8600876  80.4115137  27.4473596 103.7633691
  74.7425710  31.5032879  90.8169743  74.9100112  32.3713116  91.1840214
  74.5522879  31.6660161  89.8931033  77.5001043  39.9649858 102.4835574
  77.2001766  40.8674897 102.3751381  77.1552103  39.6982041 103.3356727
  70.9513525  36.4163655  98.5172278  70.0264021  36.2839869  98.7249970
  71.1997938  37.1957874  99.0142221  80.8998187  32.4832398 100.1633011
  79.9915064  32.4147807  99.8691772  80.8485783  32.9604343 100.9914837
  74.7214931  33.9590537  91.8016410  74.6014556  34.4047588  92.6401891
  74.0267519  34.3075855  91.2429948  68.3122336  36.0596929  99.3516067
  68.4414717  36.3131408 100.2655479  67.6319787  36.6524637  99.0320722
  72.4821823  46.7294179  95.4506541  72.4045853  47.6802004  95.5295022
  71.8783467  46.3840051  96.1081468  74.9739053  33.9022044 108.1067908
  74.1972387  34.4615964 108.0970773  75.6129616  34.3878827 108.6282778
  82.7659834  30.6848837 101.9410885  82.1234214  30.9781370 101.2950680
  82.2614762  30.5701757 102.7464082  80.4199997  34.4312010  92.6296744
  81.3317853  34.6639397  92.4544442  79.9109644  35.0149054  92.0671823
  73.2285425  36.7107497 107.6685875  73.9700110  37.2492541 107.3920699
  72.5222411  37.3373786 107.8257427  78.7040765  38.8536638 106.2658037
  79.1124121  38.4119048 105.5212669  77.9818026  38.2789265 106.5192230
  75.0571835  33.7909245 103.6391594  75.9033030  34.2148658 103.7826243
  74.9970473  33.1342869 104.3330157  79.0269579  39.4137828 100.0210326
  78.3978442  39.5783543  99.3186394  78.6395242  39.8279438 100.7921290
  82.9058811  40.3492266  97.3754690  82.2209850  40.7291168  96.8251723
  82.9902661  40.9587593  98.1086637  78.2071280  31.4513613 105.2972767
  77.9632212  32.2055674 104.7607043  78.4831211  31.8298961 106.1320015
  80.1609743  37.9952225 103.9750033  80.3726638  38.6383985 103.2984414
  80.1139491  37.1614542 103.5071963  77.7635972  30.6070046 100.8786605
  76.9020451  30.9051300 101.1703343  77.7898407  30.8240445  99.9467638
  74.5797541  39.1512237  97.2860411  75.0435887  39.4299940  96.4965033
  74.3154339  38.2495681  97.1033502  71.4721622  38.6983718 100.2240174
  72.0422979  39.1270986  99.5857659  72.0629734  38.4166303 100.9224360
  73.5166427  35.2735389  94.0949976  74.2190471  35.7256433  94.5623902
  73.1847056  34.6319208  94.7229869  71.9646789  33.8647146 108.4701185
  71.3345450  34.5463426 108.7036582  71.8582877  33.7530227 107.5254324
  67.2591761  33.5318942  99.3967110  66.4690815  33.7876470  98.9207220
  67.7503009  34.3467279  99.5019150  81.2755571  40.8724181 102.1472390
  82.0973015  40.4704368 101.8655072  81.2717974  40.7692415 103.0988506
  69.2106507  33.8963521  96.3550586  68.4137670  34.0082215  96.8734082
  68.9832099  34.2350173  95.4891477  75.0412174  40.4208224 104.3033101
  75.1056607  40.8828631 105.1391273  74.3323098  39.7905589 104.4315411
  65.5429464  33.7849432 101.8282100  65.7937503  34.6696442 102.0939676
  66.0789013  33.6054034 101.0557192  89.3661564  37.2162929  98.4957362
  88.6125272  36.6470327  98.3401366  89.5009105  37.1825594  99.4427997
  74.7560192  42.0876332  94.1712081  74.6205867  42.9327867  94.5996929
  75.2970005  42.2895609  93.4078015  71.2427532  28.1667911 110.8326436
  70.8494477  27.6134110 111.5074081  72.0593672  28.4778490 111.2232954
  68.2089589  39.6051770  94.7440006  68.7214110  40.3995020  94.8945571
  68.8612302  38.9078060  94.6773608  70.0184474  42.7217526  96.8262759
  70.1951102  43.6435491  96.6383743  70.8141308  42.4075945  97.2557139
  74.1595493  29.5825791 108.4246693  74.9005206  30.1832944 108.3451155
  74.3913415  28.8403428 107.8664736  69.3036831  34.7682158 106.7024923
  69.1890346  33.8667415 107.0032022  68.4481348  35.0145855 106.3509739
  76.3828668  42.7099898 108.3012423  75.9392523  41.9236277 107.9833328
  77.0445882  42.8979049 107.6356314  71.1415790  44.2395700 102.8273102
  71.6923215  44.1112763 102.0550096  70.3027265  44.5390589 102.4767995
  78.4809906  42.9902698 106.3293825  78.4628382  43.8111579 105.8374094
  79.4029827  42.8656773 106.5543966  74.9382961  40.5046827 107.1717333
  75.4711297  39.7435116 106.9416641  74.4097042  40.2120479 107.9141487
  78.1052656  25.6106893 102.7010975  77.7616925  26.5008535 102.6250085
  78.4731618  25.4208551 101.8380560  66.1738506  37.9340424  95.5199577
  67.0113728  38.3437432  95.3033285  66.3516774  36.9939866  95.4899771
  78.0702938  35.6015505  91.2083410  77.5549562  36.3720109  91.4471797
  77.7980247  34.9280641  91.8316471  75.6550049  30.4465205  96.2668648
  74.7991646  30.0572056  96.0874287  76.0677001  30.5257166  95.4068434
  77.1849196  27.9811549 100.6660208  76.6813992  27.9441684  99.8528013
  77.4779803  28.8904291 100.7256865  73.4292082  28.0650278  99.6726390
  74.2945079  27.8693087  99.3132279  73.4969591  27.8360630 100.5995746
  83.0437212  38.3547859  93.1436583  82.2666655  38.0159019  92.6991745
  83.7228693  38.3600482  92.4691548  77.8589241  33.4742597  93.0343191
  77.5539377  33.7888746  93.8853334  78.8119684  33.5524017  93.0770524
  76.3035673  39.6332820  94.6836145  75.7757035  38.8985580  94.3709382
  75.8023176  40.4107496  94.4376113  81.2828519  37.8281840  99.8003191
  80.6252194  38.5181102  99.8883320  82.0868919  38.2178272 100.1437178
  71.0354401  30.2952486  97.0442756  71.6098153  30.0727668  96.3115949
  71.6225383  30.3641181  97.7971358  80.0933978  36.1826213  97.8507133
  80.6065860  36.8156205  98.3528843  80.7435202  35.5827409  97.4850493
  71.3623988  32.3256947  91.0638642  70.5261300  32.6631634  91.3847916
  71.2228758  32.1905927  90.1265779  73.3377069  27.1693735  95.7717826
  72.6841481  26.8542752  95.1474441  73.2957543  26.5469476  96.4977649
  74.4488274  37.4513030  87.6871118  73.5415335  37.2202284  87.8862267
  74.9459305  36.6550649  87.8745100  77.3556352  46.1610537  90.6067804
  76.6818051  46.4642234  91.2152762  77.7422174  46.9639618  90.2573261
  76.5714809  33.6575669 100.0965474  75.6537370  33.8790616  99.9387162
  76.9874953  33.7321979  99.2377181  77.3549857  35.0567084  95.2268154
  78.1021676  35.5688482  94.9175276  77.6241446  34.7351137  96.0872547
  75.6276507  37.5525625  92.2095108  74.7187726  37.2684658  92.3067578
  75.6571591  37.9724704  91.3498415  80.8595774  41.1632215  95.9786276
  80.4058101  40.3223124  96.0351466  80.2289741  41.7993613  96.3161056
  79.8028694  32.0924201  97.2086943  79.0651451  31.5801587  97.5397186
  80.0555467  31.6524582  96.3970220  79.3028714  43.0008711  96.9136094
  79.5951688  43.5613768  96.1948459  79.8127334  43.2937272  97.6689253
  79.9040321  24.8700453  97.8028712  80.2099198  24.0097816  97.5154627
  80.6292926  25.4618073  97.6027706  66.1964677  35.2731139  96.1910310
  65.9989077  34.6800500  95.4661377  65.6411341  34.9683349  96.9086249
  74.1761401  35.1654246  98.3104903  74.2310011  34.2128082  98.2347380
  73.3652603  35.3213685  98.7946202  75.3252595  39.0934369  89.5483187
  74.8872025  38.3770228  89.0888824  76.0663036  39.3210484  88.9868278
  72.1153761  33.7831305  96.0695282  71.3021626  34.0825476  96.4760474
  72.6112755  33.3886994  96.7869765  74.2662339  43.7789062  98.0029547
  74.2238518  44.0049909  97.0738079  75.1825038  43.5452437  98.1515348
  77.7127973  34.2473130 104.9010176  78.0677360  34.4744603 105.7604642
  78.3600104  34.5791507 104.2787431  83.4425710  37.3691566  95.6059505
  83.3043608  37.5593162  94.6780694  83.0861928  38.1310949  96.0627556
  71.6067836  31.3549661 101.6856517  72.2467215  31.2138420 100.9879481
  70.7745366  31.0684174 101.3095119  83.4695089  39.4368093 100.6170777
  83.9031596  39.3443382 101.4653831  84.1826670  39.4125593  99.9790793
  72.3828140  40.6552091  97.7991510  73.1768738  40.1602412  97.5974085
  71.6719832  40.1269955  97.4359215  77.2022984  43.0370187 102.1503877
  77.2560006  43.6061123 102.9181593  76.3337765  43.2072072 101.7857914
  68.6910903  34.7995173  93.8751262  67.7608491  34.7379629  94.0921225
  68.7868375  34.2771126  93.0787904  68.6096452  31.3249986  96.4629504
  68.8703269  32.2395319  96.3538665  69.4313624  30.8574429  96.6126117
  70.0821377  32.7387743 103.6328329  70.7544431  32.5305105 102.9840977
  69.2551164  32.5409829 103.1933561  84.3310639  39.4791793 103.1503662
  84.5246529  40.3837604 103.3962937  84.2311257  39.0199213 103.9842247
  75.9846949  29.3649684 105.6493989  75.3374864  30.0639634 105.5558466
  76.7547965  29.7985828 106.0170238  79.3925747  39.6298536 108.7244543
  79.2411254  39.4009088 107.8074626  79.3830427  40.5869138 108.7375888
  76.1611084  37.2030449 103.7090809  77.0903144  37.3541609 103.5359776
  75.7402114  37.2914470 102.8539456  74.9599416  41.2281113 101.4789347
  74.8210501  40.8599898 102.3515285  74.1714012  41.7428753 101.3073305
  75.5547568  46.3290210  92.8214883  75.7299323  45.8578253  93.6360506
  74.8680356  46.9555976  93.0496144  76.5104631  40.6062716  98.8678185
  76.1754463  40.5663486  99.7635834  76.0108576  39.9407432  98.3948595
  70.4848875  36.0130346 104.3930766  70.3468673  35.2810585 104.9942305
  71.3953798  35.9239246 104.1114953  79.4463822  37.9518750  89.1415244
  78.8292993  37.2265579  89.0448297  78.9780311  38.7128111  88.7982318
  73.1131175  35.7250305 103.8814445  73.8230794  35.0843498 103.8401064
  73.0700484  35.9763200 104.8040626  81.1017954  42.6617659 106.8021025
  81.0430500  41.9776879 106.1351608  81.5037472  43.4036649 106.3501651
  71.8260109  32.7115523 105.7010085  71.2897466  32.2606262 106.3531681
  71.2376818  32.8461432 104.9580549  70.1208653  49.4779573  99.5954743
  70.3605251  50.1098097 100.2733762  69.2777849  49.1267613  99.8820103
  71.2362368  32.1704175  88.2636548  70.3591835  32.0492975  87.8998795
  71.7120121  31.3790253  88.0115437  81.1035361  40.6257243 105.0335004
  80.2162140  40.2883164 105.1561403  81.6733912  39.8940274 105.2703770
  62.7564508  36.9581334  98.3578056  63.4435548  36.6443064  97.7699071
  62.6012637  37.8622699  98.0845307  67.5599231  31.8471531 102.7863079
  67.4757419  31.2397201 102.0513489  66.7381937  32.3380549 102.7872576
  74.6336515  45.2858695 101.9996247  74.5606686  46.0913667 102.5115552
  74.1913908  45.4850661 101.1744269  74.4226294  44.5230465  95.5099069
  73.6393816  45.0652145  95.6037294  75.1219039  45.0404445  95.9093310
  77.7322944  30.3325095  98.1533274  78.2291644  29.5795057  97.8334345
  76.9609926  30.3689411  97.5876484  85.5852702  36.0365460  99.7951566
  85.5742578  36.9190175  99.4245499  84.7170081  35.6837011  99.6006103
  77.0935198  45.1845529 104.1554406  77.8063170  45.8192994 104.0830308
  76.6025227  45.2809395 103.3394408  78.8152725  39.0896782  95.7271698
  77.8809004  39.2098244  95.5576402  78.9929394  38.1869249  95.4631708
  74.3157913  32.4742478  97.8804959  73.9455701  31.9213518  98.5685865
  74.8117006  31.8700611  97.3279959  82.2025276  34.9314101  96.2621732
  82.6685729  35.7642093  96.1882035  82.6532777  34.4659083  96.9666990
  72.1447112  42.9339973 104.9759977  72.8456571  43.5676456 105.1289371
  71.6742227  43.2754704 104.2155616  80.2701508  41.2757922  93.2607884
  80.5461351  41.1614517  94.1701758  79.4006006  40.8775407  93.2220057
  80.1741939  27.2994688 100.3012633  79.2605019  27.5298915 100.4694840
  80.6035041  27.3833132 101.1526666  79.9448398  35.4884580 102.8012527
  79.2919848  35.7360487 102.1464980  80.3228778  34.6748718 102.4675005
  76.9055572  45.5244273  96.9040698  77.0877966  44.7065929  97.3668450
  77.7288558  45.7411965  96.4665588  77.2397737  44.4512458  94.1655746
  77.7685504  43.9404913  93.5525908  77.5025957  44.1354989  95.0301279
  75.9935971  36.2304391 109.2878564  75.3176608  36.1298520 109.9580940
  76.8163605  36.0743605 109.7514562  67.7414830  42.4676328 101.9091080
  68.3268267  41.7220015 102.0418984  67.5439668  42.7780284 102.7927744
  70.5953485  45.5027575  96.9253522  69.9263860  45.9873703  96.4417562
  70.4566355  45.7496795  97.8396901  62.3332485  35.0381928 100.6295523
  62.3716584  34.5045518 101.4232641  61.8272777  34.5117133 100.0106500
  74.7358754  47.5371319 103.5236180  75.2877062  47.7002940 104.2885266
  75.0764947  48.1275756 102.8516205  69.7123247  29.8846468 104.1258065
  69.7764573  30.7461299 103.7135463  69.6490367  29.2720470 103.3930424
  69.1875519  31.9569601 107.7731099  69.8147558  31.5746678 108.3868624
  68.3303438  31.7383803 108.1386792  79.5869628  42.3632576 109.3784835
  80.1309532  42.9762534 108.8839790  79.0056473  42.9212154 109.8951848
  65.9641062  33.7646030  93.7049454  66.2594503  32.8556708  93.6516508
  65.0629098  33.7433769  93.3830457  77.8727141  45.4853294 100.5099863
  77.7478280  44.6843034 100.0010808  78.5306232  45.9799487 100.0213833
  69.4935309  31.8402027  99.6877003  68.7721895  32.4537994  99.5484476
  70.2828565  32.3759791  99.6093649  79.9362049  43.2862314 102.1379413
  78.9892385  43.1667665 102.0657739  80.2844822  42.3984812 102.2205674
  72.2961623  29.1756453 105.9617655  72.8196024  29.4218750 106.7243964
  72.0773956  30.0076488 105.5420792  67.6928904  31.4460128  93.8288779
  67.3641610  30.5657507  93.6463885  68.0468274  31.3907796  94.7165169
  76.9408483  43.0815030  98.3383765  76.7933445  42.1531738  98.5191335
  77.7661976  43.1035121  97.8540840  70.8070727  31.7333097  94.1964257
  71.1466799  32.2619019  93.4742865  71.2542847  32.0713504  94.9722824
  80.5442604  43.9043589  99.4248638  81.4689152  43.6986450  99.2873089
  80.3757908  43.6559990 100.3337979  73.5014168  30.1170148 103.6467325
  73.1610988  29.3177961 104.0488005  72.7953174  30.4171859 103.0744158
  74.1530640  27.2019461 102.0994648  74.9756709  26.7279939 101.9773538
  74.3968703  27.9809944 102.5993334  72.7938874  30.2307719  92.3957550
  73.5147237  30.6088972  91.8921267  72.1704178  30.9496596  92.4992528
  76.9369997  30.9352868  93.3315882  77.1533611  31.8177506  93.0304710
  76.4564064  30.5439081  92.6021524  71.6769218  33.8938581  99.9086627
  71.5313799  34.2078884 100.8010908  71.1994422  34.5123482  99.3557525
  73.5365601  30.8841129  99.9567516  73.5227170  29.9882222  99.6199814
  74.2538029  30.8911793 100.5905802  75.3891732  31.3178469 102.0020644
  75.1309510  32.2395540 102.0004974  74.8576772  30.9208904 102.6921108
  80.3337921  44.4229257  94.7810729  80.5074798  43.8575679  94.0284582
  80.8266812  45.2230151  94.5990219  66.1514880  36.4343926 102.8474288
  65.6068349  37.2103734 102.9794562  67.0294230  36.7814730 102.6893409
  72.9402497  29.7655509  95.2255086  73.0618408  28.8372156  95.4245974
  72.6504539  29.7794195  94.3133402  75.8093687  27.4510420  98.3621806
  75.8315384  27.5149753  97.4073786  76.2261746  26.6114929  98.5562312
  86.1877312  37.1865679  96.4001029  86.6308458  36.4373005  96.0020152
  85.3103822  37.1775816  96.0174761  81.3213093  43.7396021  91.8807627
  82.0163998  44.3602714  92.0994942  81.6636243  42.8891372  92.1560005
  66.9380902  35.5613822 105.7404445  66.1962638  35.7096457 106.3269075
  66.6173647  35.8222087 104.8771194  83.2204516  41.1895726  93.4094958
  83.7455840  41.5282999  92.6844278  83.1326869  40.2542742  93.2258093
  74.8824565  45.1029800 105.5384835  75.1911691  44.8578947 106.4107534
  75.6800047  45.3076439 105.0503705  74.9045177  47.2567710  97.7690211
  74.4650167  46.7644088  98.4623068  75.6553294  46.7140677  97.5282287
  67.3837516  43.4479251  97.7714839  68.2095536  43.1483022  97.3913483
  67.0331568  42.6786873  98.2204628  72.3519049  42.8005719  99.8412513
  71.7299058  42.1376424  99.5414741  73.0223916  42.8266851  99.1586161
  65.5846121  41.3665577  98.7303773  64.7478029  40.9387751  98.5487774
  65.5569766  41.5598020  99.6674564  72.4243577  31.2787507 109.4345019
  72.4731732  32.1549630 109.0522789  72.9666091  30.7364900 108.8616662
  82.9098422  41.8228630 108.7146156  82.1193966  41.8052769 108.1750655
  82.6731777  42.3616924 109.4695193  83.0296297  38.6721096 106.0278885
  83.0794302  38.5071104 106.9694407  82.9210221  37.8048355 105.6376765
  71.9132556  41.3509642  93.3170974  72.0620676  42.0345107  92.6637646
  72.7199000  41.3314732  93.8320429  80.3200060  34.6552024 107.3438191
  81.2209922  34.5158489 107.0522189  80.3948034  34.8206479 108.2836369
  74.6542865  32.0318879 106.1891378  73.7846174  32.3252445 105.9173966
  74.8902345  32.6159324 106.9098641  84.5314494  41.0918038 106.2720906
  84.2399302  41.4548019 107.1084367  83.9186625  40.3785046 106.0934238
  85.7310176  38.6570918  98.7923476  86.5657068  39.0960722  98.9561037
  85.8669305  38.1809571  97.9731722  82.7801682  36.2150653 104.7400964
  83.2555804  36.4078299 103.9319816  81.8567248  36.2709838 104.4944348
  69.6685189  37.3774820  94.3232042  69.4231231  36.4737150  94.5212253
  69.8381104  37.3791970  93.3811520  77.3581899  28.2498496 103.7056798
  77.8763843  28.9859523 103.3803287  77.0037032  28.5562489 104.5403557
  68.9380837  33.1103177  91.8218204  68.2450082  33.1847532  91.1658240
  68.6932588  32.3463521  92.3439721  77.6094493  24.6698779  99.2257695
  77.8896247  24.0021968  99.8518121  78.3945100  24.8627874  98.7132358
  75.4127962  43.8457773  90.7882721  74.8401929  44.4647960  90.3353193
  75.9860755  44.3957134  91.3222643  81.4803351  33.0916413 102.9729270
  82.4320774  33.1914510 102.9941494  81.3106802  32.2994681 103.4827354
  79.5017731  30.1771996 103.1588671  78.9067663  30.4577009 102.4635159
  79.2167428  30.6665897 103.9305412  78.6325221  44.1294923  91.9191303
  79.5655895  44.0640484  92.1224179  78.5448434  44.9651190  91.4605836
  81.2613238  43.4460793  88.8795251  81.1826870  43.1120657  89.7731009
  82.0822905  43.9382561  88.8786723  83.9591429  36.3122532 102.0871569
  83.9267749  35.3738533 102.2731253  84.5692053  36.3906569 101.3537394
  75.7974760  35.1818585  88.1298773  76.7433865  35.0524793  88.1987191
  75.4189005  34.4433247  88.6068202  84.1085918  33.1033576 102.1329853
  83.5924966  32.3192032 101.9459781  84.9925866  32.7752292 102.2976372
  81.7696645  26.8474591  98.0925665  81.5721466  26.5389680  98.9768997
  82.3796350  27.5736230  98.2223595  89.7767979  37.3738539 101.2277606
  90.5071368  37.1123827 101.7885310  89.1674925  36.6367261 101.2679674
  87.8583276  35.5146402 101.8252057  87.1316440  35.3802367 101.2168549
  87.4430563  35.8223230 102.6308775  75.6813453  39.2336331 109.5899430
  76.6016462  39.4114930 109.7839477  75.6463036  38.2892377 109.4379130
  73.9817677  33.1068562  88.0653659  73.0749133  32.8101674  88.1416372
  74.2593658  32.8098380  87.1987945  64.8995618  34.4274925  98.5152705
  64.5798402  33.5740233  98.2227079  64.3529046  34.6423503  99.2710672
  68.6775525  37.1437366 102.2322212  68.8961535  38.0754474 102.2510245
  69.0901299  36.7845341 103.0177015  75.5979743  27.6505451  94.2197900
  74.7880471  27.3052536  94.5953146  76.2864160  27.3412995  94.8085512
  77.5270291  26.7283498  95.8422197  78.0801330  27.1478952  96.5012220
  77.7640378  25.8019246  95.8845153  73.5503390  32.7170572 111.6224960
  73.4500117  33.6664929 111.5537052  73.3324933  32.3888811 110.7501031
  72.7516462  29.9655497  88.2065638  73.6135626  30.2910395  88.4661455
  72.9366806  29.1786993  87.6938704  64.7683878  38.0477837 100.4845827
  64.0747349  37.6331789  99.9715781  65.5156869  38.0898373  99.8879246
  80.9049098  28.8384023  95.3500861  80.3247767  29.4968827  94.9678913
  80.6385031  28.0161368  94.9388278  79.3552665  28.2389081  97.5522181
  79.8552443  28.3505616  96.7436500  79.9988273  27.9350134  98.1922990
  73.4134661  36.1467711 110.4390022  72.9301742  36.9468071 110.6453911
  73.4995600  36.1575656 109.4857466  66.6820620  37.9796090  98.3611842
  66.6591308  38.0783778  97.4093725  66.9921257  38.8261241  98.6829008
  69.3407998  40.0372245 102.4758456  70.2951252  40.0056188 102.4088387
  69.1420522  39.5762869 103.2908682  69.9307380  38.6073361 105.0429254
  70.7500269  39.1017440 105.0664091  70.2044188  37.6905330 105.0146821
  79.6873976  30.9984114  94.4057209  78.7999831  31.2833764  94.1877404
  80.1027965  30.8377877  93.5584486  83.0388512  31.0230635  98.1211548
  83.8148903  31.5127087  98.3936165  82.3136647  31.4488689  98.5783418
  85.4761071  31.7358254  99.1785489  86.0705562  31.4953990  98.4678797
  85.5487655  31.0165385  99.8059025  67.6958227  45.5791865  99.4928654
  67.5612695  44.8192266  98.9266652  67.2790289  46.3032765  99.0257443
  78.8317190  40.7628788  88.5005229  79.5353040  40.9678791  89.1162885
  78.1079839  41.3305550  88.7654313  79.6615000  36.5138650  94.6207499
  79.6050201  36.9707201  93.7815132  80.2143343  35.7529334  94.4430342
  83.4719806  32.3028382  95.4457619  83.2156740  31.9025017  96.2765826
  82.8472674  33.0172176  95.3207758  87.7832144  35.0424455  97.9528910
  87.2231702  35.1117644  98.7260472  87.1775647  34.8665439  97.2328406
  70.8527353  46.4761182  99.7047096  70.7359737  47.4206614  99.6025787
  70.0319799  46.1734744 100.0932896  80.7403887  41.2011318  90.5503689
  81.5749491  40.7692516  90.3681164  80.5788230  41.0293331  91.4780584
  80.3949779  37.7043431  91.9160028  80.3398583  37.5387702  90.9748473
  79.7695835  38.4119464  92.0722218  65.1842294  32.9411495 105.7421451
  65.8301158  32.4310449 106.2308676  64.9759445  33.6780177 106.3164876
  77.7095687  40.0092343 111.2413591  78.5786846  40.1832995 110.8800226
  77.2302438  40.8286760 111.1189321  73.7045905  27.2051540  91.4945347
  73.6924575  28.1493380  91.6513618  74.5969327  27.0221685  91.2004808
  71.8781867  47.1289444 102.9203025  72.7809114  47.1613054 103.2369520
  71.6519237  46.1989895 102.9349361  73.6335469  45.8820430  99.5813103
  72.6831100  45.8822292  99.4677476  73.9367955  45.1353165  99.0649138
  77.5198024  23.7994317  95.7491284  76.7530420  23.2452803  95.8947966
  77.9308729  23.8716185  96.6105435  69.5239785  30.0879112 109.8396465
  70.3871247  29.7315917 110.0499789  68.9505196  29.7493007 110.5271869
  89.3688162  51.7180969 100.6458866  90.0066572  51.5987716  99.9422206
  89.2509005  52.6661813 100.7046818  86.1777869  51.6708397 100.5820391
  85.8396380  51.5549462  99.6940925  87.0467637  51.2699562 100.5621397
  82.0364684  53.5243873  96.5717282  81.4729549  53.4333810  95.8033569
  81.9217079  52.7043778  97.0519774  86.6597652  52.8243249 106.5406596
  86.6486292  52.4296047 105.6687100  86.8218291  52.0909321 107.1340368
  79.5829116  55.0195065  99.4101502  80.3750408  54.6785890  98.9947801
  79.8225766  55.1290040 100.3303655  87.6164243  57.1914841  91.8831746
  86.9652223  57.7768921  91.4965760  88.4108606  57.7221036  91.9426784
  81.5419870  54.2803978  92.2818881  82.3150746  53.7332965  92.1431757
  81.8945269  55.1448227  92.4933342  83.3804913  55.6080360 105.4885780
  83.0894779  56.5125991 105.3732446  84.0161897  55.6496888 106.2029850
  84.3061120  52.9857209 102.0787140  84.9024692  52.7613231 101.3644103
  84.3636091  52.2441954 102.6812588  83.8786148  50.4396644  89.9137331
  84.1311669  49.9178166  89.1520794  82.9410707  50.2762790  90.0164014
  88.9229431  49.4432423  97.7212074  89.7092520  49.0251846  97.3702491
  89.1868135  50.3478515  97.8893722  89.0939508  54.8805273  92.4200731
  88.4585341  54.9539899  93.1321635  88.7636915  55.4698872  91.7419810
  94.3237858  49.3807656  98.6245052  95.0563030  48.8106873  98.8582882
  93.5677214  48.9929256  99.0651558  83.5982437  52.3424750  92.1161706
  83.4818695  51.6669654  92.7842790  83.7084697  51.8557124  91.2993859
  85.9413978  51.8034897  95.8208395  85.5772185  51.2765518  96.5321316
  86.7981094  51.4133366  95.6474880  91.8463278  43.0929230 103.0839661
  91.5146603  43.9624641 102.8600876  91.2508892  42.7765514 103.7633691
  85.5819465  46.8324797  90.8169743  85.7493867  47.7005033  91.1840214
  85.3916634  46.9952079  89.8931033  88.3394798  55.2941776 102.4835574
  88.0395521  56.1966815 102.3751381  87.9945857  55.0273959 103.3356727
  81.7907279  51.7455573  98.5172278  80.8657776  51.6131787  98.7249970
  82.0391692  52.5249792  99.0142221  91.7391942  47.8124316 100.1633011
  90.8308819  47.7439725  99.8691772  91.6879537  48.2896261 100.9914837
  85.5608686  49.2882455  91.8016410  85.4408311  49.7339505  92.6401891
  84.8661274  49.6367772  91.2429948  79.1516090  51.3888846  99.3516067
  79.2808471  51.6423325 100.2655479  78.4713542  51.9816554  99.0320722
  83.3215578  62.0586096  95.4506541  83.2439607  63.0093921  95.5295022
  82.7177221  61.7131969  96.1081468  85.8132807  49.2313962 108.1067908
  85.0366141  49.7907882 108.0970773  86.4523370  49.7170745 108.6282778
  93.6053588  46.0140755 101.9410885  92.9627968  46.3073288 101.2950680
  93.1008517  45.8993675 102.7464082  91.2593752  49.7603928  92.6296744
  92.1711608  49.9931314  92.4544442  90.7503399  50.3440972  92.0671823
  84.0679180  52.0399415 107.6685875  84.8093864  52.5784459 107.3920699
  83.3616165  52.6665704 107.8257427  89.5434519  54.1828556 106.2658037
  89.9517875  53.7410966 105.5212669  88.8211781  53.6081183 106.5192230
  85.8965589  49.1201162 103.6391594  86.7426785  49.5440576 103.7826243
  85.8364227  48.4634787 104.3330157  89.8663334  54.7429746 100.0210326
  89.2372196  54.9075460  99.3186394  89.4788996  55.1571356 100.7921290
  89.0465035  46.7805531 105.2972767  88.8025967  47.5347591 104.7607043
  89.3224965  47.1590878 106.1320015  91.0003497  53.3244143 103.9750033
  91.2120393  53.9675903 103.2984414  90.9533246  52.4906460 103.5071963
  88.6029726  45.9361964 100.8786605  87.7414205  46.2343217 101.1703343
  88.6292161  46.1532363  99.9467638  85.4191296  54.4804154  97.2860411
  85.8829641  54.7591857  96.4965033  85.1548094  53.5787599  97.1033502
  82.3115377  54.0275636 100.2240174  82.8816734  54.4562904  99.5857659
  82.9023489  53.7458220 100.9224360  84.3560182  50.6027307  94.0949976
  85.0584225  51.0548350  94.5623902  84.0240810  49.9611125  94.7229869
  82.8040543  49.1939063 108.4701185  82.1739204  49.8755344 108.7036582
  82.6976631  49.0822145 107.5254324  78.0985516  48.8610859  99.3967110
  77.3084570  49.1168388  98.9207220  78.5896763  49.6759197  99.5019150
  92.1149325  56.2016098 102.1472390  92.9366769  55.7996286 101.8655072
  92.1111728  56.0984333 103.0988506  80.0500261  49.2255439  96.3550586
  79.2531425  49.3374133  96.8734082  79.8225853  49.5642091  95.4891477
  85.8805929  55.7500142 104.3033101  85.9450361  56.2120549 105.1391273
  85.1716853  55.1197507 104.4315411  76.3823219  49.1141350 101.8282100
  76.6331257  49.9988360 102.0939676  76.9182767  48.9345951 101.0557192
 100.2055318  52.5454847  98.4957362  99.4519027  51.9762245  98.3401366
 100.3402860  52.5117511  99.4427997  85.5953947  57.4168249  94.1712081
  85.4599621  58.2619785  94.5996929  86.1363759  57.6187527  93.4078015
  82.0821286  43.4959829 110.8326436  81.6888232  42.9426028 111.5074081
  82.8987426  43.8070408 111.2232954  79.0483344  54.9343687  94.7440006
  79.5607864  55.7286938  94.8945571  79.7006057  54.2369978  94.6773608
  80.8578229  58.0509444  96.8262759  81.0344857  58.9727408  96.6383743
  81.6535062  57.7367863  97.2557139  84.9989247  44.9117708 108.4246693
  85.7398961  45.5124861 108.3451155  85.2307170  44.1695346 107.8664736
  80.1430585  50.0974075 106.7024923  80.0284100  49.1959333 107.0032022
  79.2875103  50.3437772 106.3509739  87.2222423  58.0391816 108.3012423
  86.7786277  57.2528194 107.9833328  87.8839636  58.2270966 107.6356314
  81.9809544  59.5687617 102.8273102  82.5316969  59.4404681 102.0550096
  81.1421020  59.8682506 102.4767995  89.3203661  58.3194616 106.3293825
  89.3022136  59.1403497 105.8374094  90.2423581  58.1948691 106.5543966
  85.7776715  55.8338745 107.1717333  86.3105052  55.0727033 106.9416641
  85.2490796  55.5412397 107.9141487  88.9446410  40.9398811 102.7010975
  88.6010679  41.8300453 102.6250085  89.3125373  40.7500469 101.8380560
  77.0132261  53.2632342  95.5199577  77.8507483  53.6729350  95.3033285
  77.1910528  52.3231784  95.4899771  88.9096693  50.9307422  91.2083410
  88.3943316  51.7012027  91.4471797  88.6374001  50.2572558  91.8316471
  86.4943804  45.7757123  96.2668648  85.6385400  45.3863973  96.0874287
  86.9070756  45.8549084  95.4068434  88.0242950  43.3103466 100.6660208
  87.5207746  43.2733601  99.8528013  88.3173557  44.2196209 100.7256865
  84.2685836  43.3942196  99.6726390  85.1338833  43.1985005  99.3132279
  84.3363345  43.1652548 100.5995746  88.6982996  48.8034514  93.0343191
  88.3933132  49.1180664  93.8853334  89.6513438  48.8815934  93.0770524
  87.1429428  54.9624738  94.6836145  86.6150789  54.2277497  94.3709382
  86.6416931  55.7399414  94.4376113  92.1222274  53.1573758  99.8003191
  91.4645948  53.8473020  99.8883320  92.9262673  53.5470190 100.1437178
  81.8748155  45.6244404  97.0442756  82.4491907  45.4019585  96.3115949
  82.4619138  45.6933098  97.7971358  90.9327733  51.5118131  97.8507133
  91.4459614  52.1448123  98.3528843  91.5828957  50.9119326  97.4850493
  82.2017743  47.6548865  91.0638642  81.3655055  47.9923551  91.3847916
  82.0622512  47.5197845  90.1265779  84.1770823  42.4985653  95.7717826
  83.5235235  42.1834670  95.1474441  84.1351297  41.8761393  96.4977649
  85.2882028  52.7804948  87.6871118  84.3809090  52.5494201  87.8862267
  85.7853060  51.9842567  87.8745100  87.4108564  48.9867586 100.0965474
  86.4931125  49.2082533  99.9387162  87.8268707  49.0613897  99.2377181
  88.1943611  50.3859002  95.2268154  88.9415430  50.8980399  94.9175276
  88.4635201  50.0643055  96.0872547  86.4670261  52.8817543  92.2095108
  85.5581481  52.5976576  92.3067578  86.4965345  53.3016621  91.3498415
  90.6422448  47.4216118  97.2086943  89.9045205  46.9093505  97.5397186
  90.8949222  46.9816500  96.3970220  90.7434076  40.1992370  97.8028712
  91.0492953  39.3389734  97.5154627  91.4686681  40.7909991  97.6027706
  77.0358432  50.6023057  96.1910310  76.8382832  50.0092418  95.4661377
  76.4805096  50.2975267  96.9086249  85.0155155  50.4946163  98.3104903
  85.0703765  49.5420000  98.2347380  84.2046358  50.6505602  98.7946202
  86.1646349  54.4226286  89.5483187  85.7265779  53.7062145  89.0888824
  86.9056790  54.6502401  88.9868278  82.9547515  49.1123223  96.0695282
  82.1415381  49.4117394  96.4760474  83.4506510  48.7178912  96.7869765
  85.1056093  59.1080980  98.0029547  85.0632272  59.3341826  97.0738079
  86.0218792  58.8744355  98.1515348  88.5521727  49.5765048 104.9010176
  88.9071115  49.8036521 105.7604642  89.1993858  49.9083424 104.2787431
  94.2819464  52.6983483  95.6059505  94.1437363  52.8885079  94.6780694
  93.9255683  53.4602866  96.0627556  82.4461590  46.6841579 101.6856517
  83.0860969  46.5430338 100.9879481  81.6139121  46.3976092 101.3095119
  94.3088844  54.7660010 100.6170777  94.7425350  54.6735300 101.4653831
  95.0220424  54.7417511  99.9790793  83.2221894  55.9844009  97.7991510
  84.0162493  55.4894329  97.5974085  82.5113586  55.4561872  97.4359215
  88.0416739  58.3662105 102.1503877  88.0953761  58.9353041 102.9181593
  87.1731520  58.5363990 101.7857914  79.5304658  50.1287091  93.8751262
  78.6002246  50.0671546  94.0921225  79.6262130  49.6063044  93.0787904
  79.4490207  46.6541904  96.4629504  79.7097024  47.5687237  96.3538665
  80.2707379  46.1866346  96.6126117  80.9215132  48.0679661 103.6328329
  81.5938185  47.8597023 102.9840977  80.0944918  47.8701747 103.1933561
  95.1704393  54.8083711 103.1503662  95.3640283  55.7129522 103.3962937
  95.0705011  54.3491130 103.9842247  86.8240704  44.6941602 105.6493989
  86.1768619  45.3931551 105.5558466  87.5941719  45.1277746 106.0170238
  90.2319502  54.9590454 108.7244543  90.0805008  54.7301006 107.8074626
  90.2224181  55.9161055 108.7375888  87.0004838  52.5322367 103.7090809
  87.9296898  52.6833526 103.5359776  86.5795868  52.6206387 102.8539456
  85.7993170  56.5573031 101.4789347  85.6604256  56.1891815 102.3515285
  85.0107766  57.0720670 101.3073305  86.3941322  61.6582128  92.8214883
  86.5693078  61.1870171  93.6360506  85.7074110  62.2847894  93.0496144
  87.3498385  55.9354634  98.8678185  87.0148218  55.8955404  99.7635834
  86.8502331  55.2699350  98.3948595  81.3242629  51.3422264 104.3930766
  81.1862427  50.6102503 104.9942305  82.2347553  51.2531164 104.1114953
  90.2857577  53.2810668  89.1415244  89.6686747  52.5557496  89.0448297
  89.8174065  54.0420028  88.7982318  83.9524930  51.0542223 103.8814445
  84.6624548  50.4135415 103.8401064  83.9094238  51.3055118 104.8040626
  91.9411709  57.9909576 106.8021025  91.8824255  57.3068797 106.1351608
  92.3431227  58.7328566 106.3501651  82.6653864  48.0407441 105.7010085
  82.1291221  47.5898179 106.3531681  82.0770572  48.1753350 104.9580549
  80.9602407  64.8071490  99.5954743  81.1999006  65.4390014 100.2733762
  80.1171604  64.4559530  99.8820103  82.0756123  47.4996092  88.2636548
  81.1985589  47.3784893  87.8998795  82.5513876  46.7082171  88.0115437
  91.9429116  55.9549160 105.0335004  91.0555895  55.6175082 105.1561403
  92.5127667  55.2232192 105.2703770  73.5958263  52.2873252  98.3578056
  74.2829303  51.9734982  97.7699071  73.4406392  53.1914617  98.0845307
  78.3992985  47.1763449 102.7863079  78.3151174  46.5689118 102.0513489
  77.5775691  47.6672467 102.7872576  85.4730269  60.6150613 101.9996247
  85.4000441  61.4205584 102.5115552  85.0307662  60.8142579 101.1744269
  85.2620049  59.8522383  95.5099069  84.4787571  60.3944063  95.6037294
  85.9612794  60.3696362  95.9093310  88.5716699  45.6617012  98.1533274
  89.0685398  44.9086975  97.8334345  87.8003680  45.6981329  97.5876484
  96.4246456  51.3657378  99.7951566  96.4136333  52.2482093  99.4245499
  95.5563836  51.0128929  99.6006103  87.9328953  60.5137447 104.1554406
  88.6456925  61.1484912 104.0830308  87.4418981  60.6101313 103.3394408
  89.6546480  54.4188699  95.7271698  88.7202758  54.5390162  95.5576402
  89.8323148  53.5161166  95.4631708  85.1551668  47.8034395  97.8804959
  84.7849455  47.2505436  98.5685865  85.6510760  47.1992529  97.3279959
  93.0419031  50.2606019  96.2621732  93.5079483  51.0934010  96.1882035
  93.4926531  49.7951000  96.9666990  82.9840866  58.2631890 104.9759977
  83.6850326  58.8968373 105.1289371  82.5135981  58.6046622 104.2155616
  91.0135694  42.6286606 100.3012633  90.0998774  42.8590833 100.4694840
  91.4428795  42.7125050 101.1526666  90.7842152  50.8176498 102.8012527
  90.1313602  51.0652405 102.1464980  91.1622532  50.0040636 102.4675005
  87.7449326  60.8536191  96.9040698  87.9271721  60.0357847  97.3668450
  88.5682312  61.0703883  96.4665588  88.0791492  59.7804376  94.1655746
  88.6079258  59.2696831  93.5525908  88.3419711  59.4646906  95.0301279
  86.8329725  51.5596309 109.2878564  86.1570362  51.4590438 109.9580940
  87.6557359  51.4035522 109.7514562  78.5808584  57.7968245 101.9091080
  79.1662021  57.0511933 102.0418984  78.3833423  58.1072202 102.7927744
  81.4347240  60.8319493  96.9253522  80.7657615  61.3165620  96.4417562
  81.2960109  61.0788713  97.8396901  73.1726239  50.3673845 100.6295523
  73.2110339  49.8337436 101.4232641  72.6666532  49.8409051 100.0106500
  85.5752508  62.8663236 103.5236180  86.1270816  63.0294858 104.2885266
  85.9158702  63.4567674 102.8516205  80.5517001  45.2138386 104.1258065
  80.6158328  46.0753217 103.7135463  80.4884122  44.6012388 103.3930424
  80.0269274  47.2861519 107.7731099  80.6541313  46.9038596 108.3868624
  79.1697193  47.0675720 108.1386792  90.4263382  57.6924494 109.3784835
  90.9703286  58.3054452 108.8839790  89.8450227  58.2504072 109.8951848
  76.8034817  49.0937948  93.7049454  77.0988258  48.1848626  93.6516508
  75.9022852  49.0725687  93.3830457  88.7120895  60.8145212 100.5099863
  88.5872035  60.0134952 100.0010808  89.3699986  61.3091405 100.0213833
  80.3329064  47.1693944  99.6877003  79.6115649  47.7829912  99.5484476
  81.1222319  47.7051709  99.6093649  90.7755804  58.6154232 102.1379413
  89.8286139  58.4959583 102.0657739  91.1238577  57.7276730 102.2205674
  83.1355377  44.5048371 105.9617655  83.6589779  44.7510667 106.7243964
  82.9167710  45.3368406 105.5420792  78.5322658  46.7752045  93.8288779
  78.2035364  45.8949424  93.6463885  78.8862029  46.7199714  94.7165169
  87.7802237  58.4106948  98.3383765  87.6327199  57.4823655  98.5191335
  88.6055731  58.4327039  97.8540840  81.6464481  47.0625015  94.1964257
  81.9860554  47.5910936  93.4742865  82.0936602  47.4005421  94.9722824
  91.3836359  59.2335507  99.4248638  92.3082906  59.0278368  99.2873089
  91.2151662  58.9851908 100.3337979  84.3407922  45.4462066 103.6467325
  84.0004743  44.6469879 104.0488005  83.6346928  45.7463777 103.0744158
  84.9924394  42.5311378 102.0994648  85.8150463  42.0571856 101.9773538
  85.2362458  43.3101862 102.5993334  83.6332628  45.5599637  92.3957550
  84.3540991  45.9380889  91.8921267  83.0097933  46.2788513  92.4992528
  87.7763751  46.2644786  93.3315882  87.9927366  47.1469424  93.0304710
  87.2957819  45.8730999  92.6021524  82.5162973  49.2230499  99.9086627
  82.3707553  49.5370802 100.8010908  82.0388176  49.8415399  99.3557525
  84.3759356  46.2133047  99.9567516  84.3620924  45.3174140  99.6199814
  85.0931784  46.2203711 100.5905802  86.2285486  46.6470387 102.0020644
  85.9703264  47.5687458 102.0004974  85.6970527  46.2500822 102.6921108
  76.9908635  51.7635843 102.8474288  76.4462103  52.5395651 102.9794562
  77.8687985  52.1106648 102.6893409  83.7796252  45.0947427  95.2255086
  83.9012163  44.1664073  95.4245974  83.4898294  45.1086113  94.3133402
  86.6487442  42.7802338  98.3621806  86.6709139  42.8441671  97.4073786
  87.0655501  41.9406846  98.5562312  97.0271066  52.5157597  96.4001029
  97.4702212  51.7664922  96.0020152  96.1497577  52.5067733  96.0174761
  77.7774657  50.8905740 105.7404445  77.0356393  51.0388375 106.3269075
  77.4567401  51.1514005 104.8771194  85.7218319  60.4321718 105.5384835
  86.0305446  60.1870865 106.4107534  86.5193801  60.6368356 105.0503705
  85.7438931  62.5859627  97.7690211  85.3043922  62.0936006  98.4623068
  86.4947048  62.0432595  97.5282287  78.2231270  58.7771168  97.7714839
  79.0489290  58.4774940  97.3913483  77.8725322  58.0078791  98.2204628
  83.1912804  58.1297636  99.8412513  82.5692813  57.4668342  99.5414741
  83.8617671  58.1558768  99.1586161  76.4239876  56.6957495  98.7303773
  75.5871784  56.2679669  98.5487774  76.3963521  56.8889938  99.6674564
  83.2637331  46.6079425 109.4345019  83.3125487  47.4841547 109.0522789
  83.8059845  46.0656818 108.8616662  93.7492177  57.1520548 108.7146156
  92.9587720  57.1344687 108.1750655  93.5125531  57.6908841 109.4695193
  93.8690052  54.0013014 106.0278885  93.9188057  53.8363022 106.9694407
  93.7603975  53.1340273 105.6376765  82.7526311  56.6801560  93.3170974
  82.9014431  57.3637024  92.6637646  83.5592754  56.6606650  93.8320429
  91.1593814  49.9843942 107.3438191  92.0603677  49.8450407 107.0522189
  91.2341789  50.1498397 108.2836369  85.4936620  47.3610797 106.1891378
  84.6239929  47.6544363 105.9173966  85.7296100  47.9451242 106.9098641
  95.3708249  56.4209956 106.2720906  95.0793057  56.7839936 107.1084367
  94.7580380  55.7076964 106.0934238  96.5703931  53.9862835  98.7923476
  97.4050822  54.4252639  98.9561037  96.7063060  53.5101489  97.9731722
  93.6195437  51.5442570 104.7400964  94.0949559  51.7370217 103.9319816
  92.6961002  51.6001756 104.4944348  80.5078944  52.7066737  94.3232042
  80.2624985  51.8029067  94.5212253  80.6774858  52.7083888  93.3811520
  88.1975653  43.5790414 103.7056798  88.7157597  44.3151441 103.3803287
  87.8430786  43.8854407 104.5403557  79.7774591  48.4395095  91.8218204
  79.0843836  48.5139450  91.1658240  79.5326343  47.6755439  92.3439721
  88.4488248  39.9990696  99.2257695  88.7290001  39.3313885  99.8518121
  89.2338854  40.1919792  98.7132358  86.2521716  59.1749690  90.7882721
  85.6795683  59.7939877  90.3353193  86.8254510  59.7249052  91.3222643
  92.3197106  48.4208330 102.9729270  93.2714529  48.5206428 102.9941494
  92.1500556  47.6286599 103.4827354  90.3411485  45.5063914 103.1588671
  89.7461417  45.7868926 102.4635159  90.0561182  45.9957815 103.9305412
  89.4718976  59.4586840  91.9191303  90.4049649  59.3932402  92.1224179
  89.3842189  60.2943107  91.4605836  94.7985184  51.6414450 102.0871569
  94.7661504  50.7030451 102.2731253  95.4085807  51.7198487 101.3537394
  86.6368515  50.5110503  88.1298773  87.5827619  50.3816711  88.1987191
  86.2582760  49.7725165  88.6068202  94.9479672  48.4325493 102.1329853
  94.4318721  47.6483950 101.9459781  95.8319621  48.1044210 102.2976372
  92.6090399  42.1766509  98.0925665  92.4115220  41.8681597  98.9768997
  93.2190105  42.9028148  98.2223595 100.6161734  52.7030457 101.2277606
 101.3465122  52.4415745 101.7885310 100.0068679  51.9659179 101.2679674
  98.6977031  50.8438319 101.8252057  97.9710194  50.7094284 101.2168549
  98.2824318  51.1515148 102.6308775  86.5207207  54.5628249 109.5899430
  87.4410217  54.7406848 109.7839477  86.4856790  53.6184295 109.4379130
  84.8211432  48.4360479  88.0653659  83.9142887  48.1393592  88.1416372
  85.0987413  48.1390298  87.1987945  75.7389372  49.7566843  98.5152705
  75.4192156  48.9032151  98.2227079  75.1922800  49.9715421  99.2710672
  79.5169280  52.4729284 102.2322212  79.7355289  53.4046392 102.2510245
  79.9295053  52.1137258 103.0177015  86.4373497  42.9797369  94.2197900
  85.6274226  42.6344454  94.5953146  87.1257914  42.6704913  94.8085512
  88.3664046  42.0575416  95.8422197  88.9195084  42.4770869  96.5012220
  88.6034132  41.1311164  95.8845153  84.3897145  48.0462490 111.6224960
  84.2893872  48.9956847 111.5537052  84.1718687  47.7180728 110.7501031
  83.5910216  45.2947415  88.2065638  84.4529380  45.6202313  88.4661455
  83.7760560  44.5078911  87.6938704  75.6077632  53.3769754 100.4845827
  74.9141104  52.9623707  99.9715781  76.3550623  53.4190291  99.8879246
  91.7442853  44.1675941  95.3500861  91.1641522  44.8260745  94.9678913
  91.4778785  43.3453286  94.9388278  90.1946419  43.5680999  97.5522181
  90.6946198  43.6797533  96.7436500  90.8382027  43.2642052  98.1922990
  84.2528415  51.4759628 110.4390022  83.7695497  52.2759989 110.6453911
  84.3389354  51.4867573 109.4857466  77.5214375  53.3088008  98.3611842
  77.4985063  53.4075695  97.4093725  77.8315011  54.1553159  98.6829008
  80.1801753  55.3664163 102.4758456  81.1345006  55.3348105 102.4088387
  79.9814276  54.9054787 103.2908682  80.7701135  53.9365279 105.0429254
  81.5894024  54.4309358 105.0664091  81.0437942  53.0197247 105.0146821
  90.5267731  46.3276031  94.4057209  89.6393586  46.6125682  94.1877404
  90.9421720  46.1669795  93.5584486  93.8782267  46.3522552  98.1211548
  94.6542657  46.8419005  98.3936165  93.1530401  46.7780607  98.5783418
  96.3154826  47.0650172  99.1785489  96.9099316  46.8245908  98.4678797
  96.3881409  46.3457302  99.8059025  78.5351981  60.9083783  99.4928654
  78.4006449  60.1484183  98.9266652  78.1184044  61.6324682  99.0257443
  89.6710944  56.0920706  88.5005229  90.3746794  56.2970709  89.1162885
  88.9473593  56.6597468  88.7654313  90.5008755  51.8430567  94.6207499
  90.4443956  52.2999119  93.7815132  91.0537097  51.0821252  94.4430342
  94.3113560  47.6320299  95.4457619  94.0550495  47.2316935  96.2765826
  93.6866429  48.3464093  95.3207758  98.6225898  50.3716373  97.9528910
  98.0625456  50.4409562  98.7260472  98.0169402  50.1957357  97.2328406
  81.6921107  61.8053100  99.7047096  81.5753491  62.7498532  99.6025787
  80.8713553  61.5026661 100.0932896  91.2343534  53.0335349  91.9160028
  91.1792338  52.8679620  90.9748473  90.6089589  53.7411382  92.0722218
  76.0236049  48.2703413 105.7421451  76.6694912  47.7602367 106.2308676
  75.8153200  49.0072095 106.3164876  88.5489441  55.3384261 111.2413591
  89.4180601  55.5124913 110.8800226  88.0696193  56.1578677 111.1189321
  84.5439659  42.5343458  91.4945347  84.5318329  43.4785298  91.6513618
  85.4363081  42.3513603  91.2004808  82.7175621  62.4581362 102.9203025
  83.6202868  62.4904972 103.2369520  82.4912991  61.5281812 102.9349361
  84.4729223  61.2112348  99.5813103  83.5224854  61.2114210  99.4677476
  84.7761709  60.4645083  99.0649138  88.3591779  39.1286234  95.7491284
  87.5924175  38.5744721  95.8947966  88.7702484  39.2008103  96.6105435
  80.3633540  45.4171030 109.8396465  81.2265001  45.0607835 110.0499789
  79.7898951  45.0784925 110.5271869 100.2081917  67.0472886 100.6458866
 100.8460327  66.9279634  99.9422206 100.0902760  67.9953730 100.7046818
  97.0171623  67.0000315 100.5820391  96.6790135  66.8841379  99.6940925
  97.8861391  66.5991480 100.5621397  97.4991406  68.1535166 106.5406596
  97.4880047  67.7587965 105.6687100  97.6612046  67.4201239 107.1340368
  90.4222871  70.3486983  99.4101502  91.2144163  70.0077807  98.9947801
  90.6619521  70.4581958 100.3303655  94.2198667  70.9372278 105.4885780
  93.9288533  71.8417909 105.3732446  94.8555652  70.9788806 106.2029850
  95.1454874  68.3149127 102.0787140  95.7418446  68.0905149 101.3644103
  95.2029846  67.5733872 102.6812588 105.1631612  64.7099574  98.6245052
 105.8956784  64.1398790  98.8582882 104.4070968  64.3221174  99.0651558
 102.6857033  58.4221148 103.0839661 102.3540358  59.2916559 102.8600876
 102.0902646  58.1057432 103.7633691  99.1788552  70.6233694 102.4835574
  98.8789275  71.5258732 102.3751381  98.8339612  70.3565877 103.3356727
  89.9909845  66.7180764  99.3516067  90.1202226  66.9715243 100.2655479
  89.3107296  67.3108472  99.0320722  94.1609332  77.3878014  95.4506541
  94.0833362  78.3385839  95.5295022  93.5570976  77.0423886  96.1081468
  96.6526562  64.5605879 108.1067908  95.8759896  65.1199800 108.0970773
  97.2917125  65.0462662 108.6282778 104.4447342  61.3432672 101.9410885
 103.8021723  61.6365205 101.2950680 103.9402271  61.2285593 102.7464082
  94.9072934  67.3691333 107.6685875  95.6487619  67.9076377 107.3920699
  94.2009920  67.9957621 107.8257427 100.3828274  69.5120473 106.2658037
 100.7911630  69.0702884 105.5212669  99.6605535  68.9373101 106.5192230
  96.7359344  64.4493080 103.6391594  97.5820539  64.8732494 103.7826243
  96.6757982  63.7926704 104.3330157 100.7057088  70.0721664 100.0210326
 100.0765951  70.2367378  99.3186394 100.3182751  70.4863273 100.7921290
 104.5846320  71.0076102  97.3754690 103.8997359  71.3875003  96.8251723
 104.6690170  71.6171428  98.1086637  99.8858789  62.1097448 105.2972767
  99.6419721  62.8639509 104.7607043 100.1618720  62.4882796 106.1320015
 101.8397252  68.6536061 103.9750033 102.0514147  69.2967821 103.2984414
 101.7927000  67.8198377 103.5071963  93.1509131  69.3567553 100.2240174
  93.7210488  69.7854822  99.5857659  93.7417243  69.0750138 100.9224360
  93.6434298  64.5230981 108.4701185  93.0132958  65.2047262 108.7036582
  93.5370386  64.4114063 107.5254324  88.9379270  64.1902777  99.3967110
  88.1478324  64.4460305  98.9207220  89.4290518  65.0051115  99.5019150
 102.9543080  71.5308016 102.1472390 103.7760524  71.1288203 101.8655072
 102.9505483  71.4276250 103.0988506  96.7199683  71.0792059 104.3033101
  96.7844116  71.5412467 105.1391273  96.0110607  70.4489424 104.4315411
  87.2216973  64.4433267 101.8282100  87.4725012  65.3280277 102.0939676
  87.7576522  64.2637869 101.0557192 111.0449073  67.8746765  98.4957362
 110.2912781  67.3054163  98.3401366 111.1796614  67.8409429  99.4427997
  92.9215041  58.8251747 110.8326436  92.5281986  58.2717945 111.5074081
  93.7381181  59.1362325 111.2232954  91.6971983  73.3801361  96.8262759
  91.8738611  74.3019326  96.6383743  92.4928817  73.0659780  97.2557139
  95.8383002  60.2409626 108.4246693  96.5792715  60.8416779 108.3451155
  96.0700924  59.4987264 107.8664736  90.9824340  65.4265993 106.7024923
  90.8677855  64.5251250 107.0032022  90.1268857  65.6729690 106.3509739
  92.8203299  74.8979535 102.8273102  93.3710724  74.7696598 102.0550096
  91.9814774  75.1974424 102.4767995 100.1597415  73.6486533 106.3293825
 100.1415891  74.4695414 105.8374094 101.0817336  73.5240609 106.5543966
  96.6170470  71.1630663 107.1717333  97.1498806  70.4018951 106.9416641
  96.0884551  70.8704315 107.9141487  99.7840165  56.2690729 102.7010975
  99.4404434  57.1592370 102.6250085 100.1519127  56.0792386 101.8380560
  87.8526015  68.5924259  95.5199577  88.6901237  69.0021268  95.3033285
  88.0304283  67.6523701  95.4899771  95.1079591  58.7234114  99.6726390
  95.9732588  58.5276922  99.3132279  95.1757100  58.4944465 100.5995746
 104.7224721  69.0131695  93.1436583 103.9454164  68.6742854  92.6991745
 105.4016202  69.0184318  92.4691548 102.9616028  68.4865676  99.8003191
 102.3039703  69.1764937  99.8883320 103.7656428  68.8762108 100.1437178
 101.7721487  66.8410048  97.8507133 102.2853369  67.4740040  98.3528843
 102.4222711  66.2411244  97.4850493  99.0343861  76.8194373  90.6067804
  98.3605560  77.1226070  91.2152762  99.4209683  77.6223453  90.2573261
 102.5383283  71.8216050  95.9786276 102.0845610  70.9806960  96.0351466
 101.9077250  72.4577448  96.3161056 100.9816223  73.6592547  96.9136094
 101.2739197  74.2197604  96.1948459 101.4914843  73.9521108  97.6689253
 101.5827830  55.5284288  97.8028712 101.8886707  54.6681651  97.5154627
 102.3080435  56.1201908  97.6027706  87.8752186  65.9314975  96.1910310
  87.6776586  65.3384335  95.4661377  87.3198850  65.6267185  96.9086249
  95.9449848  74.4372898  98.0029547  95.9026027  74.6633744  97.0738079
  96.8612547  74.2036272  98.1515348  99.3915482  64.9056965 104.9010176
  99.7464869  65.1328438 105.7604642 100.0387613  65.2375342 104.2787431
 105.1213219  68.0275401  95.6059505 104.9831117  68.2176997  94.6780694
 104.7649437  68.7894784  96.0627556  93.2855345  62.0133496 101.6856517
  93.9254724  61.8722255 100.9879481  92.4532875  61.7268010 101.3095119
 105.1482598  70.0951928 100.6170777 105.5819105  70.0027217 101.4653831
 105.8614179  70.0709429  99.9790793  94.0615649  71.3135927  97.7991510
  94.8556247  70.8186247  97.5974085  93.3507341  70.7853790  97.4359215
  98.8810493  73.6954022 102.1503877  98.9347515  74.2644959 102.9181593
  98.0125274  73.8655907 101.7857914  91.7608886  63.3971578 103.6328329
  92.4331940  63.1888941 102.9840977  90.9338673  63.1993664 103.1933561
 106.0098148  70.1375629 103.1503662 106.2034038  71.0421439 103.3962937
 105.9098766  69.6783048 103.9842247  97.6634458  60.0233519 105.6493989
  97.0162373  60.7223469 105.5558466  98.4335474  60.4569663 106.0170238
  97.8398593  67.8614284 103.7090809  98.7690653  68.0125444 103.5359776
  97.4189623  67.9498305 102.8539456  96.6386925  71.8864949 101.4789347
  96.4998010  71.5183733 102.3515285  95.8501521  72.4012588 101.3073305
  97.2335077  76.9874045  92.8214883  97.4086832  76.5162088  93.6360506
  96.5467865  77.6139811  93.0496144  98.1892140  71.2646551  98.8678185
  97.8541972  71.2247321  99.7635834  97.6896085  70.5991267  98.3948595
  92.1636384  66.6714181 104.3930766  92.0256182  65.9394420 104.9942305
  93.0741307  66.5823082 104.1114953  94.7918684  66.3834141 103.8814445
  95.5018303  65.7427333 103.8401064  94.7487992  66.6347036 104.8040626
  93.5047618  63.3699359 105.7010085  92.9684975  62.9190097 106.3531681
  92.9164327  63.5045267 104.9580549  91.7996162  80.1363408  99.5954743
  92.0392760  80.7681932 100.2733762  90.9565358  79.7851448  99.8820103
 102.7822870  71.2841078 105.0335004 101.8949649  70.9467000 105.1561403
 103.3521421  70.5524109 105.2703770  84.4352017  67.6165170  98.3578056
  85.1223057  67.3026900  97.7699071  84.2800146  68.5206534  98.0845307
  89.2386740  62.5055366 102.7863079  89.1544928  61.8981036 102.0513489
  88.4169446  62.9964385 102.7872576  96.3124024  75.9442530 101.9996247
  96.2394195  76.7497502 102.5115552  95.8701417  76.1434496 101.1744269
  96.1013803  75.1814300  95.5099069  95.3181325  75.7235981  95.6037294
  96.8006548  75.6988280  95.9093310 107.2640211  66.6949295  99.7951566
 107.2530087  67.5774011  99.4245499 106.3957590  66.3420846  99.6006103
  98.7722707  75.8429364 104.1554406  99.4850679  76.4776829 104.0830308
  98.2812736  75.9393230 103.3394408 103.8812785  65.5897936  96.2621732
 104.3473238  66.4225928  96.1882035 104.3320286  65.1242918  96.9666990
  93.8234621  73.5923808 104.9759977  94.5244080  74.2260291 105.1289371
  93.3529736  73.9338539 104.2155616 101.9489017  71.9341758  93.2607884
 102.2248860  71.8198352  94.1701758 101.0793515  71.5359243  93.2220057
 101.8529448  57.9578523 100.3012633 100.9392528  58.1882750 100.4694840
 102.2822550  58.0416967 101.1526666 101.6235907  66.1468415 102.8012527
 100.9707357  66.3944323 102.1464980 102.0016287  65.3332554 102.4675005
  98.5843081  76.1828109  96.9040698  98.7665475  75.3649764  97.3668450
  99.4076067  76.3995801  96.4665588  98.9185246  75.1096294  94.1655746
  99.4473012  74.5988748  93.5525908  99.1813466  74.7938824  95.0301279
  97.6723480  66.8888226 109.2878564  96.9964117  66.7882356 109.9580940
  98.4951114  66.7327440 109.7514562  89.4202339  73.1260163 101.9091080
  90.0055776  72.3803851 102.0418984  89.2227177  73.4364120 102.7927744
  92.2740994  76.1611410  96.9253522  91.6051369  76.6457538  96.4417562
  92.1353864  76.4080631  97.8396901  84.0119994  65.6965763 100.6295523
  84.0504093  65.1629354 101.4232641  83.5060286  65.1700969 100.0106500
  96.4146263  78.1955154 103.5236180  96.9664571  78.3586775 104.2885266
  96.7552456  78.7859592 102.8516205  91.3910756  60.5430304 104.1258065
  91.4552082  61.4045135 103.7135463  91.3277876  59.9304305 103.3930424
  90.8663028  62.6153436 107.7731099  91.4935067  62.2330514 108.3868624
  90.0090947  62.3967638 108.1386792  99.5514650  76.1437129 100.5099863
  99.4265789  75.3426869 100.0010808 100.2093741  76.6383323 100.0213833
  91.1722818  62.4985862  99.6877003  90.4509404  63.1121830  99.5484476
  91.9616074  63.0343627  99.6093649 101.6149558  73.9446149 102.1379413
 100.6679894  73.8251501 102.0657739 101.9632331  73.0568648 102.2205674
  93.9749132  59.8340288 105.9617655  94.4983533  60.0802585 106.7243964
  93.7561465  60.6660323 105.5420792  98.6195992  73.7398866  98.3383765
  98.4720954  72.8115573  98.5191335  99.4449485  73.7618956  97.8540840
 102.2230113  74.5627424  99.4248638 103.1476661  74.3570286  99.2873089
 102.0545417  74.3143826 100.3337979  95.1801677  60.7753983 103.6467325
  94.8398497  59.9761797 104.0488005  94.4740683  61.0755694 103.0744158
  95.8318148  57.8603296 102.0994648  96.6544218  57.3863774 101.9773538
  96.0756212  58.6393780 102.5993334  93.3556727  64.5522417  99.9086627
  93.2101308  64.8662720 100.8010908  92.8781931  65.1707317  99.3557525
  95.2153110  61.5424965  99.9567516  95.2014679  60.6466058  99.6199814
  95.9325538  61.5495628 100.5905802  97.0679241  61.9762305 102.0020644
  96.8097019  62.8979375 102.0004974  96.5364281  61.5792739 102.6921108
 102.0125430  75.0813092  94.7810729 102.1862307  74.5159514  94.0284582
 102.5054321  75.8813987  94.5990219  87.8302389  67.0927761 102.8474288
  87.2855857  67.8687569 102.9794562  88.7081739  67.4398565 102.6893409
 107.8664821  67.8449515  96.4001029 108.3095967  67.0956840  96.0020152
 106.9891331  67.8359651  96.0174761 103.0000602  74.3979856  91.8807627
 103.6951507  75.0186549  92.0994942 103.3423752  73.5475207  92.1560005
  88.6168411  66.2197657 105.7404445  87.8750147  66.3680293 106.3269075
  88.2961156  66.4805923 104.8771194 104.8992025  71.8479562  93.4094958
 105.4243349  72.1866835  92.6844278 104.8114378  70.9126577  93.2258093
  96.5612074  75.7613635 105.5384835  96.8699200  75.5162782 106.4107534
  97.3587556  75.9660274 105.0503705  96.5832686  77.9151545  97.7690211
  96.1437676  77.4227924  98.4623068  97.3340803  77.3724513  97.5282287
  89.0625025  74.1063086  97.7714839  89.8883045  73.8066858  97.3913483
  88.7119077  73.3370708  98.2204628  94.0306558  73.4589554  99.8412513
  93.4086567  72.7960259  99.5414741  94.7011425  73.4850686  99.1586161
  87.2633630  72.0249412  98.7303773  86.4265538  71.5971587  98.5487774
  87.2357275  72.2181856  99.6674564  94.1031086  61.9371342 109.4345019
  94.1519241  62.8133465 109.0522789  94.6453600  61.3948735 108.8616662
 104.7083806  69.3304932 106.0278885 104.7581811  69.1654939 106.9694407
 104.5997730  68.4632191 105.6376765  93.5920065  72.0093478  93.3170974
  93.7408185  72.6928942  92.6637646  94.3986508  71.9898568  93.8320429
 101.9987569  65.3135860 107.3438191 102.8997431  65.1742325 107.0522189
 102.0735543  65.4790315 108.2836369  96.3330374  62.6902715 106.1891378
  95.4633683  62.9836281 105.9173966  96.5689854  63.2743160 106.9098641
 107.4097685  69.3154753  98.7923476 108.2444577  69.7544557  98.9561037
 107.5456814  68.8393406  97.9731722 104.4589191  66.8734488 104.7400964
 104.9343313  67.0662134 103.9319816 103.5354757  66.9293674 104.4944348
  99.0369408  58.9082332 103.7056798  99.5551352  59.6443358 103.3803287
  98.6824541  59.2146325 104.5403557  99.2882002  55.3282614  99.2257695
  99.5683756  54.6605803  99.8518121 100.0732609  55.5211710  98.7132358
  97.0915471  74.5041608  90.7882721  96.5189438  75.1231795  90.3353193
  97.6648264  75.0540970  91.3222643 103.1590860  63.7500248 102.9729270
 104.1108283  63.8498346 102.9941494 102.9894311  62.9578517 103.4827354
 101.1805240  60.8355831 103.1588671 100.5855172  61.1160844 102.4635159
 100.8954937  61.3249732 103.9305412 100.3112730  74.7878758  91.9191303
 101.2443403  74.7224320  92.1224179 100.2235943  75.6235025  91.4605836
 102.9400747  74.1044628  88.8795251 102.8614379  73.7704492  89.7731009
 103.7610414  74.5966396  88.8786723 105.6378938  66.9706368 102.0871569
 105.6055258  66.0322368 102.2731253 106.2479562  67.0490404 101.3537394
 105.7873427  63.7617411 102.1329853 105.2712475  62.9775868 101.9459781
 106.6713375  63.4336128 102.2976372 103.4484154  57.5058427  98.0925665
 103.2508975  57.1973515  98.9768997 104.0583859  58.2320066  98.2223595
 111.4555488  68.0322375 101.2277606 112.1858877  67.7707663 101.7885310
 110.8462434  67.2951097 101.2679674 109.5370785  66.1730237 101.8252057
 108.8103949  66.0386202 101.2168549 109.1218072  66.4807066 102.6308775
  86.5783127  65.0858761  98.5152705  86.2585911  64.2324069  98.2227079
  86.0316555  65.3007339  99.2710672  90.3563034  67.8021202 102.2322212
  90.5749044  68.7338309 102.2510245  90.7688808  67.4429176 103.0177015
  99.2057800  57.3867334  95.8422197  99.7588839  57.8062787  96.5012220
  99.4427887  56.4603082  95.8845153  95.2290899  63.3754407 111.6224960
  95.1287626  64.3248764 111.5537052  95.0112441  63.0472646 110.7501031
  86.4471387  68.7061672 100.4845827  85.7534858  68.2915625  99.9715781
  87.1944378  68.7482209  99.8879246  95.0922170  66.8051546 110.4390022
  94.6089251  67.6051906 110.6453911  95.1783109  66.8159491 109.4857466
  88.3608129  68.6379926  98.3611842  88.3378817  68.7367613  97.4093725
  88.6708766  69.4845077  98.6829008  91.0195507  70.6956081 102.4758456
  91.9738761  70.6640023 102.4088387  90.8208031  70.2346705 103.2908682
  91.6094889  69.2657197 105.0429254  92.4287778  69.7601276 105.0664091
  91.8831697  68.3489165 105.0146821 104.7176021  61.6814470  98.1211548
 105.4936412  62.1710923  98.3936165 103.9924156  62.1072524  98.5783418
 107.1548580  62.3942089  99.1785489 107.7493071  62.1537825  98.4678797
 107.2275164  61.6749220  99.8059025  89.3745736  76.2375700  99.4928654
  89.2400204  75.4776101  98.9266652  88.9577798  76.9616600  99.0257443
 100.5104699  71.4212624  88.5005229 101.2140549  71.6262626  89.1162885
  99.7867348  71.9889386  88.7654313 105.1507315  62.9612217  95.4457619
 104.8944249  62.5608853  96.2765826 104.5260183  63.6756011  95.3207758
 109.4619653  65.7008290  97.9528910 108.9019211  65.7701480  98.7260472
 108.8563156  65.5249275  97.2328406  92.5314862  77.1345017  99.7047096
  92.4147246  78.0790450  99.6025787  91.7107308  76.8318579 100.0932896
 102.4191396  71.8595153  90.5503689 103.2537000  71.4276352  90.3681164
 102.2575739  71.6877167  91.4780584  86.8629803  63.5995331 105.7421451
  87.5088667  63.0894285 106.2308676  86.6546954  64.3364012 106.3164876
  93.5569376  77.7873279 102.9203025  94.4596622  77.8196889 103.2369520
  93.3306746  76.8573730 102.9349361  95.3122978  76.5404266  99.5813103
  94.3618609  76.5406127  99.4677476  95.6155464  75.7937000  99.0649138
  99.1985533  54.4578152  95.7491284  98.4317929  53.9036639  95.8947966
  99.6096238  54.5300021  96.6105435  91.2027294  60.7462948 109.8396465
  92.0658756  60.3899753 110.0499789  90.6292705  60.4076843 110.5271869
 103.7152193  84.1827709  96.5717282 103.1517058  84.0917646  95.8033569
 103.6004588  83.3627613  97.0519774 109.2951752  87.8498676  91.8831746
 108.6439732  88.4352757  91.4965760 110.0896115  88.3804871  91.9426784
 103.2207379  84.9387814  92.2818881 103.9938255  84.3916801  92.1431757
 103.5732778  85.8032063  92.4933342 105.5573657  81.0980480  89.9137331
 105.8099178  80.5762001  89.1520794 104.6198216  80.9346625  90.0164014
 110.6016940  80.1016258  97.7212074 111.3880029  79.6835681  97.3702491
 110.8655644  81.0062350  97.8893722 110.7727017  85.5389108  92.4200731
 110.1372850  85.6123735  93.1321635 110.4424424  86.1282707  91.7419810
 105.2769946  83.0008586  92.1161706 105.1606204  82.3253489  92.7842790
 105.3872206  82.5140960  91.2993859 107.6201487  82.4618733  95.8208395
 107.2559694  81.9349354  96.5321316 108.4768603  82.0717202  95.6474880
 107.2606974  77.4908632  90.8169743 107.4281376  78.3588869  91.1840214
 107.0704143  77.6535914  89.8931033 103.4694788  82.4039408  98.5172278
 102.5445285  82.2715622  98.7249970 103.7179201  83.1833627  99.0142221
 107.2396194  79.9466290  91.8016410 107.1195820  80.3923341  92.6401891
 106.5448783  80.2951608  91.2429948 100.8303599  82.0472682  99.3516067
 100.9595980  82.3007161 100.2655479 100.1501051  82.6400390  99.0320722
 112.9381261  80.4187763  92.6296744 113.8499117  80.6515150  92.4544442
 112.4290908  81.0024807  92.0671823 110.2817235  76.5945799 100.8786605
 109.4201714  76.8927053 101.1703343 110.3079670  76.8116198  99.9467638
 107.0978805  85.1387990  97.2860411 107.5617150  85.4175693  96.4965033
 106.8335603  84.2371434  97.1033502 106.0347691  81.2611142  94.0949976
 106.7371734  81.7132186  94.5623902 105.7028319  80.6194961  94.7229869
  99.7773025  79.5194695  99.3967110  98.9872079  79.7752223  98.9207220
 100.2684272  80.3343032  99.5019150 101.7287770  79.8839274  96.3550586
 100.9318933  79.9957968  96.8734082 101.5013362  80.2225926  95.4891477
  98.0610728  79.7725185 101.8282100  98.3118766  80.6572195 102.0939676
  98.5970276  79.5929787 101.0557192 107.2741455  88.0752085  94.1712081
 107.1387130  88.9203620  94.5996929 107.8151268  88.2771362  93.4078015
 100.7270853  85.5927523  94.7440006 101.2395373  86.3870773  94.8945571
 101.3793566  84.8953813  94.6773608 110.6233919  71.5982646 102.7010975
 110.2798188  72.4884288 102.6250085 110.9912882  71.4084304 101.8380560
  98.6919770  83.9216177  95.5199577  99.5294992  84.3313185  95.3033285
  98.8698037  82.9815619  95.4899771 110.5884202  81.5891258  91.2083410
 110.0730825  82.3595862  91.4471797 110.3161510  80.9156394  91.8316471
 108.1731313  76.4340958  96.2668648 107.3172909  76.0447809  96.0874287
 108.5858265  76.5132919  95.4068434 109.7030459  73.9687302 100.6660208
 109.1995255  73.9317437  99.8528013 109.9961066  74.8780044 100.7256865
 105.9473345  74.0526031  99.6726390 106.8126342  73.8568840  99.3132279
 106.0150854  73.8236383 100.5995746 115.5618476  84.3423612  93.1436583
 114.7847919  84.0034772  92.6991745 116.2409957  84.3476235  92.4691548
 110.3770505  79.4618350  93.0343191 110.0720641  79.7764499  93.8853334
 111.3300947  79.5399770  93.0770524 108.8216937  85.6208573  94.6836145
 108.2938298  84.8861333  94.3709382 108.3204440  86.3983249  94.4376113
 103.5535664  76.2828239  97.0442756 104.1279416  76.0603421  96.3115949
 104.1406647  76.3516934  97.7971358 103.8805252  78.3132700  91.0638642
 103.0442564  78.6507387  91.3847916 103.7410021  78.1781680  90.1265779
 105.8558332  73.1569488  95.7717826 105.2022744  72.8418505  95.1474441
 105.8138806  72.5345229  96.4977649 106.9669537  83.4388783  87.6871118
 106.0596599  83.2078037  87.8862267 107.4640569  82.6426403  87.8745100
 109.8737616  92.1486290  90.6067804 109.1999315  92.4517987  91.2152762
 110.2603438  92.9515371  90.2573261 109.8731120  81.0442837  95.2268154
 110.6202939  81.5564235  94.9175276 110.1422710  80.7226890  96.0872547
 108.1457770  83.5401378  92.2095108 107.2368990  83.2560411  92.3067578
 108.1752854  83.9600457  91.3498415 112.3209957  78.0799954  97.2086943
 111.5832714  77.5677340  97.5397186 112.5736731  77.6400335  96.3970220
 112.4221585  70.8576206  97.8028712 112.7280462  69.9973569  97.5154627
 113.1474190  71.4493826  97.6027706  98.7145941  81.2606892  96.1910310
  98.5170341  80.6676253  95.4661377  98.1592605  80.9559102  96.9086249
 106.6942664  81.1529999  98.3104903 106.7491274  80.2003835  98.2347380
 105.8833866  81.3089438  98.7946202 107.8433858  85.0810122  89.5483187
 107.4053288  84.3645981  89.0888824 108.5844299  85.3086237  88.9868278
 104.6335024  79.7707058  96.0695282 103.8202890  80.0701229  96.4760474
 105.1294019  79.3762747  96.7869765 104.1249099  77.3425414 101.6856517
 104.7648478  77.2014173 100.9879481 103.2926630  77.0559927 101.3095119
 101.2092167  80.7870926  93.8751262 100.2789755  80.7255382  94.0921225
 101.3049639  80.2646879  93.0787904 101.1277716  77.3125739  96.4629504
 101.3884533  78.2271072  96.3538665 101.9494888  76.8450182  96.6126117
 111.9645086  83.9394503  89.1415244 111.3474256  83.2141332  89.0448297
 111.4961574  84.7003864  88.7982318 103.7543632  78.1579928  88.2636548
 102.8773098  78.0368729  87.8998795 104.2301385  77.3666006  88.0115437
  95.2745772  82.9457087  98.3578056  95.9616812  82.6318818  97.7699071
  95.1193901  83.8498452  98.0845307 100.0780494  77.8347284 102.7863079
  99.9938683  77.2272954 102.0513489  99.2563200  78.3256302 102.7872576
 110.2504208  76.3200848  98.1533274 110.7472907  75.5670810  97.8334345
 109.4791189  76.3565164  97.5876484 106.8339177  78.4618231  97.8804959
 106.4636964  77.9089271  98.5685865 107.3298269  77.8576364  97.3279959
 112.6923203  73.2870441 100.3012633 111.7786282  73.5174668 100.4694840
 113.1216304  73.3708885 101.1526666  94.8513748  81.0257681 100.6295523
  94.8897848  80.4921272 101.4232641  94.3454041  80.4992886 100.0106500
 102.2304510  75.8722221 104.1258065 102.2945837  76.7337052 103.7135463
 102.1671631  75.2596223 103.3930424  98.4822326  79.7521783  93.7049454
  98.7775767  78.8432461  93.6516508  97.5810361  79.7309522  93.3830457
 102.0116573  77.8277780  99.6877003 101.2903158  78.4413747  99.5484476
 102.8009828  78.3635544  99.6093649 100.2110167  77.4335881  93.8288779
  99.8822873  76.5533260  93.6463885 100.5649538  77.3783549  94.7165169
 103.3251990  77.7208850  94.1964257 103.6648063  78.2494772  93.4742865
 103.7724111  78.0589257  94.9722824 106.6711903  73.1895214 102.0994648
 107.4937972  72.7155692 101.9773538 106.9149967  73.9685697 102.5993334
 105.3120137  76.2183472  92.3957550 106.0328500  76.5964725  91.8921267
 104.6885442  76.9372349  92.4992528 109.4551260  76.9228621  93.3315882
 109.6714875  77.8053259  93.0304710 108.9745328  76.5314834  92.6021524
 104.1950482  79.8814334  99.9086627 104.0495062  80.1954637 100.8010908
 103.7175685  80.4999235  99.3557525 106.0546865  76.8716882  99.9567516
 106.0408433  75.9757976  99.6199814 106.7719293  76.8787546 100.5905802
 105.4583761  75.7531262  95.2255086 105.5799672  74.8247909  95.4245974
 105.1685803  75.7669948  94.3133402 108.3274951  73.4386173  98.3621806
 108.3496648  73.5025506  97.4073786 108.7443010  72.5990682  98.5562312
  99.9018779  89.4355004  97.7714839 100.7276799  89.1358775  97.3913483
  99.5512831  88.6662626  98.2204628  98.1027384  87.3541330  98.7303773
  97.2659293  86.9263504  98.5487774  98.0751030  87.5473773  99.6674564
 104.4313820  87.3385395  93.3170974 104.5801940  88.0220860  92.6637646
 105.2380263  87.3190485  93.8320429 102.1866452  83.3650573  94.3232042
 101.9412494  82.4612903  94.5212253 102.3562367  83.3667723  93.3811520
 101.4562100  79.0978930  91.8218204 100.7631345  79.1723285  91.1658240
 101.2113852  78.3339274  92.3439721 110.1275757  70.6574532  99.2257695
 110.4077510  69.9897721  99.8518121 110.9126363  70.8503627  98.7132358
 107.9309225  89.8333526  90.7882721 107.3583192  90.4523713  90.3353193
 108.5042019  90.3832887  91.3222643 111.1506485  90.1170676  91.9191303
 112.0837158  90.0516237  92.1224179 111.0629698  90.9526943  91.4605836
 113.7794501  89.4336546  88.8795251 113.7008133  89.0996410  89.7731009
 114.6004168  89.9258314  88.8786723 108.3156024  81.1694338  88.1298773
 109.2615128  81.0400546  88.1987191 107.9370268  80.4309000  88.6068202
 114.2877908  72.8350344  98.0925665 114.0902729  72.5265433  98.9768997
 114.8977614  73.5611983  98.2223595 106.4998941  79.0944315  88.0653659
 105.5930396  78.7977427  88.1416372 106.7774922  78.7974133  87.1987945
  97.4176881  80.4150678  98.5152705  97.0979665  79.5615986  98.2227079
  96.8710309  80.6299256  99.2710672 108.1161006  73.6381204  94.2197900
 107.3061735  73.2928289  94.5953146 108.8045423  73.3288748  94.8085512
 110.0451555  72.7159251  95.8422197 110.5982593  73.1354705  96.5012220
 110.2821641  71.7894999  95.8845153 105.2697725  75.9531250  88.2065638
 106.1316889  76.2786148  88.4661455 105.4548069  75.1662746  87.6938704
  97.2865141  84.0353590 100.4845827  96.5928613  83.6207542  99.9715781
  98.0338132  84.0774126  99.8879246 113.4230362  74.8259776  95.3500861
 112.8429031  75.4844580  94.9678913 113.1566294  74.0037121  94.9388278
 111.8733928  74.2264834  97.5522181 112.3733707  74.3381369  96.7436500
 112.5169536  73.9225887  98.1922990  99.2001884  83.9671843  98.3611842
  99.1772572  84.0659531  97.4093725  99.5102520  84.8136994  98.6829008
 112.2055240  76.9859867  94.4057209 111.3181095  77.2709517  94.1877404
 112.6209229  76.8253630  93.5584486 111.3498453  86.7504541  88.5005229
 112.0534303  86.9554544  89.1162885 110.6261102  87.3181303  88.7654313
 112.1796264  82.5014403  94.6207499 112.1231465  82.9582954  93.7815132
 112.7324606  81.7405087  94.4430342 115.9901069  78.2904135  95.4457619
 115.7338004  77.8900770  96.2765826 115.3653938  79.0047929  95.3207758
 113.2585151  87.1887071  90.5503689 114.0930755  86.7568269  90.3681164
 113.0969494  87.0169084  91.4780584 112.9131043  83.6919184  91.9160028
 112.8579847  83.5263455  90.9748473 112.2877098  84.3995217  92.0722218
 106.2227168  73.1927293  91.4945347 106.2105838  74.1369133  91.6513618
 107.1150590  73.0097438  91.2004808 110.0379288  69.7870070  95.7491284
 109.2711684  69.2328556  95.8947966 110.4489993  69.8591938  96.6105435
 114.5937386  93.4871845  88.2636548 113.7166853  93.3660646  87.8998795
 115.0695139  92.6957924  88.0115437 116.1091480  91.2823168  88.2065638
 116.9710644  91.6078066  88.4661455 116.2941824  90.4954664  87.6938704
  48.4421145  -4.1742140  86.3200050  48.6817743  -3.5423616  86.9979069
  47.5990342  -4.5254100  86.6065409  60.3577177  -0.1277839  83.2962588
  59.7942042  -0.2187903  82.5278876  60.2429572  -0.9477935  83.7765081
  57.9041608   1.3673352  86.1346809  58.6962900   1.0264177  85.7193108
  58.1438259   1.4768327  87.0548962  65.9376735   3.5393128  78.6077053
  65.2864715   4.1247209  78.2211067  66.7321098   4.0699323  78.6672091
  59.8632362   0.6282265  79.0064187  60.6363238   0.0811252  78.8677063
  60.2157761   1.4926515  79.2178649  61.7017405   1.9558648  92.2131087
  61.4107271   2.8604279  92.0977753  62.3374389   1.9975175  92.9275156
  62.6273612  -0.6664504  88.8032446  63.2237184  -0.8908481  88.0889409
  62.6848583  -1.4079758  89.4057894  67.4152000   1.2283560  79.1446037
  66.7797833   1.3018187  79.8566942  67.0849407   1.8177159  78.4665117
  61.9194929  -1.3096963  78.8407012  61.8031187  -1.9852059  79.5088097
  62.0297189  -1.7964589  78.0239165  66.6607290   1.6420063  89.2080880
  66.3608013   2.5445102  89.0996688  66.3158350   1.3752246  90.0602033
  60.1119772  -1.9066140  85.2417585  59.1870268  -2.0389926  85.4495277
  60.3604185  -1.1271921  85.7387527  57.4728583  -2.2632866  86.0761374
  57.6020964  -2.0098388  86.9900786  56.7926034  -1.6705158  85.7566029
  61.6428070   8.4064384  82.1751848  61.5652100   9.3572209  82.2540329
  61.0389713   8.0610256  82.8326774  62.3891672  -1.6122298  94.3931182
  63.1306356  -1.0737254  94.1166006  61.6828657  -0.9856009  94.5502734
  68.1875826   1.0908033  86.7455632  67.5584689   1.2553748  86.0431700
  67.8001488   1.5049643  87.5166596  72.0665058   2.0262471  84.0999996
  71.3816096   2.4061373  83.5497029  72.1508907   2.6357798  84.8331944
  63.7403788   0.8282441  84.0105717  64.2042134   1.1070144  83.2210340
  63.4760586  -0.0734114  83.8278808  60.6327869   0.3753923  86.9485481
  61.2029226   0.8041191  86.3102965  61.2235981   0.0936508  87.6469666
  70.4361818   2.5494386  88.8717697  71.2579261   2.1474573  88.5900379
  70.4324221   2.4462620  89.8233813  64.2018421   2.0978429  91.0278408
  64.2662854   2.5598836  91.8636579  63.4929345   1.4675794  91.1560717
  63.9166439   3.7646536  80.8957388  63.7812114   4.6098072  81.3242236
  64.4576251   3.9665814  80.1323322  57.3695836   1.2821975  81.4685313
  57.8820357   2.0765225  81.6190878  58.0218549   0.5848265  81.4018914
  59.1790721   4.3987731  83.5508066  59.3557349   5.3205695  83.3629050
  59.9747554   4.0846150  83.9802446  65.5434915   4.3870103  95.0257730
  65.0998769   3.6006482  94.7078634  66.2052129   4.5749253  94.3601621
  60.3022036   5.9165905  89.5518408  60.8529461   5.7882968  88.7795402
  59.4633512   6.2160794  89.2013301  67.6416153   4.6672903  93.0539131
  67.6234629   5.4881784  92.5619400  68.5636073   4.5426978  93.2789272
  64.0989207   2.1817032  93.8962640  64.6317544   1.4205321  93.6661948
  63.5703288   1.8890684  94.6386794  55.3344753  -0.3889371  82.2444883
  56.1719975   0.0207637  82.0278591  55.5123021  -1.3289929  82.2145077
  65.4641920   1.3103025  81.4081452  64.9363282   0.5755784  81.0954689
  64.9629423   2.0877701  81.1621420  66.5162599   7.8380742  77.3313111
  65.8424298   8.1412439  77.9398069  66.9028421   8.6409823  76.9818568
  64.7882754  -0.7704170  78.9340415  63.8793973  -1.0545137  79.0312884
  64.8177838  -0.3505091  78.0743722  70.0202021   2.8402420  82.7031582
  69.5664348   1.9993329  82.7596773  69.3895988   3.4763818  83.0406362
  68.4634960   4.6778916  83.6381400  68.7557935   5.2383973  82.9193766
  68.9733581   4.9707477  84.3934560  55.3570924  -3.0498656  82.9155617
  55.1595324  -3.6429295  82.1906683  54.8017588  -3.3546446  83.6331556
  64.4858842   0.7704574  76.2728493  64.0478271   0.0540433  75.8134131
  65.2269282   0.9980689  75.7113585  63.4268586   5.4559267  84.7274854
  63.3844764   5.6820114  83.7983386  64.3431284   5.2222642  84.8760655
  61.5434386   2.3322296  84.5236816  62.3374985   1.8372616  84.3219391
  60.8326079   1.8040159  84.1604522  66.3629231   4.7140392  88.8749184
  66.4166253   5.2831328  89.6426900  65.4944012   4.8842277  88.5103221
  68.5531994   1.3068741  95.4489849  68.4017501   1.0779293  94.5319933
  68.5436674   2.2639343  95.4621194  64.1205662   2.9051318  88.2034653
  63.9816748   2.5370103  89.0760592  63.3320259   3.4198958  88.0318611
  64.7153814   8.0060415  79.5460190  64.8905570   7.5348458  80.3605813
  64.0286602   8.6326181  79.7741451  65.6710877   2.2832921  85.5923491
  65.3360710   2.2433691  86.4881141  65.1714823   1.6177637  85.1193901
  70.2624201   4.3387864  93.5266331  70.2036747   3.6547084  92.8596914
  70.6643719   5.0806854  93.0746957  59.2814900  11.1549778  86.3200050
  59.5211498  11.7868302  86.9979069  58.4384096  10.8037818  86.6065409
  70.2641608   2.3027448  91.7580311  69.3768387   1.9653369  91.8806710
  70.8340159   1.5710479  91.9949076  51.9170755  -1.3648461  85.0823362
  52.6041795  -1.6786731  84.4944378  51.7618884  -0.4607096  84.8090614
  63.7942761   6.9628900  88.7241554  63.7212933   7.7683871  89.2360859
  63.3520155   7.1620866  87.8989575  63.5832541   6.2000670  82.2344376
  62.8000063   6.7422350  82.3282600  64.2825286   6.7174650  82.6338617
  66.2541445   6.8615734  90.8799713  66.9669417   7.4963199  90.8075614
  65.7631474   6.9579600  90.0639715  61.3053359   4.6110177  91.7005284
  62.0062818   5.2446660  91.8534678  60.8348474   4.9524909  90.9400923
  69.4307754   2.9528127  79.9853191  69.7067598   2.8384722  80.8947065
  68.5612253   2.5545612  79.9465364  66.0661818   7.2014478  83.6286004
  66.2484213   6.3836134  84.0913757  66.8894804   7.4182170  83.1910894
  66.4003984   6.1282663  80.8901053  66.9291750   5.6175118  80.2771215
  66.6632203   5.8125193  81.7546586  56.9021077   4.1446533  88.6336386
  57.4874513   3.3990220  88.7664290  56.7045915   4.4550489  89.5173050
  59.7559732   7.1797780  83.6498829  59.0870107   7.6643908  83.1662869
  59.6172601   7.4267000  84.5642207  51.4938731  -3.2847867  87.3540829
  51.5322831  -3.8184277  88.1477948  50.9879024  -3.8112662  86.7351807
  63.8965000   9.2141523  90.2481487  64.4483308   9.3773145  91.0130572
  64.2371194   9.8045961  89.5761512  68.7475875   4.0402781  96.1030141
  69.2915779   4.6532739  95.6085096  68.1662720   4.5982359  96.6197154
  67.0333388   7.1623499  87.2345169  66.9084527   6.3613239  86.7256115
  67.6912479   7.6569692  86.7459139  69.0968296   4.9632519  88.8624719
  68.1498632   4.8437870  88.7903046  69.4451069   4.0755017  88.9450981
  66.1014729   4.7585235  85.0629071  65.9539692   3.8301943  85.2436642
  66.9268223   4.7805326  84.5786147  69.7048851   5.5813794  86.1493944
  70.6295399   5.3756655  86.0118395  69.5364155   5.3330195  87.0583286
  69.4944167   6.0999461  81.5056036  69.6681045   5.5345884  80.7529888
  69.9873059   6.9000356  81.3235526  55.3121127  -1.8885869  89.5719594
  54.7674595  -1.1126062  89.7039869  56.1900477  -1.5415065  89.4138716
  70.4819340   5.4166226  78.6052934  71.1770245   6.0372919  78.8240249
  70.8242490   4.5661577  78.8805312  56.0987149  -2.7615973  92.4649751
  55.3568885  -2.6133338  93.0514382  55.7779893  -2.5007708  91.6016501
  72.3810763   2.8665931  80.1340265  72.9062087   3.2053204  79.4089585
  72.2933116   1.9312947  79.9503399  64.0430812   6.7800005  92.2630141
  64.3517938   6.5349152  93.1352841  64.8406294   6.9846643  91.7749012
  64.0651424   8.9337915  84.4935518  63.6256414   8.4414293  85.1868375
  64.8159541   8.3910882  84.2527593  56.5443763   5.1249455  84.4960146
  57.3701783   4.8253227  84.1158790  56.1937815   4.3557078  84.9449935
  61.5125296   4.4775924  86.5657820  60.8905305   3.8146629  86.2660047
  62.1830163   4.5037056  85.8831467  54.7452368   3.0435782  85.4549080
  53.9084276   2.6157956  85.2733081  54.7176013   3.2368225  86.3919871
  72.0704669   3.4998835  95.4391463  71.2800213   3.4822974  94.8995962
  71.8338024   4.0387129  96.1940499  61.0738803   3.0279847  80.0416280
  61.2226923   3.7115311  79.3882953  61.8805246   3.0084937  80.5565736
  73.6920741   2.7688243  92.9966213  73.4005549   3.1318223  93.8329674
  73.0792872   2.0555251  92.8179545  58.8291436  -0.9454975  81.0477349
  58.5837478  -1.8492645  81.2457559  58.9987350  -0.9437825  80.1056827
  64.5734208   5.5227978  77.5128028  64.0008175   6.1418165  77.0598499
  65.1467002   6.0727339  78.0467950  67.7931468   5.8065128  78.6436610
  68.7262141   5.7410689  78.8469485  67.7054681   6.6421394  78.1851142
  70.4219485   5.1230998  75.6040557  70.3433116   4.7890862  76.4976315
  71.2429152   5.6152766  75.6032030  64.8419699   0.9106536  96.3144737
  65.7622709   1.0885135  96.5084784  64.8069282  -0.0337418  96.1624436
  54.0601864  -3.8954870  85.2398012  53.7404649  -4.7489562  84.9472386
  53.5135293  -3.6806292  85.9955979  57.8381772  -1.1792429  88.9567518
  58.0567782  -0.2475321  88.9755552  58.2507546  -1.5384455  89.7422322
  53.9290124  -0.2751958  87.2091133  53.2353596  -0.6898006  86.6961088
  54.6763115  -0.2331422  86.6124552  55.8426867  -0.3433705  85.0857148
  55.8197555  -0.2446017  84.1339031  56.1527503   0.5031446  85.4074314
  58.5014245   1.7142450  89.2003763  59.4557498   1.6826393  89.1333694
  58.3026768   1.2533074  90.0153988  59.0913627   0.2843566  91.7674560
  59.9106516   0.7787645  91.7909398  59.3650435  -0.6324465  91.7392128
  56.8564474   7.2562070  86.2173960  56.7218941   6.4962471  85.6511958
  56.4396536   7.9802970  85.7502749  67.9923437   2.4398993  75.2250536
  68.6959287   2.6448996  75.8408191  67.2686085   3.0075755  75.4899619
  60.0133599   8.1531387  86.4292403  59.8965984   9.0976819  86.3271093
  59.1926046   7.8504948  86.8178202  69.9010134   2.8781523  77.2748996
  70.7355738   2.4462721  77.0926471  69.7394477   2.7063536  78.2025890
  66.8701933   1.6862548  97.9658898  67.7393093   1.8603200  97.6045533
  66.3908685   2.5056965  97.8434627  61.0388114   8.8059649  89.6448332
  61.9415360   8.8383259  89.9614826  60.8125484   7.8760100  89.6594667
  62.7941716   7.5590635  86.3058410  61.8437347   7.5592497  86.1922782
  63.0974202   6.8123370  85.7894445  78.5294409  13.3951174  87.3704173
  79.1672819  13.2757921  86.6667513  78.4115252  14.3432018  87.4292125
  75.3384115  13.3478602  87.3065697  75.0002627  13.2319667  86.4186232
  76.2073884  12.9469767  87.2866703  71.1970931  15.2014078  83.2962588
  70.6335796  15.1104015  82.5278876  71.0823326  14.3813983  83.7765081
  75.8203898  14.5013454  93.2651903  75.8092539  14.1066252  92.3932406
  75.9824538  13.7679526  93.8585674  68.7435363  16.6965270  86.1346809
  69.5356655  16.3556094  85.7193108  68.9832013  16.8060245  87.0548962
  76.7770490  18.8685046  78.6077053  76.1258470  19.4539126  78.2211067
  77.5714853  19.3991241  78.6672091  70.7026117  15.9574183  79.0064187
  71.4756993  15.4103170  78.8677063  71.0551516  16.8218432  79.2178649
  72.5411159  17.2850565  92.2131087  72.2501025  18.1896196  92.0977753
  73.1768144  17.3267093  92.9275156  73.4667366  14.6627414  88.8032446
  74.0630939  14.4383436  88.0889409  73.5242338  13.9212159  89.4057894
  73.0392395  12.1166849  76.6382637  73.2917915  11.5948370  75.8766100
  72.1016954  11.9532995  76.7409321  78.0835678  11.1202628  84.4457381
  78.8698767  10.7022051  84.0947798  78.3474382  12.0248720  84.6139029
  78.2545755  16.5575478  79.1446037  77.6191588  16.6310104  79.8566942
  77.9243161  17.1469077  78.4665117  83.4844105  11.0577861  85.3490359
  84.2169277  10.4877078  85.5828189  82.7283460  10.6699461  85.7896865
  72.7588683  14.0194955  78.8407012  72.6424942  13.3439859  79.5088097
  72.8690943  13.5327329  78.0239165  75.1020224  13.4805102  82.5453702
  74.7378432  12.9535723  83.2566623  75.9587340  13.0903571  82.3720187
  81.0069525   4.7699435  89.8084968  80.6752850   5.6394846  89.5846183
  80.4115138   4.4535719  90.4878998  74.7425711   8.5095002  77.5415050
  74.9100114   9.3775238  77.9085521  74.5522880   8.6722284  76.6176339
  77.5001045  16.9711981  89.2080880  77.2001768  17.8737020  89.0996688
  77.1552104  16.7044164  90.0602033  70.9513526  13.4225778  85.2417585
  70.0264023  13.2901992  85.4495277  71.1997939  14.2019997  85.7387527
  80.8998188   9.4894521  86.8878318  79.9915066   9.4209929  86.5937079
  80.8485784   9.9666466  87.7160143  74.7214932  10.9652659  78.5261717
  74.6014557  11.4109710  79.3647197  74.0267521  11.3137977  77.9675255
  68.3122337  13.0659051  86.0761374  68.4414718  13.3193530  86.9900786
  67.6319788  13.6586759  85.7566029  72.4821824  23.7356301  82.1751848
  72.4045854  24.6864126  82.2540329  71.8783468  23.3902174  82.8326774
  74.9739054  10.9084167  94.8313215  74.1972388  11.4678087  94.8216080
  75.6129617  11.3940950  95.3528085  82.7659835   7.6910959  88.6656192
  82.1234215   7.9843493  88.0195986  82.2614763   7.5763880  89.4709388
  80.4199998  11.4374133  79.3542051  81.3317855  11.6701519  79.1789748
  79.9109645  12.0211177  78.7917130  73.2285426  13.7169620  94.3931182
  73.9700111  14.2554664  94.1166006  72.5222412  14.3435909  94.5502734
  78.7040766  15.8598760  92.9903344  79.1124122  15.4181171  92.2457976
  77.9818028  15.2851388  93.2437536  75.0571836  10.7971367  90.3636900
  75.9033031  11.2210781  90.5071549  74.9970474  10.1404992  91.0575464
  79.0269581  16.4199951  86.7455632  78.3978443  16.5845665  86.0431700
  78.6395243  16.8341561  87.5166596  82.9058813  17.3554389  84.0999996
  82.2209851  17.7353290  83.5497029  82.9902662  17.9649716  84.8331944
  78.2071281   8.4575736  92.0218074  77.9632213   9.2117796  91.4852350
  78.4831212   8.8361083  92.8565321  80.1609744  15.0014348  90.6995340
  80.3726639  15.6446108  90.0229721  80.1139492  14.1676665  90.2317270
  77.7635973   7.6132169  87.6031912  76.9020452   7.9113422  87.8948649
  77.7898408   7.8302567  86.6712944  74.5797543  16.1574359  84.0105717
  75.0435888  16.4362062  83.2210340  74.3154341  15.2557804  83.8278808
  71.4721624  15.7045841  86.9485481  72.0422981  16.1333109  86.3102965
  72.0629736  15.4228425  87.6469666  73.5166429  12.2797512  80.8195283
  74.2190472  12.7318555  81.2869209  73.1847057  11.6381330  81.4475176
  71.9646790  10.8709268  95.1946492  71.3345451  11.5525549  95.4281889
  71.8582878  10.7592350  94.2499630  67.2591763  10.5381064  86.1212416
  66.4690817  10.7938593  85.6452527  67.7503010  11.3529402  86.2264457
  81.2755572  17.8786303  88.8717697  82.0973016  17.4766491  88.5900379
  81.2717975  17.7754538  89.8233813  69.2106508  10.9025643  83.0795893
  68.4137671  11.0144338  83.5979389  68.9832100  11.2412296  82.2136783
  75.0412176  17.4270347  91.0278408  75.1056608  17.8890754  91.8636579
  74.3323100  16.7967712  91.1560717  65.5429466  10.7911555  88.5527407
  65.7937504  11.6758565  88.8184983  66.0789014  10.6116156  87.7802499
  89.3661565  14.2225052  85.2202668  88.6125274  13.6532450  85.0646673
  89.5009106  14.1887716  86.1673303  74.7560193  19.0938454  80.8957388
  74.6205868  19.9389990  81.3242236  75.2970006  19.2957732  80.1323322
  71.2427533   5.1730034  97.5571743  70.8494478   4.6196233  98.2319387
  72.0593673   5.4840612  97.9478261  68.2089591  16.6113892  81.4685313
  68.7214111  17.4057142  81.6190878  68.8612304  15.9140183  81.4018914
  70.0184475  19.7279648  83.5508066  70.1951104  20.6497613  83.3629050
  70.8141309  19.4138068  83.9802446  74.1595494   6.5887913  95.1492000
  74.9005207   7.1895066  95.0696462  74.3913417   5.8465551  94.5910042
  69.3036832  11.7744280  93.4270229  69.1890347  10.8729538  93.7277328
  68.4481350  12.0207977  93.0755046  76.3828670  19.7162021  95.0257730
  75.9392524  18.9298399  94.7078634  77.0445883  19.9041171  94.3601621
  71.1415791  21.2457822  89.5518408  71.6923216  21.1174886  88.7795402
  70.3027267  21.5452711  89.2013301  78.4809908  19.9964821  93.0539131
  78.4628383  20.8173702  92.5619400  79.4029828  19.8718896  93.2789272
  74.9382962  17.5108950  93.8962640  75.4711299  16.7497238  93.6661948
  74.4097043  17.2182602  94.6386794  66.1738507  14.9402546  82.2444883
  67.0113729  15.3499555  82.0278591  66.3516775  14.0001989  82.2145077
  78.0702940  12.6077627  77.9328716  77.5549563  13.3782232  78.1717104
  77.7980248  11.9342763  78.5561778  75.6550051   7.4527328  82.9913955
  74.7991647   7.0634178  82.8119593  76.0677002   7.5319289  82.1313740
  77.1849197   4.9873671  87.3905515  76.6813993   4.9503806  86.5773320
  77.4779804   5.8966414  87.4502171  73.4292083   5.0712401  86.3971696
  74.2945080   4.8755210  86.0377586  73.4969592   4.8422753  87.3241053
  83.0437214  15.3609982  79.8681890  82.2666656  15.0221141  79.4237052
  83.7228695  15.3662605  79.1936855  77.8589243  10.4804719  79.7588498
  77.5539378  10.7950868  80.6098641  78.8119685  10.5586139  79.8015831
  76.3035675  16.6394943  81.4081452  75.7757036  15.9047702  81.0954689
  75.8023177  17.4169619  81.1621420  81.2828521  14.8343963  86.5248498
  80.6252195  15.5243224  86.6128627  82.0868920  15.2240395  86.8682484
  71.0354402   7.3014609  83.7688063  71.6098154   7.0789790  83.0361256
  71.6225385   7.3703303  84.5216664  80.0933979  13.1888336  84.5752440
  80.6065861  13.8218328  85.0774149  80.7435203  12.5889531  84.2095800
  71.3623989   9.3319070  77.7883948  70.5261302   9.6693756  78.1093223
  71.2228759   9.1968050  76.8511085  73.3377070   4.1755858  82.4963133
  72.6841482   3.8604875  81.8719747  73.2957544   3.5531598  83.2222955
  74.4488275  14.4575153  74.4116425  73.5415337  14.2264406  74.6107574
  74.9459307  13.6612772  74.5990406  77.3556354  23.1672660  77.3313111
  76.6818052  23.4704357  77.9398069  77.7422176  23.9701740  76.9818568
  76.5714810  10.6637791  86.8210780  75.6537372  10.8852738  86.6632468
  76.9874954  10.7384102  85.9622487  77.3549858  12.0629207  81.9513460
  78.1021677  12.5750604  81.6420582  77.6241448  11.7413260  82.8117854
  75.6276508  14.5587748  78.9340415  74.7187727  14.2746781  79.0312884
  75.6571592  14.9786826  78.0743722  80.8595776  18.1694337  82.7031582
  80.4058103  17.3285247  82.7596773  80.2289742  18.8055736  83.0406362
  79.8028695   9.0986323  83.9332250  79.0651452   8.5863709  84.2642492
  80.0555469   8.6586705  83.1215527  79.3028715  20.0070834  83.6381400
  79.5951689  20.5675891  82.9193766  79.8127335  20.2999395  84.3934560
  66.1964679  12.2793262  82.9155617  65.9989078  11.6862623  82.1906683
  65.6411343  11.9745472  83.6331556  74.1761402  12.1716368  85.0350210
  74.2310012  11.2190205  84.9592687  73.3652604  12.3275807  85.5191508
  75.3252596  16.0996491  76.2728493  74.8872026  15.3832350  75.8134131
  76.0663037  16.3272606  75.7113585  72.1153762  10.7893428  82.7940589
  71.3021628  11.0887599  83.2005781  72.6112756  10.3949117  83.5115071
  74.2662340  20.7851185  84.7274854  74.2238519  21.0112031  83.7983386
  75.1825039  20.5514560  84.8760655  77.7127974  11.2535253  91.6255483
  78.0677362  11.4806726  92.4849949  78.3600105  11.5853629  91.0032738
  83.4425711  14.3753688  82.3304812  83.3043609  14.5655284  81.4026001
  83.0861930  15.1373071  82.7872863  71.6067837   8.3611784  88.4101824
  72.2467216   8.2200543  87.7124787  70.7745367   8.0746297  88.0340426
  83.4695090  16.4430215  87.3416083  83.9031597  16.3505505  88.1899137
  84.1826671  16.4187716  86.7036099  72.3828141  17.6614214  84.5236816
  73.1768739  17.1664534  84.3219391  71.6719833  17.1332077  84.1604522
  77.2022985  20.0432310  88.8749184  77.2560008  20.6123246  89.6426900
  76.3337767  20.2134195  88.5103221  68.6910904  11.8057296  80.5996569
  67.7608492  11.7441751  80.8166531  68.7868376  11.2833248  79.8033210
  68.6096453   8.3312109  83.1874811  68.8703271   9.2457442  83.0783971
  69.4313626   7.8636551  83.3371423  70.0821379   9.7449866  90.3573635
  70.7544432   9.5367228  89.7086284  69.2551165   9.5471952  89.9178867
  84.3310640  16.4853916  89.8748969  84.5246530  17.3899727  90.1208244
  84.2311258  16.0261335  90.7087554  75.9846951   6.3711807  92.3739296
  75.3374866   7.0701756  92.2803772  76.7547966   6.8047951  92.7415544
  79.3925749  16.6360659  95.4489849  79.2411255  16.4071211  94.5319933
  79.3830428  17.5931260  95.4621194  76.1611085  14.2092572  90.4336116
  77.0903145  14.3603731  90.2605083  75.7402115  14.2976592  89.5784762
  74.9599417  18.2343236  88.2034653  74.8210503  17.8662020  89.0760592
  74.1714013  18.7490875  88.0318611  75.5547569  23.3352332  79.5460190
  75.7299324  22.8640376  80.3605813  74.8680357  23.9618099  79.7741451
  76.5104632  17.6124839  85.5923491  76.1754465  17.5725609  86.4881141
  76.0108578  16.9469555  85.1193901  70.4848876  13.0192469  91.1176072
  70.3468674  12.2872708  91.7187611  71.3953799  12.9301369  90.8360260
  79.4463824  14.9580873  75.8660551  78.8292994  14.2327701  75.7693604
  78.9780312  15.7190233  75.5227625  73.1131177  12.7312428  90.6059752
  73.8230795  12.0905620  90.5646370  73.0700485  12.9825323  91.5285933
  81.1017955  19.6679781  93.5266331  81.0430501  18.9839001  92.8596914
  81.5037474  20.4098771  93.0746957  71.8260111   9.7177646  92.4255391
  71.2897468   9.2668384  93.0776988  71.2376819   9.8523555  91.6825856
  70.1208654  26.4841695  86.3200050  70.3605252  27.1160219  86.9979069
  69.2777851  26.1329735  86.6065409  71.2362370   9.1766297  74.9881855
  70.3591836   9.0555098  74.6244102  71.7120123   8.3852376  74.7360744
  81.1035363  17.6319365  91.7580311  80.2162141  17.2945287  91.8806710
  81.6733914  16.9002397  91.9949076  62.7564510  13.9643457  85.0823362
  63.4435550  13.6505187  84.4944378  62.6012638  14.8684822  84.8090614
  67.5599232   8.8533654  89.5108386  67.4757421   8.2459323  88.7758796
  66.7381938   9.3442672  89.5117882  74.6336516  22.2920818  88.7241554
  74.5606687  23.0975789  89.2360859  74.1913909  22.4912783  87.8989575
  74.4226296  21.5292588  82.2344376  73.6393817  22.0714268  82.3282600
  75.1219041  22.0466567  82.6338617  77.7322946   7.3387217  84.8778581
  78.2291645   6.5857179  84.5579651  76.9609927   7.3751534  84.3121790
  85.5852703  13.0427583  86.5196873  85.5742579  13.9252298  86.1490806
  84.7170083  12.6899133  86.3251410  77.0935199  22.1907652  90.8799713
  77.8063172  22.8255116  90.8075614  76.6025228  22.2871518  90.0639715
  78.8152726  16.0958904  82.4517004  77.8809005  16.2160367  82.2821709
  78.9929395  15.1931371  82.1877014  74.3157914   9.4804600  84.6050266
  73.9455702   8.9275641  85.2931171  74.8117007   8.8762734  84.0525266
  82.2025278  11.9376224  82.9867039  82.6685730  12.7704215  82.9127341
  82.6532778  11.4721205  83.6912297  72.1447113  19.9402095  91.7005284
  72.8456572  20.5738578  91.8534678  71.6742228  20.2816827  90.9400923
  80.2701509  18.2820045  79.9853191  80.5461353  18.1676640  80.8947065
  79.4006008  17.8837530  79.9465364  79.9448399  12.4946703  89.5257834
  79.2919849  12.7422610  88.8710287  80.3228779  11.6810841  89.1920311
  76.9055573  22.5306396  83.6286004  77.0877967  21.7128052  84.0913757
  77.7288559  22.7474088  83.1910894  77.2397738  21.4574581  80.8901053
  77.7685505  20.9467035  80.2771215  77.5025958  21.1417111  81.7546586
  75.9935972  13.2366514  96.0123871  75.3176609  13.1360643  96.6826246
  76.8163606  13.0805727  96.4759868  67.7414831  19.4738450  88.6336386
  68.3268268  18.7282138  88.7664290  67.5439670  19.7842407  89.5173050
  70.5953486  22.5089698  83.6498829  69.9263862  22.9935825  83.1662869
  70.4566356  22.7558918  84.5642207  62.3332486  12.0444050  87.3540829
  62.3716585  11.5107641  88.1477948  61.8272779  11.5179256  86.7351807
  74.7358755  24.5433441  90.2481487  75.2877063  24.7065063  91.0130572
  75.0764948  25.1337879  89.5761512  69.7123248   6.8908591  90.8503372
  69.7764575   7.7523422  90.4380769  69.6490368   6.2782593  90.1175730
  69.1875521   8.9631723  94.4976406  69.8147559   8.5808801  95.1113930
  68.3303439   8.7445925  94.8632098  79.5869629  19.3694699  96.1030141
  80.1309533  19.9824657  95.6085096  79.0056474  19.9274277  96.6197154
  65.9641063  10.7708153  80.4294761  66.2594504   9.8618831  80.3761814
  65.0629099  10.7495892  80.1075763  77.8727142  22.4915417  87.2345169
  77.7478282  21.6905156  86.7256115  78.5306233  22.9861610  86.7459139
  69.4935310   8.8464149  86.4122309  68.7721896   9.4600117  86.2729783
  70.2828566   9.3821914  86.3338955  79.9362051  20.2924437  88.8624719
  78.9892386  20.1729788  88.7903046  80.2844824  19.4046935  88.9450981
  72.2961624   6.1818576  92.6862961  72.8196026   6.4280872  93.4489270
  72.0773957   7.0138610  92.2666098  67.6928905   8.4522250  80.5534086
  67.3641611   7.5719629  80.3709192  68.0468276   8.3969919  81.4410475
  76.9408484  20.0877153  85.0629071  76.7933446  19.1593860  85.2436642
  77.7661977  20.1097244  84.5786147  70.8070728   8.7395220  80.9209564
  71.1466801   9.2681141  80.1988172  71.2542849   9.0775626  81.6968130
  80.5442606  20.9105712  86.1493944  81.4689153  20.7048573  86.0118395
  80.3757909  20.6622113  87.0583286  73.5014169   7.1232271  90.3712632
  73.1610989   6.3240084  90.7733312  72.7953175   7.4233982  89.7989465
  74.1530641   4.2081583  88.8239955  74.9756710   3.7342061  88.7018845
  74.3968704   4.9872067  89.3238641  72.7938875   7.2369842  79.1202856
  73.5147238   7.6151094  78.6166573  72.1704179   7.9558718  79.2237834
  76.9369998   7.9414991  80.0561189  77.1533613   8.8239628  79.7550017
  76.4564065   7.5501204  79.3266831  71.6769220  10.9000704  86.6331933
  71.5313800  11.2141007  87.5256215  71.1994423  11.5185604  86.0802832
  73.5365602   7.8903252  86.6812823  73.5227171   6.9944345  86.3445121
  74.2538031   7.8973916  87.3151109  75.3891733   8.3240592  88.7265950
  75.1309511   9.2457663  88.7250281  74.8576774   7.9271027  89.4166414
  80.3337922  21.4291379  81.5056036  80.5074799  20.8637802  80.7529888
  80.8266813  22.2292274  81.3235526  66.1514882  13.4406048  89.5719594
  65.6068350  14.2165856  89.7039869  67.0294232  13.7876853  89.4138716
  72.9402498   6.7717632  81.9500393  73.0618410   5.8434278  82.1491281
  72.6504541   6.7856318  81.0378708  75.8093689   4.4572542  85.0867113
  75.8315386   4.5211876  84.1319092  76.2261748   3.6177051  85.2807619
  86.1877313  14.1927802  83.1246335  86.6308459  13.4435127  82.7265459
  85.3103823  14.1837938  82.7420067  81.3213094  20.7458144  78.6052934
  82.0163999  21.3664836  78.8240249  81.6636245  19.8953495  78.8805312
  66.9380904  12.5675944  92.4649751  66.1962640  12.7158580  93.0514382
  66.6173648  12.8284210  91.6016501  83.2204517  18.1957849  80.1340265
  83.7455842  18.5345122  79.4089585  83.1326870  17.2604864  79.9503399
  74.8824566  22.1091923  92.2630141  75.1911693  21.8641069  93.1352841
  75.6800048  22.3138561  91.7749012  74.9045178  24.2629832  84.4935518
  74.4650169  23.7706211  85.1868375  75.6553295  23.7202800  84.2527593
  67.3837517  20.4541373  84.4960146  68.2095537  20.1545145  84.1158790
  67.0331569  19.6848996  84.9449935  72.3519050  19.8067841  86.5657820
  71.7299060  19.1438546  86.2660047  73.0223917  19.8328973  85.8831467
  65.5846122  18.3727700  85.4549080  64.7478031  17.9449874  85.2733081
  65.5569768  18.5660143  86.3919871  72.4243578   8.2849629  96.1590326
  72.4731733   9.1611752  95.7768095  72.9666092   7.7427022  95.5861969
  82.9098424  18.8290753  95.4391463  82.1193967  18.8114892  94.8995962
  82.6731778  19.3679046  96.1940499  83.0296299  15.6783219  92.7524191
  83.0794304  15.5133226  93.6939714  82.9210222  14.8110478  92.3622072
  71.9132557  18.3571765  80.0416280  72.0620678  19.0407229  79.3882953
  72.7199001  18.3376855  80.5565736  80.3200061  11.6614147  94.0683498
  81.2209924  11.5220612  93.7767496  80.3948036  11.8268602  95.0081675
  74.6542866   9.0381002  92.9136684  73.7846176   9.3314568  92.6419273
  74.8902347   9.6221447  93.6343948  84.5314495  18.0980161  92.9966213
  84.2399304  18.4610141  93.8329674  83.9186627  17.3847169  92.8179545
  85.7310178  15.6633040  85.5168783  86.5657069  16.1022844  85.6806343
  85.8669307  15.1871694  84.6977029  82.7801684  13.2212775  91.4646271
  83.2555805  13.4140422  90.6565122  81.8567249  13.2771961  91.2189654
  69.6685190  14.3836942  81.0477349  69.4231232  13.4799272  81.2457559
  69.8381105  14.3854093  80.1056827  77.3581900   5.2560619  90.4302105
  77.8763844   5.9921646  90.1048593  77.0037033   5.5624612  91.2648864
  68.9380838  10.1165300  78.5463511  68.2450083  10.1909655  77.8903546
  68.6932590   9.3525644  79.0685027  75.4127963  20.8519895  77.5128028
  74.8401930  21.4710082  77.0598499  75.9860757  21.4019257  78.0467950
  81.4803353  10.0978535  89.6974576  82.4320776  10.1976633  89.7186800
  81.3106803   9.3056804  90.2072661  79.5017732   7.1834118  89.8833977
  78.9067664   7.4639131  89.1880466  79.2167429   7.6728019  90.6550718
  78.6325223  21.1357045  78.6436610  79.5655896  21.0702607  78.8469485
  78.5448435  21.9713312  78.1851142  81.2613239  20.4522916  75.6040557
  81.1826871  20.1182779  76.4976315  82.0822906  20.9444684  75.6032030
  83.9591430  13.3184655  88.8116876  83.9267751  12.3800656  88.9976560
  84.5692054  13.3968692  88.0782701  75.7974761  12.1880708  74.8544080
  76.7433866  12.0586916  74.9232498  75.4189006  11.4495370  75.3313508
  84.1085919  10.1095698  88.8575159  83.5924968   9.3254155  88.6705088
  84.9925867   9.7814415  89.0221679  89.7767980  14.3800662  87.9522913
  90.5071369  14.1185950  88.5130616  89.1674926  13.6429384  87.9924981
  87.8583277  12.5208524  88.5497364  87.1316441  12.3864489  87.9413856
  87.4430564  12.8285353  89.3554082  75.6813454  16.2398454  96.3144737
  76.6016463  16.4177053  96.5084784  75.6463037  15.2954499  96.1624436
  73.9817678  10.1130684  74.7898965  73.0749134   9.8163797  74.8661679
  74.2593659   9.8160502  73.9233252  64.8995619  11.4337048  85.2398012
  64.5798403  10.5802356  84.9472386  64.3529047  11.6485626  85.9955979
  68.6775526  14.1499489  88.9567518  68.8961536  15.0816597  88.9755552
  69.0901300  13.7907463  89.7422322  75.5979744   4.6567574  80.9443207
  74.7880473   4.3114659  81.3198453  76.2864161   4.3475118  81.5330818
  73.5503392   9.7232694  98.3470267  73.4500119  10.6727051  98.2782358
  73.3324934   9.3950933  97.4746337  72.7516463   6.9717620  74.9310944
  73.6135627   7.2972518  75.1906762  72.9366807   6.1849115  74.4184010
  64.7683879  15.0539959  87.2091133  64.0747350  14.6393912  86.6961088
  65.5156870  15.0960496  86.6124552  80.9049100   5.8446146  82.0746167
  80.3247769   6.5030950  81.6924220  80.6385032   5.0223491  81.6633585
  79.3552666   5.2451204  84.2767488  79.8552444   5.3567738  83.4681807
  79.9988274   4.9412257  84.9168296  73.4134662  13.1529833  97.1635329
  72.9301743  13.9530193  97.3699218  73.4995601  13.1637778  96.2102773
  66.6820621  14.9858213  85.0857148  66.6591310  15.0845900  84.1339031
  66.9921258  15.8323364  85.4074314  69.3407999  17.0434368  89.2003763
  70.2951253  17.0118310  89.1333694  69.1420523  16.5824992  90.0153988
  69.9307381  15.6135484  91.7674560  70.7500270  16.1079563  91.7909398
  70.2044189  14.6967452  91.7392128  79.6873978   8.0046236  81.1302516
  78.7999833   8.2895887  80.9122710  80.1027967   7.8440000  80.2829793
  83.0388514   8.0292757  84.8456855  83.8148904   8.5189210  85.1181472
  82.3136648   8.4550812  85.3028724  85.4761072   8.7420377  85.9030796
  86.0705563   8.5016113  85.1924104  85.5487656   8.0227507  86.5304332
  67.6958228  22.5853988  86.2173960  67.5612696  21.8254388  85.6511958
  67.2790290  23.3094887  85.7502749  78.8317191  17.7690911  75.2250536
  79.5353041  17.9740914  75.8408191  78.1079840  18.3367673  75.4899619
  79.6615001  13.5200772  81.3452806  79.6050203  13.9769324  80.5060438
  80.2143344  12.7591457  81.1675649  83.4719807   9.3090504  82.1702925
  83.2156741   8.9087140  83.0011133  82.8472675  10.0234298  82.0453065
  87.7832145  12.0486577  84.6774217  87.2231703  12.1179767  85.4505779
  87.1775648  11.8727562  83.9573713  70.8527354  23.4823305  86.4292403
  70.7359738  24.4268737  86.3271093  70.0319800  23.1796866  86.8178202
  80.7403888  18.2073440  77.2748996  81.5749492  17.7754639  77.0926471
  80.5788231  18.0355454  78.2025890  80.3949781  14.7105554  78.6405335
  80.3398584  14.5449825  77.6993779  79.7695836  15.4181586  78.7967525
  65.1842296   9.9473618  92.4666757  65.8301159   9.4372572  92.9553982
  64.9759447  10.6842300  93.0410183  77.7095688  17.0154465  97.9658898
  78.5786847  17.1895118  97.6045533  77.2302439  17.8348882  97.8434627
  73.7045906   4.2113663  78.2190653  73.6924576   5.1555502  78.3758924
  74.5969328   4.0283808  77.9250115  71.8781868  24.1351566  89.6448332
  72.7809115  24.1675177  89.9614826  71.6519238  23.2052017  89.6594667
  73.6335470  22.8882553  86.3058410  72.6831101  22.8884415  86.1922782
  73.9367956  22.1415288  85.7894445  69.5239787   7.0941235  96.5641772
  70.3871248   6.7378040  96.7745096  68.9505197   6.7555130  97.2517176
  89.3688164  28.7243091  87.3704173  90.0066574  28.6049839  86.6667513
  89.2509006  29.6723935  87.4292125  86.1777870  28.6770519  87.3065697
  85.8396381  28.5611584  86.4186232  87.0467638  28.2761685  87.2866703
  82.0364686  30.5305996  83.2962588  81.4729551  30.4395933  82.5278876
  81.9217081  29.7105900  83.7765081  86.6597653  29.8305371  93.2651903
  86.6486294  29.4358169  92.3932406  86.8218292  29.0971444  93.8585674
  79.5829117  32.0257187  86.1346809  80.3750409  31.6848012  85.7193108
  79.8225768  32.1352163  87.0548962  87.6164244  34.1976964  78.6077053
  86.9652224  34.7831044  78.2211067  88.4108607  34.7283159  78.6672091
  81.5419871  31.2866101  79.0064187  82.3150747  30.7395088  78.8677063
  81.8945270  32.1510350  79.2178649  83.3804914  32.6142483  92.2131087
  83.0894780  33.5188114  92.0977753  84.0161898  32.6559011  92.9275156
  84.3061121  29.9919332  88.8032446  84.9024693  29.7675354  88.0889409
  84.3636092  29.2504077  89.4057894  83.8786149  27.4458767  76.6382637
  84.1311670  26.9240288  75.8766100  82.9410708  27.2824912  76.7409321
  88.9229432  26.4494545  84.4457381  89.7092521  26.0313968  84.0947798
  89.1868136  27.3540637  84.6139029  89.0939509  31.8867396  79.1446037
  88.4585342  31.9602022  79.8566942  88.7636916  32.4760994  78.4665117
  94.3237859  26.3869778  85.3490359  95.0563031  25.8168995  85.5828189
  93.5677215  25.9991379  85.7896865  83.5982438  29.3486873  78.8407012
  83.4818696  28.6731776  79.5088097  83.7084698  28.8619247  78.0239165
  85.9413979  28.8097020  82.5453702  85.5772186  28.2827641  83.2566623
  86.7981095  28.4195489  82.3720187  91.8463280  20.0991353  89.8084968
  91.5146604  20.9686764  89.5846183  91.2508893  19.7827637  90.4878998
  85.5819466  23.8386920  77.5415050  85.7493868  24.7067156  77.9085521
  85.3916635  24.0014201  76.6176339  88.3394799  32.3003899  89.2080880
  88.0395522  33.2028937  89.0996688  87.9945859  32.0336082  90.0602033
  81.7907281  28.7517695  85.2417585  80.8657777  28.6193909  85.4495277
  82.0391694  29.5311915  85.7387527  91.7391943  24.8186439  86.8878318
  90.8308820  24.7501847  86.5937079  91.6879539  25.2958384  87.7160143
  85.5608687  26.2944577  78.5261717  85.4408312  26.7401628  79.3647197
  84.8661275  26.6429895  77.9675255  79.1516092  28.3950969  86.0761374
  79.2808473  28.6485448  86.9900786  78.4713543  28.9878677  85.7566029
  83.3215579  39.0648219  82.1751848  83.2439609  40.0156044  82.2540329
  82.7177222  38.7194091  82.8326774  85.8132809  26.2376084  94.8313215
  85.0366143  26.7970004  94.8216080  86.4523372  26.7232867  95.3528085
  93.6053589  23.0202877  88.6656192  92.9627969  23.3135410  88.0195986
  93.1008518  22.9055797  89.4709388  91.2593753  26.7666050  79.3542051
  92.1711609  26.9993437  79.1789748  90.7503400  27.3503095  78.7917130
  84.0679181  29.0461538  94.3931182  84.8093865  29.5846582  94.1166006
  83.3616166  29.6727826  94.5502734  89.5434521  31.1890678  92.9903344
  89.9517877  30.7473089  92.2457976  88.8211782  30.6143306  93.2437536
  85.8965591  26.1263285  90.3636900  86.7426786  26.5502698  90.5071549
  85.8364228  25.4696909  91.0575464  89.8663335  31.7491869  86.7455632
  89.2372198  31.9137583  86.0431700  89.4788997  32.1633478  87.5166596
  93.7452567  32.6846307  84.0999996  93.0603605  33.0645208  83.5497029
  93.8296416  33.2941633  84.8331944  89.0465036  23.7867653  92.0218074
  88.8025968  24.5409714  91.4852350  89.3224966  24.1653001  92.8565321
  91.0003499  30.3306266  90.6995340  91.2120394  30.9738026  90.0229721
  90.9533247  29.4968582  90.2317270  88.6029728  22.9424086  87.6031912
  87.7414207  23.2405340  87.8948649  88.6292162  23.1594485  86.6712944
  85.4191297  31.4866277  84.0105717  85.8829643  31.7653980  83.2210340
  85.1548095  30.5849721  83.8278808  82.3115378  31.0337758  86.9485481
  82.8816735  31.4625027  86.3102965  82.9023490  30.7520343  87.6469666
  84.3560183  27.6089429  80.8195283  85.0584226  28.0610473  81.2869209
  84.0240812  26.9673248  81.4475176  82.8040545  26.2001186  95.1946492
  82.1739205  26.8817467  95.4281889  82.6976633  26.0884267  94.2499630
  78.0985517  25.8672982  86.1212416  77.3084571  26.1230510  85.6452527
  78.5896764  26.6821320  86.2264457  92.1149327  33.2078221  88.8717697
  92.9366770  32.8058408  88.5900379  92.1111730  33.1046455  89.8233813
  80.0500262  26.2317561  83.0795893  79.2531426  26.3436255  83.5979389
  79.8225855  26.5704213  82.2136783  85.8805930  32.7562264  91.0278408
  85.9450363  33.2182672  91.8636579  85.1716854  32.1259629  91.1560717
  76.3823220  26.1203472  88.5527407  76.6331259  27.0050482  88.8184983
  76.9182768  25.9408074  87.7802499 100.2055320  29.5516970  85.2202668
  99.4519028  28.9824368  85.0646673 100.3402861  29.5179634  86.1673303
  85.5953948  34.4230372  80.8957388  85.4599623  35.2681908  81.3242236
  86.1363760  34.6249649  80.1323322  82.0821287  20.5021952  97.5571743
  81.6888233  19.9488150  98.2319387  82.8987428  20.8132530  97.9478261
  79.0483345  31.9405810  81.4685313  79.5607866  32.7349060  81.6190878
  79.7006058  31.2432100  81.4018914  80.8578230  35.0571566  83.5508066
  81.0344858  35.9789531  83.3629050  81.6535063  34.7429985  83.9802446
  84.9989248  21.9179831  95.1492000  85.7398962  22.5186984  95.0696462
  85.2307171  21.1757469  94.5910042  80.1430586  27.1036198  93.4270229
  80.0284102  26.2021455  93.7277328  79.2875104  27.3499895  93.0755046
  87.2222424  35.0453938  95.0257730  86.7786278  34.2590317  94.7078634
  87.8839638  35.2333089  94.3601621  81.9809545  36.5749740  89.5518408
  82.5316970  36.4466803  88.7795402  81.1421021  36.8744629  89.2013301
  89.3203662  35.3256738  93.0539131  89.3022138  36.1465619  92.5619400
  90.2423582  35.2010813  93.2789272  85.7776716  32.8400868  93.8962640
  86.3105053  32.0789156  93.6661948  85.2490797  32.5474520  94.6386794
  88.9446411  17.9460934  89.4256281  88.6010681  18.8362575  89.3495392
  89.3125374  17.7562591  88.5625866  77.0132262  30.2694464  82.2444883
  77.8507484  30.6791473  82.0278591  77.1910530  29.3293906  82.2145077
  88.9096694  27.9369545  77.9328716  88.3943317  28.7074149  78.1717104
  88.6374003  27.2634681  78.5561778  86.4943805  22.7819246  82.9913955
  85.6385401  22.3926096  82.8119593  86.9070757  22.8611206  82.1313740
  88.0242952  20.3165589  87.3905515  87.5207747  20.2795724  86.5773320
  88.3173559  21.2258332  87.4502171  84.2685838  20.4004319  86.3971696
  85.1338834  20.2047127  86.0377586  84.3363347  20.1714670  87.3241053
  93.8830968  30.6901899  79.8681890  93.1060411  30.3513059  79.4237052
  94.5622449  30.6954523  79.1936855  88.6982997  25.8096637  79.7588498
  88.3933133  26.1242786  80.6098641  89.6513439  25.8878057  79.8015831
  87.1429429  31.9686860  81.4081452  86.6150791  31.2339620  81.0954689
  86.6416932  32.7461537  81.1621420  92.1222275  30.1635881  86.5248498
  91.4645950  30.8535142  86.6128627  92.9262674  30.5532313  86.8682484
  81.8748157  22.6306527  83.7688063  82.4491909  22.4081708  83.0361256
  82.4619139  22.6995221  84.5216664  90.9327734  28.5180253  84.5752440
  91.4459616  29.1510245  85.0774149  91.5828958  27.9181449  84.2095800
  82.2017744  24.6610988  77.7883948  81.3655056  24.9985674  78.1093223
  82.0622513  24.5259967  76.8511085  84.1770824  19.5047775  82.4963133
  83.5235237  19.1896793  81.8719747  84.1351299  18.8823516  83.2222955
  85.2882029  29.7867071  74.4116425  84.3809091  29.5556324  74.6107574
  85.7853061  28.9904690  74.5990406  88.1950108  38.4964578  77.3313111
  87.5211807  38.7996274  77.9398069  88.5815930  39.2993658  76.9818568
  87.4108565  25.9929709  86.8210780  86.4931126  26.2144656  86.6632468
  87.8268708  26.0676019  85.9622487  88.1943613  27.3921125  81.9513460
  88.9415431  27.9042522  81.6420582  88.4635202  27.0705177  82.8117854
  86.4670263  29.8879665  78.9340415  85.5581482  29.6038698  79.0312884
  86.4965347  30.3078744  78.0743722  91.6989530  33.4986255  82.7031582
  91.2451857  32.6577165  82.7596773  91.0683497  34.1347653  83.0406362
  90.6422450  24.4278241  83.9332250  89.9045206  23.9155627  84.2642492
  90.8949223  23.9878623  83.1215527  90.1422469  35.3362752  83.6381400
  90.4345444  35.8967809  82.9193766  90.6521090  35.6291313  84.3934560
  90.7434077  17.2054493  84.5274019  91.0492954  16.3451856  84.2399934
  91.4686682  17.7972113  84.3273013  77.0358433  27.6085179  82.9155617
  76.8382833  27.0154540  82.1906683  76.4805097  27.3037390  83.6331556
  85.0155157  27.5008286  85.0350210  85.0703767  26.5482122  84.9592687
  84.2046359  27.6567725  85.5191508  86.1646351  31.4288409  76.2728493
  85.7265780  30.7124268  75.8134131  86.9056791  31.6564524  75.7113585
  82.9547517  26.1185346  82.7940589  82.1415382  26.4179516  83.2005781
  83.4506511  25.7241034  83.5115071  85.1056095  36.1143103  84.7274854
  85.0632273  36.3403949  83.7983386  86.0218793  35.8806477  84.8760655
  88.5521728  26.5827170  91.6255483  88.9071116  26.8098643  92.4849949
  89.1993860  26.9145547  91.0032738  94.2819465  29.7045606  82.3304812
  94.1437364  29.8947202  81.4026001  93.9255684  30.4664989  82.7872863
  82.4461591  23.6903701  88.4101824  83.0860971  23.5492460  87.7124787
  81.6139122  23.4038215  88.0340426  94.3088845  31.7722133  87.3416083
  94.7425352  31.6797422  88.1899137  95.0220426  31.7479634  86.7036099
  83.2221895  32.9906132  84.5236816  84.0162494  32.4956452  84.3219391
  82.5113588  32.4623995  84.1604522  88.0416740  35.3724227  88.8749184
  88.0953762  35.9415164  89.6426900  87.1731521  35.5426112  88.5103221
  79.5304659  27.1349213  80.5996569  78.6002247  27.0733669  80.8166531
  79.6262131  26.6125166  79.8033210  79.4490208  23.6604026  83.1874811
  79.7097025  24.5749359  83.0783971  80.2707380  23.1928469  83.3371423
  80.9215133  25.0741783  90.3573635  81.5938187  24.8659146  89.7086284
  80.0944920  24.8763869  89.9178867  95.1704394  31.8145834  89.8748969
  95.3640285  32.7191644  90.1208244  95.0705013  31.3553253  90.7087554
  86.8240705  21.7003724  92.3739296  86.1768620  22.3993674  92.2803772
  87.5941721  22.1339868  92.7415544  90.2319503  31.9652576  95.4489849
  90.0805010  31.7363128  94.5319933  90.2224183  32.9223178  95.4621194
  87.0004840  29.5384489  90.4336116  87.9296900  29.6895649  90.2605083
  86.5795870  29.6268510  89.5784762  85.7993171  33.5635154  88.2034653
  85.6604257  33.1953938  89.0760592  85.0107768  34.0782793  88.0318611
  86.3941323  38.6644250  79.5460190  86.5693079  38.1932293  80.3605813
  85.7074111  39.2910016  79.7741451  87.3498386  32.9416756  85.5923491
  87.0148219  32.9017526  86.4881141  86.8502332  32.2761472  85.1193901
  81.3242630  28.3484386  91.1176072  81.1862428  27.6164625  91.7187611
  82.2347554  28.2593286  90.8360260  90.2857578  30.2872791  75.8660551
  89.6686749  29.5619619  75.7693604  89.8174067  31.0482151  75.5227625
  83.9524931  28.0604346  90.6059752  84.6624550  27.4197538  90.5646370
  83.9094239  28.3117241  91.5285933  91.9411710  34.9971699  93.5266331
  91.8824256  34.3130919  92.8596914  92.3431228  35.7390689  93.0746957
  82.6653865  25.0469564  92.4255391  82.1291222  24.5960302  93.0776988
  82.0770574  25.1815472  91.6825856  80.9602409  41.8133613  86.3200050
  81.1999007  42.4452137  86.9979069  80.1171605  41.4621653  86.6065409
  82.0756124  24.5058215  74.9881855  81.1985590  24.3847016  74.6244102
  82.5513877  23.7144293  74.7360744  91.9429117  32.9611283  91.7580311
  91.0555896  32.6237205  91.8806710  92.5127668  32.2294314  91.9949076
  73.5958264  29.2935375  85.0823362  74.2829304  28.9797105  84.4944378
  73.4406393  30.1976739  84.8090614  78.3992986  24.1825571  89.5108386
  78.3151175  23.5751241  88.7758796  77.5775693  24.6734590  89.5117882
  85.4730270  37.6212735  88.7241554  85.4000442  38.4267707  89.2360859
  85.0307664  37.8204701  87.8989575  85.2620050  36.8584505  82.2344376
  84.4787572  37.4006186  82.3282600  85.9612795  37.3758485  82.6338617
  88.5716700  22.6679135  84.8778581  89.0685400  21.9149097  84.5579651
  87.8003682  22.7043451  84.3121790  96.4246458  28.3719500  86.5196873
  96.4136334  29.2544216  86.1490806  95.5563837  28.0191051  86.3251410
  87.9328954  37.5199569  90.8799713  88.6456926  38.1547034  90.8075614
  87.4418983  37.6163435  90.0639715  89.6546481  31.4250822  82.4517004
  88.7202760  31.5452284  82.2821709  89.8323149  30.5223289  82.1877014
  85.1551669  24.8096518  84.6050266  84.7849456  24.2567558  85.2931171
  85.6510761  24.2054651  84.0525266  93.0419032  27.2668141  82.9867039
  93.5079484  28.0996133  82.9127341  93.4926533  26.8013123  83.6912297
  82.9840867  35.2694013  91.7005284  83.6850327  35.9030496  91.8534678
  82.5135982  35.6108744  90.9400923  91.1095263  33.6111963  79.9853191
  91.3855107  33.4968557  80.8947065  90.2399762  33.2129447  79.9465364
  91.0135695  19.6348728  87.0257940  90.0998775  19.8652955  87.1940147
  91.4428796  19.7187172  87.8771972  90.7842153  27.8238620  89.5257834
  90.1313604  28.0714528  88.8710287  91.1622533  27.0102758  89.1920311
  87.7449327  37.8598313  83.6286004  87.9271722  37.0419969  84.0913757
  88.5682313  38.0766006  83.1910894  88.0791493  36.7866499  80.8901053
  88.6079259  36.2758953  80.2771215  88.3419712  36.4709029  81.7546586
  86.8329726  28.5658431  96.0123871  86.1570364  28.4652561  96.6826246
  87.6557360  28.4097645  96.4759868  78.5808586  34.8030368  88.6336386
  79.1662022  34.0574056  88.7664290  78.3833424  35.1134325  89.5173050
  81.4347241  37.8381615  83.6498829  80.7657616  38.3227743  83.1662869
  81.2960110  38.0850836  84.5642207  73.1726240  27.3735968  87.3540829
  73.2110340  26.8399559  88.1477948  72.6666533  26.8471174  86.7351807
  85.5752509  39.8725359  90.2481487  86.1270817  40.0356980  91.0130572
  85.9158703  40.4629797  89.5761512  80.5517003  22.2200509  90.8503372
  80.6158329  23.0815339  90.4380769  80.4884123  21.6074510  90.1175730
  80.0269275  24.2923641  94.4976406  80.6541314  23.9100718  95.1113930
  79.1697194  24.0737843  94.8632098  90.4263384  34.6986616  96.1030141
  90.9703288  35.3116575  95.6085096  89.8450229  35.2566195  96.6197154
  76.8034818  26.1000070  80.4294761  77.0988259  25.1910749  80.3761814
  75.9022854  26.0787810  80.1075763  88.7120897  37.8207334  87.2345169
  88.5872036  37.0197074  86.7256115  89.3699988  38.3153528  86.7459139
  80.3329065  24.1756067  86.4122309  79.6115651  24.7892035  86.2729783
  81.1222321  24.7113832  86.3338955  90.7755805  35.6216354  88.8624719
  89.8286141  35.5021706  88.7903046  91.1238578  34.7338852  88.9450981
  83.1355378  21.5110493  92.6862961  83.6589780  21.7572790  93.4489270
  82.9167712  22.3430528  92.2666098  78.5322659  23.7814168  80.5534086
  78.2035366  22.9011547  80.3709192  78.8862030  23.7261837  81.4410475
  87.7802238  35.4169071  85.0629071  87.6327201  34.4885778  85.2436642
  88.6055732  35.4389161  84.5786147  81.6464483  24.0687138  80.9209564
  81.9860555  24.5973059  80.1988172  82.0936603  24.4067544  81.6968130
  91.3836360  36.2397629  86.1493944  92.3082908  36.0340491  86.0118395
  91.2151664  35.9914030  87.0583286  84.3407923  22.4524188  90.3712632
  84.0004744  21.6532001  90.7733312  83.6346930  22.7525899  89.7989465
  84.9924395  19.5373501  88.8239955  85.8150465  19.0633979  88.7018845
  85.2362459  20.3163985  89.3238641  83.6332630  22.5661759  79.1202856
  84.3540992  22.9443012  78.6166573  83.0097934  23.2850636  79.2237834
  87.7763753  23.2706908  80.0561189  87.9927367  24.1531546  79.7550017
  87.2957820  22.8793122  79.3266831  82.5162974  26.2292621  86.6331933
  82.3707555  26.5432925  87.5256215  82.0388178  26.8477522  86.0802832
  84.3759357  23.2195169  86.6812823  84.3620926  22.3236263  86.3445121
  85.0931785  23.2265833  87.3151109  86.2285488  23.6532510  88.7265950
  85.9703265  24.5749580  88.7250281  85.6970528  23.2562944  89.4166414
  91.1731676  36.7583297  81.5056036  91.3468554  36.1929719  80.7529888
  91.6660568  37.5584192  81.3235526  76.9908636  28.7697966  89.5719594
  76.4462104  29.5457774  89.7039869  77.8687986  29.1168770  89.4138716
  83.7796253  22.1009550  81.9500393  83.9012164  21.1726196  82.1491281
  83.4898295  22.1148236  81.0378708  86.6487443  19.7864460  85.0867113
  86.6709140  19.8503793  84.1319092  87.0655502  18.9468969  85.2807619
  97.0271068  29.5219720  83.1246335  97.4702214  28.7727045  82.7265459
  96.1497578  29.5129856  82.7420067  92.1606849  36.0750061  78.6052934
  92.8557753  36.6956754  78.8240249  92.5029999  35.2245412  78.8805312
  77.7774658  27.8967862  92.4649751  77.0356394  28.0450497  93.0514382
  77.4567402  28.1576128  91.6016501  94.0598272  33.5249767  80.1340265
  94.5849596  33.8637039  79.4089585  93.9720625  32.5896782  79.9503399
  85.7218321  37.4383840  92.2630141  86.0305447  37.1932987  93.1352841
  86.5193803  37.6430479  91.7749012  85.7438933  39.5921750  84.4935518
  85.3043923  39.0998129  85.1868375  86.4947050  39.0494718  84.2527593
  78.2231272  35.7833291  84.4960146  79.0489292  35.4837063  84.1158790
  77.8725324  35.0140913  84.9449935  83.1912805  35.1359759  86.5657820
  82.5692814  34.4730464  86.2660047  83.8617672  35.1620891  85.8831467
  76.4239877  33.7019617  85.4549080  75.5871785  33.2741792  85.2733081
  76.3963522  33.8952061  86.3919871  83.2637332  23.6141547  96.1590326
  83.3125488  24.4903670  95.7768095  83.8059847  23.0718940  95.5861969
  93.7492178  34.1582670  95.4391463  92.9587722  34.1406809  94.8995962
  93.5125533  34.6970964  96.1940499  93.8690053  31.0075137  92.7524191
  93.9188058  30.8425144  93.6939714  93.7603976  30.1402396  92.3622072
  82.7526312  33.6863682  80.0416280  82.9014432  34.3699147  79.3882953
  83.5592755  33.6668772  80.5565736  91.1593815  26.9906065  94.0683498
  92.0603678  26.8512530  93.7767496  91.2341790  27.1560520  95.0081675
  85.4936621  24.3672920  92.9136684  84.6239930  24.6606486  92.6419273
  85.7296101  24.9513365  93.6343948  95.3708250  33.4272078  92.9966213
  95.0793058  33.7902059  93.8329674  94.7580381  32.7139087  92.8179545
  96.5703932  30.9924958  85.5168783  97.4050824  31.4314762  85.6806343
  96.7063061  30.5163611  84.6977029  93.6195438  28.5504693  91.4646271
  94.0949560  28.7432339  90.6565122  92.6961004  28.6063879  91.2189654
  80.5078945  29.7128860  81.0477349  80.2624987  28.8091190  81.2457559
  80.6774859  29.7146011  80.1056827  88.1975655  20.5852536  90.4302105
  88.7157599  21.3213563  90.1048593  87.8430787  20.8916530  91.2648864
  79.7774592  25.4457218  78.5463511  79.0843837  25.5201573  77.8903546
  79.5326344  24.6817561  79.0685027  88.4488249  17.0052819  85.9503001
  88.7290003  16.3376008  86.5763428  89.2338856  17.1981915  85.4377665
  86.2521717  36.1811813  77.5128028  85.6795684  36.8002000  77.0598499
  86.8254511  36.7311175  78.0467950  92.3197107  25.4270453  89.6974576
  93.2714530  25.5268551  89.7186800  92.1500558  24.6348722  90.2072661
  90.3411487  22.5126036  89.8833977  89.7461419  22.7931049  89.1880466
  90.0561183  23.0019937  90.6550718  89.4718977  36.4648963  78.6436610
  90.4049650  36.3994525  78.8469485  89.3842190  37.3005230  78.1851142
  92.1006994  35.7814833  75.6040557  92.0220625  35.4474697  76.4976315
  92.9216661  36.2736601  75.6032030  94.7985185  28.6476573  88.8116876
  94.7661505  27.7092573  88.9976560  95.4085809  28.7260609  88.0782701
  86.6368516  27.5172626  74.8544080  87.5827621  27.3878834  74.9232498
  86.2582761  26.7787288  75.3313508  94.9479673  25.4387616  88.8575159
  94.4318722  24.6546073  88.6705088  95.8319622  25.1106333  89.0221679
  92.6090400  19.1828632  84.8170972  92.4115221  18.8743720  85.7014304
  93.2190106  19.9090271  84.9468902 100.6161735  29.7092579  87.9522913
 101.3465123  29.4477868  88.5130616 100.0068680  28.9721301  87.9924981
  98.6977032  27.8500442  88.5497364  97.9710196  27.7156407  87.9413856
  98.2824319  28.1577271  89.3554082  86.5207208  31.5690372  96.3144737
  87.4410218  31.7468971  96.5084784  86.4856791  30.6246417  96.1624436
  84.8211433  25.4422602  74.7898965  83.9142888  25.1455715  74.8661679
  85.0987414  25.1452420  73.9233252  75.7389373  26.7628965  85.2398012
  75.4192158  25.9094274  84.9472386  75.1922802  26.9777544  85.9955979
  79.5169281  29.4791406  88.9567518  79.7355291  30.4108514  88.9755552
  79.9295055  29.1199381  89.7422322  86.4373499  19.9859492  80.9443207
  85.6274227  19.6406577  81.3198453  87.1257916  19.6767035  81.5330818
  88.3664047  19.0637539  82.5667503  88.9195086  19.4832992  83.2257526
  88.6034133  18.1373287  82.6090459  84.3897146  25.0524612  98.3470267
  84.2893873  26.0018969  98.2782358  84.1718688  24.7242851  97.4746337
  83.5910218  22.3009537  74.9310944  84.4529382  22.6264436  75.1906762
  83.7760562  21.5141033  74.4184010  75.6077633  30.3831877  87.2091133
  74.9141105  29.9685830  86.6961088  76.3550624  30.4252413  86.6124552
  91.7442854  21.1738064  82.0746167  91.1641523  21.8322868  81.6924220
  91.4778787  20.3515408  81.6633585  90.1946420  20.5743121  84.2767488
  90.6946199  20.6859656  83.4681807  90.8382028  20.2704174  84.9168296
  84.2528416  28.4821751  97.1635329  83.7695498  29.2822111  97.3699218
  84.3389355  28.4929696  96.2102773  77.5214376  30.3150131  85.0857148
  77.4985064  30.4137818  84.1339031  77.8315012  31.1615281  85.4074314
  80.1801754  32.3726286  89.2003763  81.1345007  32.3410228  89.1333694
  79.9814277  31.9116909  90.0153988  80.7701136  30.9427402  91.7674560
  81.5894025  31.4371480  91.7909398  81.0437944  30.0259370  91.7392128
  90.5267732  23.3338154  81.1302516  89.6393587  23.6187805  80.9122710
  90.9421721  23.1731917  80.2829793  93.8782268  23.3584675  84.8456855
  94.6542658  23.8481128  85.1181472  93.1530402  23.7842729  85.3028724
  96.3154827  24.0712294  85.9030796  96.9099318  23.8308030  85.1924104
  96.3881411  23.3519425  86.5304332  78.5351983  37.9145905  86.2173960
  78.4006450  37.1546306  85.6511958  78.1184045  38.6386805  85.7502749
  89.6710946  33.0982829  75.2250536  90.3746796  33.3032831  75.8408191
  88.9473594  33.6659591  75.4899619  90.5008756  28.8492690  81.3452806
  90.4443957  29.3061241  80.5060438  91.0537098  28.0883375  81.1675649
  94.3113562  24.6382422  82.1702925  94.0550496  24.2379058  83.0011133
  93.6866430  25.3526216  82.0453065  98.6225900  27.3778495  84.6774217
  98.0625458  27.4471684  85.4505779  98.0169403  27.2019480  83.9573713
  81.6921108  38.8115222  86.4292403  81.5753493  39.7560655  86.3271093
  80.8713555  38.5088784  86.8178202  91.5797643  33.5365358  77.2748996
  92.4143247  33.1046556  77.0926471  91.4181986  33.3647372  78.2025890
  91.2343535  30.0397471  78.6405335  91.1792339  29.8741743  77.6993779
  90.6089590  30.7473504  78.7967525  76.0236050  25.2765536  92.4666757
  76.6694914  24.7664490  92.9553982  75.8153201  26.0134217  93.0410183
  88.5489442  32.3446383  97.9658898  89.4180602  32.5187035  97.6045533
  88.0696194  33.1640800  97.8434627  84.5439661  19.5405580  78.2190653
  84.5318330  20.4847420  78.3758924  85.4363082  19.3575726  77.9250115
  82.7175623  39.4643484  89.6448332  83.6202869  39.4967094  89.9614826
  82.4912993  38.5343935  89.6594667  84.4729225  38.2174471  86.3058410
  83.5224856  38.2176332  86.1922782  84.7761711  37.4707205  85.7894445
  88.3591780  16.1348357  82.4736590  87.5924176  15.5806844  82.6193273
  88.7702485  16.2070226  83.3350742  80.3633541  22.4233153  96.5641772
  81.2265003  22.0669958  96.7745096  79.7898952  22.0847048  97.2517176
 100.2081918  44.0535009  87.3704173 100.8460328  43.9341756  86.6667513
 100.0902761  45.0015853  87.4292125  97.0171624  44.0062437  87.3065697
  96.6790136  43.8903502  86.4186232  97.8861393  43.6053602  87.2866703
  92.8758440  45.8597914  83.2962588  92.3123305  45.7687851  82.5278876
  92.7610835  45.0397818  83.7765081  97.4991407  45.1597289  93.2651903
  97.4880048  44.7650087  92.3932406  97.6612047  44.4263362  93.8585674
  90.4222872  47.3549105  86.1346809  91.2144164  47.0139930  85.7193108
  90.6619522  47.4644080  87.0548962  98.4557999  49.5268881  78.6077053
  97.8045979  50.1122962  78.2211067  99.2502362  50.0575076  78.6672091
  92.3813626  46.6158018  79.0064187  93.1544502  46.0687006  78.8677063
  92.7339025  47.4802268  79.2178649  94.2198668  47.9434401  92.2131087
  93.9288534  48.8480032  92.0977753  94.8555653  47.9850928  92.9275156
  95.1454875  45.3211249  88.8032446  95.7418448  45.0967272  88.0889409
  95.2029847  44.5795995  89.4057894  94.7179904  42.7750685  76.6382637
  94.9705424  42.2532206  75.8766100  93.7804463  42.6116830  76.7409321
  99.7623187  41.7786463  84.4457381 100.5486276  41.3605886  84.0947798
 100.0261891  42.6832555  84.6139029  99.9333264  47.2159313  79.1446037
  99.2979097  47.2893940  79.8566942  99.6030670  47.8052912  78.4665117
 105.1631614  41.7161696  85.3490359 105.8956786  41.1460913  85.5828189
 104.4070969  41.3283297  85.7896865  94.4376192  44.6778791  78.8407012
  94.3212451  44.0023694  79.5088097  94.5478452  44.1911164  78.0239165
  96.7807733  44.1388938  82.5453702  96.4165941  43.6119559  83.2566623
  97.6374849  43.7487407  82.3720187 102.6857034  35.4283270  89.8084968
 102.3540359  36.2978681  89.5846183 102.0902647  35.1119554  90.4878998
  96.4213220  39.1678837  77.5415050  96.5887623  40.0359074  77.9085521
  96.2310389  39.3306119  76.6176339  99.1788554  47.6295816  89.2080880
  98.8789277  48.5320855  89.0996688  98.8339613  47.3627999  90.0602033
  92.6301035  44.0809613  85.2417585  91.7051532  43.9485827  85.4495277
  92.8785448  44.8603832  85.7387527 102.5785697  40.1478356  86.8878318
 101.6702575  40.0793765  86.5937079 102.5273293  40.6250301  87.7160143
  96.4002441  41.6236495  78.5261717  96.2802066  42.0693546  79.3647197
  95.7055030  41.9721812  77.9675255  89.9909846  43.7242887  86.0761374
  90.1202227  43.9777366  86.9900786  89.3107297  44.3170595  85.7566029
  94.1609333  54.3940137  82.1751848  94.0833363  55.3447962  82.2540329
  93.5570977  54.0486009  82.8326774  96.6526563  41.5668002  94.8313215
  95.8759897  42.1261922  94.8216080  97.2917126  42.0524785  95.3528085
 104.4447344  38.3494795  88.6656192 103.8021724  38.6427328  88.0195986
 103.9402272  38.2347715  89.4709388 102.0987507  42.0957968  79.3542051
 103.0105364  42.3285355  79.1789748 101.5897154  42.6795012  78.7917130
  94.9072935  44.3753455  94.3931182  95.6487620  44.9138499  94.1166006
  94.2009921  45.0019744  94.5502734 100.3828275  46.5182596  92.9903344
 100.7911631  46.0765006  92.2457976  99.6605537  45.9435223  93.2437536
  96.7359345  41.4555203  90.3636900  97.5820540  41.8794616  90.5071549
  96.6757983  40.7988827  91.0575464 100.7057090  47.0783786  86.7455632
 100.0765952  47.2429501  86.0431700 100.3182752  47.4925396  87.5166596
 104.5846322  48.0138224  84.0999996 103.8997360  48.3937126  83.5497029
 104.6690171  48.6233551  84.8331944  99.8858790  39.1159571  92.0218074
  99.6419722  39.8701631  91.4852350 100.1618721  39.4944919  92.8565321
 101.8397253  45.6598183  90.6995340 102.0514148  46.3029943  90.0229721
 101.7927001  44.8260500  90.2317270  99.4423482  38.2716004  87.6031912
  98.5807961  38.5697258  87.8948649  99.4685917  38.4886403  86.6712944
  96.2585052  46.8158195  84.0105717  96.7223397  47.0945898  83.2210340
  95.9941850  45.9141639  83.8278808  93.1509133  46.3629676  86.9485481
  93.7210490  46.7916944  86.3102965  93.7417244  46.0812261  87.6469666
  95.1953938  42.9381347  80.8195283  95.8977981  43.3902391  81.2869209
  94.8634566  42.2965166  81.4475176  93.6434299  41.5293104  95.1946492
  93.0132960  42.2109384  95.4281889  93.5370387  41.4176185  94.2499630
  88.9379272  41.1964900  86.1212416  88.1478326  41.4522428  85.6452527
  89.4290519  42.0113237  86.2264457 102.9543081  48.5370139  88.8717697
 103.7760525  48.1350326  88.5900379 102.9505484  48.4338373  89.8233813
  90.8894017  41.5609479  83.0795893  90.0925180  41.6728173  83.5979389
  90.6619609  41.8996131  82.2136783  96.7199685  48.0854182  91.0278408
  96.7844117  48.5474589  91.8636579  96.0110608  47.4551547  91.1560717
  87.2216975  41.4495390  88.5527407  87.4725013  42.3342400  88.8184983
  87.7576523  41.2699992  87.7802499 111.0449074  44.8808887  85.2202668
 110.2912783  44.3116285  85.0646673 111.1796615  44.8471552  86.1673303
  96.4347702  49.7522290  80.8957388  96.2993377  50.5973825  81.3242236
  96.9757515  49.9541567  80.1323322  92.9215042  35.8313869  97.5571743
  92.5281987  35.2780068  98.2319387  93.7381182  36.1424448  97.9478261
  89.8877100  47.2697728  81.4685313  90.4001620  48.0640978  81.6190878
  90.5399812  46.5724018  81.4018914  91.6971984  50.3863484  83.5508066
  91.8738613  51.3081449  83.3629050  92.4928818  50.0721903  83.9802446
  95.8383003  37.2471748  95.1492000  96.5792716  37.8478902  95.0696462
  96.0700926  36.5049386  94.5910042  90.9824341  42.4328116  93.4270229
  90.8677856  41.5313373  93.7277328  90.1268859  42.6791812  93.0755046
  98.0616179  50.3745856  95.0257730  97.6180033  49.5882235  94.7078634
  98.7233392  50.5625007  94.3601621 100.1597417  50.6548656  93.0539131
 100.1415892  51.4757537  92.5619400 101.0817337  50.5302731  93.2789272
  96.6170471  48.1692785  93.8962640  97.1498808  47.4081074  93.6661948
  96.0884552  47.8766437  94.6386794  99.7840166  33.2752851  89.4256281
  99.4404435  34.1654493  89.3495392 100.1519128  33.0854509  88.5625866
  87.8526016  45.5986382  82.2444883  88.6901238  46.0083390  82.0278591
  88.0304284  44.6585824  82.2145077  99.7490449  43.2661462  77.9328716
  99.2337072  44.0366067  78.1717104  99.4767757  42.5926599  78.5561778
  97.3337560  38.1111163  82.9913955  96.4779156  37.7218014  82.8119593
  97.7464511  38.1903124  82.1313740  98.8636706  35.6457507  87.3905515
  98.3601502  35.6087642  86.5773320  99.1567313  36.5550249  87.4502171
  95.1079592  35.7296236  86.3971696  95.9732589  35.5339045  86.0377586
  95.1757101  35.5006588  87.3241053 104.7224723  46.0193817  79.8681890
 103.9454165  45.6804977  79.4237052 105.4016204  46.0246440  79.1936855
  99.5376752  41.1388555  79.7588498  99.2326887  41.4534704  80.6098641
 100.4907194  41.2169974  79.8015831  97.9823184  47.2978778  81.4081452
  97.4544545  46.5631537  81.0954689  97.4810686  48.0753454  81.1621420
 102.9616030  45.4927798  86.5248498 102.3039704  46.1827060  86.6128627
 103.7656429  45.8824230  86.8682484  92.7141911  37.9598444  83.7688063
  93.2885663  37.7373626  83.0361256  93.3012894  38.0287139  84.5216664
 101.7721488  43.8472171  84.5752440 102.2853370  44.4802163  85.0774149
 102.4222712  43.2473367  84.2095800  93.0411498  39.9902905  77.7883948
  92.2048811  40.3277592  78.1093223  92.9016268  39.8551885  76.8511085
  95.0164579  34.8339693  82.4963133  94.3628991  34.5188710  81.8719747
  94.9745053  34.2115434  83.2222955  96.1275784  45.1158988  74.4116425
  95.2202845  44.8848242  74.6107574  96.6246816  44.3196607  74.5990406
  99.0343863  53.8256495  77.3313111  98.3605561  54.1288192  77.9398069
  99.4209685  54.6285576  76.9818568  98.2502319  41.3221627  86.8210780
  97.3324881  41.5436574  86.6632468  98.6662463  41.3967937  85.9622487
  99.0337367  42.7213042  81.9513460  99.7809186  43.2334440  81.6420582
  99.3028957  42.3997095  82.8117854  97.3064017  45.2171583  78.9340415
  96.3975236  44.9330616  79.0312884  97.3359101  45.6370662  78.0743722
 102.5383285  48.8278173  82.7031582 102.0845612  47.9869082  82.7596773
 101.9077251  49.4639571  83.0406362 101.4816204  39.7570159  83.9332250
 100.7438961  39.2447545  84.2642492 101.7342978  39.3170540  83.1215527
 100.9816224  50.6654669  83.6381400 101.2739198  51.2259726  82.9193766
 101.4914844  50.9583230  84.3934560 101.5827831  32.5346411  84.5274019
 101.8886708  31.6743774  84.2399934 102.3080436  33.1264031  84.3273013
  87.8752188  42.9377097  82.9155617  87.6776587  42.3446458  82.1906683
  87.3198852  42.6329307  83.6331556  95.8548911  42.8300204  85.0350210
  95.9097521  41.8774040  84.9592687  95.0440113  42.9859643  85.5191508
  97.0040105  46.7580327  76.2728493  96.5659535  46.0416186  75.8134131
  97.7450546  46.9856442  75.7113585  93.7941271  41.4477263  82.7940589
  92.9809137  41.7471434  83.2005781  94.2900265  41.0532952  83.5115071
  95.9449849  51.4435020  84.7274854  95.9026028  51.6695867  83.7983386
  96.8612548  51.2098395  84.8760655  99.3915483  41.9119088  91.6255483
  99.7464871  42.1390561  92.4849949 100.0387614  42.2437465  91.0032738
 105.1213220  45.0337524  82.3304812 104.9831118  45.2239120  81.4026001
 104.7649439  45.7956907  82.7872863  93.2855346  39.0195619  88.4101824
  93.9254725  38.8784378  87.7124787  92.4532876  38.7330132  88.0340426
 105.1482599  47.1014051  87.3416083 105.5819106  47.0089340  88.1899137
 105.8614180  47.0771551  86.7036099  94.0615650  48.3198049  84.5236816
  94.8556248  47.8248369  84.3219391  93.3507342  47.7915912  84.1604522
  98.8810494  50.7016145  88.8749184  98.9347517  51.2707081  89.6426900
  98.0125276  50.8718030  88.5103221  90.3698413  42.4641131  80.5996569
  89.4396001  42.4025587  80.8166531  90.4655885  41.9417084  79.8033210
  90.2883962  38.9895944  83.1874811  90.5490780  39.9041277  83.0783971
  91.1101135  38.5220386  83.3371423  91.7608888  40.4033701  90.3573635
  92.4331941  40.1951063  89.7086284  90.9338674  40.2055787  89.9178867
 106.0098149  47.1437751  89.8748969 106.2034039  48.0483562  90.1208244
 105.9098767  46.6845170  90.7087554  97.6634460  37.0295642  92.3739296
  97.0162375  37.7285592  92.2803772  98.4335475  37.4631786  92.7415544
 101.0713258  47.2944494  95.4489849 100.9198764  47.0655046  94.5319933
 101.0617937  48.2515096  95.4621194  97.8398594  44.8676407  90.4336116
  98.7690654  45.0187567  90.2605083  97.4189624  44.9560428  89.5784762
  96.6386926  48.8927071  88.2034653  96.4998012  48.5245856  89.0760592
  95.8501522  49.4074711  88.0318611  97.2335078  53.9936168  79.5460190
  97.4086833  53.5224211  80.3605813  96.5467866  54.6201934  79.7741451
  98.1892141  48.2708674  85.5923491  97.8541974  48.2309444  86.4881141
  97.6896087  47.6053390  85.1193901  92.1636385  43.6776304  91.1176072
  92.0256183  42.9456543  91.7187611  93.0741308  43.5885204  90.8360260
 101.1251333  45.6164708  75.8660551 100.5080503  44.8911537  75.7693604
 100.6567821  46.3774069  75.5227625  94.7918686  43.3896263  90.6059752
  95.5018304  42.7489456  90.5646370  94.7487994  43.6409158  91.5285933
 102.7805464  50.3263617  93.5266331 102.7218010  49.6422837  92.8596914
 103.1824983  51.0682607  93.0746957  93.5047620  40.3761481  92.4255391
  92.9684977  39.9252220  93.0776988  92.9164328  40.5107390  91.6825856
  92.9149879  39.8350133  74.9881855  92.0379345  39.7138933  74.6244102
  93.3907632  39.0436211  74.7360744 102.7822872  48.2903201  91.7580311
 101.8949650  47.9529122  91.8806710 103.3521423  47.5586232  91.9949076
  84.4352019  44.6227292  85.0823362  85.1223058  44.3089022  84.4944378
  84.2800147  45.5268657  84.8090614  89.2386741  39.5117489  89.5108386
  89.1544930  38.9043159  88.7758796  88.4169447  40.0026507  89.5117882
  96.1013805  52.1876423  82.2344376  95.3181326  52.7298103  82.3282600
  96.8006550  52.7050403  82.6338617  99.4110455  37.9971052  84.8778581
  99.9079154  37.2441015  84.5579651  98.6397436  38.0335369  84.3121790
 107.2640212  43.7011418  86.5196873 107.2530088  44.5836133  86.1490806
 106.3957592  43.3482969  86.3251410  98.7722708  52.8491487  90.8799713
  99.4850681  53.4838952  90.8075614  98.2812737  52.9455353  90.0639715
 100.4940235  46.7542740  82.4517004  99.5596514  46.8744202  82.2821709
 100.6716904  45.8515206  82.1877014  95.9945423  40.1388435  84.6050266
  95.6243211  39.5859476  85.2931171  96.4904516  39.5346569  84.0525266
 103.8812787  42.5960059  82.9867039 104.3473239  43.4288051  82.9127341
 104.3320287  42.1305041  83.6912297  93.8234622  50.5985930  91.7005284
  94.5244081  51.2322413  91.8534678  93.3529737  50.9400662  90.9400923
 101.9489018  48.9403880  79.9853191 102.2248862  48.8260475  80.8947065
 101.0793517  48.5421365  79.9465364 101.8529449  34.9640646  87.0257940
 100.9392529  35.1944873  87.1940147 102.2822551  35.0479090  87.8771972
 101.6235908  43.1530538  89.5257834 100.9707358  43.4006445  88.8710287
 102.0016288  42.3394676  89.1920311  98.5843082  53.1890231  83.6286004
  98.7665476  52.3711887  84.0913757  99.4076068  53.4057923  83.1910894
  98.9185247  52.1158416  80.8901053  99.4473014  51.6050871  80.2771215
  99.1813467  51.8000946  81.7546586  97.6723481  43.8950349  96.0123871
  96.9964118  43.7944478  96.6826246  98.4951115  43.7389563  96.4759868
  89.4202340  50.1322286  88.6336386  90.0055777  49.3865973  88.7664290
  89.2227179  50.4426242  89.5173050  84.0119995  42.7027886  87.3540829
  84.0504094  42.1691476  88.1477948  83.5060288  42.1763091  86.7351807
  91.3910757  37.5492426  90.8503372  91.4552084  38.4107257  90.4380769
  91.3277877  36.9366428  90.1175730  90.8663030  39.6215559  94.4976406
  91.4935068  39.2392636  95.1113930  90.0090948  39.4029761  94.8632098
 101.2657138  50.0278534  96.1030141 101.8097042  50.6408492  95.6085096
 100.6843983  50.5858112  96.6197154  87.6428572  41.4291988  80.4294761
  87.9382013  40.5202666  80.3761814  86.7416608  41.4079727  80.1075763
  99.5514651  53.1499252  87.2345169  99.4265791  52.3488992  86.7256115
 100.2093742  53.6445445  86.7459139  91.1722819  39.5047984  86.4122309
  90.4509405  40.1183952  86.2729783  91.9616075  40.0405749  86.3338955
 101.6149560  50.9508272  88.8624719 100.6679895  50.8313623  88.7903046
 101.9632333  50.0630770  88.9450981  93.9749133  36.8402411  92.6862961
  94.4983535  37.0864708  93.4489270  93.7561466  37.6722446  92.2666098
  89.3716414  39.1106086  80.5534086  89.0429120  38.2303464  80.3709192
  89.7255785  39.0553754  81.4410475  98.6195993  50.7460988  85.0629071
  98.4720955  49.8177696  85.2436642  99.4449486  50.7681079  84.5786147
  92.4858237  39.3979055  80.9209564  92.8254310  39.9264977  80.1988172
  92.9330358  39.7359461  81.6968130 102.2230115  51.5689547  86.1493944
 103.1476662  51.3632408  86.0118395 102.0545418  51.3205948  87.0583286
  95.1801678  37.7816106  90.3712632  94.8398498  36.9823919  90.7733312
  94.4740684  38.0817817  89.7989465  95.8318150  34.8665418  88.8239955
  96.6544219  34.3925897  88.7018845  96.0756213  35.6455902  89.3238641
  94.4726384  37.8953677  79.1202856  95.1934747  38.2734930  78.6166573
  93.8491688  38.6142554  79.2237834  98.6157507  38.5998826  80.0561189
  98.8321122  39.4823464  79.7550017  98.1351574  38.2085039  79.3266831
  93.3556729  41.5584539  86.6331933  93.2101309  41.8724842  87.5256215
  92.8781932  42.1769439  86.0802832  95.2153111  38.5487087  86.6812823
  95.2014680  37.6528180  86.3445121  95.9325540  38.5557751  87.3151109
  97.0679242  38.9824427  88.7265950  96.8097020  39.9041498  88.7250281
  96.5364282  38.5854862  89.4166414 102.0125431  52.0875214  81.5056036
 102.1862308  51.5221637  80.7529888 102.5054322  52.8876109  81.3235526
  87.8302391  44.0989884  89.5719594  87.2855859  44.8749692  89.7039869
  88.7081741  44.4460688  89.4138716  94.6190007  37.4301467  81.9500393
  94.7405919  36.5018114  82.1491281  94.3292050  37.4440153  81.0378708
  97.4881198  35.1156378  85.0867113  97.5102895  35.1795711  84.1319092
  97.9049257  34.2760886  85.2807619 107.8664822  44.8511637  83.1246335
 108.3095968  44.1018963  82.7265459 106.9891332  44.8421774  82.7420067
 103.0000603  51.4041979  78.6052934 103.6951508  52.0248672  78.8240249
 103.3423753  50.5537330  78.8805312  88.6168413  43.2259780  92.4649751
  87.8750149  43.3742415  93.0514382  88.2961157  43.4868045  91.6016501
 104.8992026  48.8541684  80.1340265 105.4243351  49.1928957  79.4089585
 104.8114379  47.9188700  79.9503399  96.5612075  52.7675758  92.2630141
  96.8699202  52.5224905  93.1352841  97.3587557  52.9722397  91.7749012
  96.5832687  54.9213668  84.4935518  96.1437678  54.4290046  85.1868375
  97.3340804  54.3786635  84.2527593  89.0625026  51.1125209  84.4960146
  89.8883046  50.8128980  84.1158790  88.7119078  50.3432831  84.9449935
  94.0306559  50.4651677  86.5657820  93.4086569  49.8022382  86.2660047
  94.7011426  50.4912809  85.8831467  87.2633631  49.0311535  85.4549080
  86.4265540  48.6033709  85.2733081  87.2357277  49.2243978  86.3919871
  94.1031087  38.9433465  96.1590326  94.1519242  39.8195588  95.7768095
  94.6453601  38.4010858  95.5861969 104.5885933  49.4874588  95.4391463
 103.7981476  49.4698727  94.8995962 104.3519287  50.0262882  96.1940499
 104.7083808  46.3367054  92.7524191 104.7581813  46.1717062  93.6939714
 104.5997731  45.4694313  92.3622072  93.5920066  49.0155600  80.0416280
  93.7408187  49.6991064  79.3882953  94.3986510  48.9960690  80.5565736
 101.9987570  42.3197982  94.0683498 102.8997433  42.1804447  93.7767496
 102.0735544  42.4852437  95.0081675  96.3330375  39.6964837  92.9136684
  95.4633685  39.9898403  92.6419273  96.5689856  40.2805282  93.6343948
 106.2102004  48.7563996  92.9966213 105.9186813  49.1193976  93.8329674
 105.5974136  48.0431004  92.8179545 107.4097687  46.3216876  85.5168783
 108.2444578  46.7606680  85.6806343 107.5456816  45.8455529  84.6977029
 104.4589193  43.8796611  91.4646271 104.9343314  44.0724257  90.6565122
 103.5354758  43.9355796  91.2189654  91.3472699  45.0420778  81.0477349
  91.1018741  44.1383108  81.2457559  91.5168614  45.0437928  80.1056827
  99.0369409  35.9144454  90.4302105  99.5551353  36.6505481  90.1048593
  98.6824542  36.2208447  91.2648864  90.6168347  40.7749135  78.5463511
  89.9237592  40.8493490  77.8903546  90.3720099  40.0109479  79.0685027
  99.2882003  32.3344737  85.9503001  99.5683757  31.6667926  86.5763428
 100.0732610  32.5273832  85.4377665  97.0915472  51.5103731  77.5128028
  96.5189439  52.1293918  77.0598499  97.6648265  52.0603092  78.0467950
 103.1590862  40.7562371  89.6974576 104.1108285  40.8560468  89.7186800
 102.9894312  39.9640639  90.2072661 101.1805241  37.8417954  89.8833977
 100.5855173  38.1222967  89.1880466 100.8954938  38.3311855  90.6550718
 100.3112732  51.7940881  78.6436610 101.2443405  51.7286442  78.8469485
 100.2235944  52.6297148  78.1851142 102.9400748  51.1106751  75.6040557
 102.8614380  50.7766615  76.4976315 103.7610415  51.6028519  75.6032030
 105.6378939  43.9768490  88.8116876 105.6055260  43.0384491  88.9976560
 106.2479563  44.0552527  88.0782701  97.4762270  42.8464543  74.8544080
  98.4221375  42.7170751  74.9232498  97.0976515  42.1079205  75.3313508
 105.7873428  40.7679534  88.8575159 105.2712477  39.9837990  88.6705088
 106.6713376  40.4398250  89.0221679 103.4484155  34.5120549  84.8170972
 103.2508976  34.2035638  85.7014304 104.0583860  35.2382188  84.9468902
 111.4555489  45.0384497  87.9522913 112.1858878  44.7769785  88.5130616
 110.8462435  44.3013219  87.9924981 109.5370786  43.1792360  88.5497364
 108.8103950  43.0448325  87.9413856 109.1218073  43.4869188  89.3554082
  97.3600963  46.8982289  96.3144737  98.2803972  47.0760888  96.5084784
  97.3250546  45.9538335  96.1624436  95.6605187  40.7714520  74.7898965
  94.7536643  40.4747632  74.8661679  95.9381168  40.4744338  73.9233252
  86.5783128  42.0920883  85.2398012  86.2585912  41.2386191  84.9472386
  86.0316556  42.3069461  85.9955979  90.3563035  44.8083324  88.9567518
  90.5749045  45.7400432  88.9755552  90.7688809  44.4491298  89.7422322
  97.2767253  35.3151409  80.9443207  96.4667982  34.9698494  81.3198453
  97.9651670  35.0058953  81.5330818  99.2057801  34.3929456  82.5667503
  99.7588840  34.8124910  83.2257526  99.4427888  33.4665204  82.6090459
  95.2290901  40.3816530  98.3470267  95.1287628  41.3310887  98.2782358
  95.0112443  40.0534769  97.4746337  94.4303972  37.6301455  74.9310944
  95.2923136  37.9556353  75.1906762  94.6154316  36.8432951  74.4184010
  86.4471388  45.7123795  87.2091133  85.7534859  45.2977747  86.6961088
  87.1944379  45.7544331  86.6124552 102.5836609  36.5029981  82.0746167
 102.0035278  37.1614785  81.6924220 102.3172541  35.6807326  81.6633585
 101.0340175  35.9035039  84.2767488 101.5339953  36.0151574  83.4681807
 101.6775783  35.5996092  84.9168296  95.0922171  43.8113669  97.1635329
  94.6089252  44.6114029  97.3699218  95.1783110  43.8221614  96.2102773
  88.3608130  45.6442048  85.0857148  88.3378818  45.7429736  84.1339031
  88.6708767  46.4907199  85.4074314  91.0195508  47.7018203  89.2003763
  91.9738762  47.6702146  89.1333694  90.8208032  47.2408827  90.0153988
  91.6094890  46.2719319  91.7674560  92.4287779  46.7663398  91.7909398
  91.8831698  45.3551288  91.7392128 101.3661487  38.6630072  81.1302516
 100.4787342  38.9479722  80.9122710 101.7815476  38.5023835  80.2829793
 104.7176023  38.6876593  84.8456855 105.4936413  39.1773045  85.1181472
 103.9924157  39.1134647  85.3028724 107.1548581  39.4004212  85.9030796
 107.7493072  39.1599948  85.1924104 107.2275165  38.6811343  86.5304332
  89.3745737  53.2437823  86.2173960  89.2400205  52.4838224  85.6511958
  88.9577799  53.9678723  85.7502749 100.5104700  48.4274746  75.2250536
 101.2140550  48.6324749  75.8408191  99.7867349  48.9951508  75.4899619
 101.3402510  44.1784608  81.3452806 101.2837712  44.6353159  80.5060438
 101.8930853  43.4175292  81.1675649 105.1507316  39.9674340  82.1702925
 104.8944250  39.5670975  83.0011133 104.5260184  40.6818133  82.0453065
 109.4619654  42.7070413  84.6774217 108.9019212  42.7763602  85.4505779
 108.8563157  42.5311397  83.9573713 102.4191397  48.8657276  77.2748996
 103.2537001  48.4338474  77.0926471 102.2575740  48.6939289  78.2025890
 102.0737290  45.3689389  78.6405335 102.0186093  45.2033660  77.6993779
 101.4483345  46.0765422  78.7967525  86.8629805  40.6057453  92.4666757
  87.5088668  40.0956407  92.9553982  86.6546956  41.3426135  93.0410183
  99.3883197  47.6738301  97.9658898 100.2574356  47.8478953  97.6045533
  98.9089948  48.4932718  97.8434627  95.3833415  34.8697498  78.2190653
  95.3712085  35.8139338  78.3758924  96.2756837  34.6867643  77.9250115
  99.1985535  31.4640275  82.4736590  98.4317930  30.9098761  82.6193273
  99.6096240  31.5362143  83.3350742  91.2027296  37.7525070  96.5641772
  92.0658757  37.3961875  96.7745096  90.6292706  37.4138965  97.2517176
 111.0475673  59.3826927  87.3704173 111.6854082  59.2633674  86.6667513
 110.9296515  60.3307771  87.4292125 107.8565379  59.3354355  87.3065697
 107.5183890  59.2195420  86.4186232 108.7255147  58.9345520  87.2866703
 103.7152195  61.1889831  83.2962588 103.1517060  61.0979768  82.5278876
 103.6004590  60.3689736  83.7765081 108.3385162  60.4889207  93.2651903
 108.3273803  60.0942005  92.3932406 108.5005801  59.7555279  93.8585674
 109.2951753  64.8560799  78.6077053 108.6439733  65.4414879  78.2211067
 110.0896116  65.3866994  78.6672091 103.2207380  61.9449936  79.0064187
 103.9938256  61.3978923  78.8677063 103.5732779  62.8094185  79.2178649
 105.0592423  63.2726318  92.2131087 104.7682289  64.1771949  92.0977753
 105.6949407  63.3142846  92.9275156 105.5573658  58.1042602  76.6382637
 105.8099179  57.5824123  75.8766100 104.6198217  57.9408748  76.7409321
 110.6016941  57.1078381  84.4457381 111.3880030  56.6897804  84.0947798
 110.8655645  58.0124473  84.6139029 110.7727018  62.5451231  79.1446037
 110.1372851  62.6185857  79.8566942 110.4424425  63.1344830  78.4665117
 116.0025368  57.0453614  85.3490359 116.7350540  56.4752831  85.5828189
 115.2464724  56.6575214  85.7896865 105.2769947  60.0070708  78.8407012
 105.1606205  59.3315612  79.5088097 105.3872207  59.5203082  78.0239165
 107.6201488  59.4680855  82.5453702 107.2559695  58.9411476  83.2566623
 108.4768604  59.0779324  82.3720187 113.5250788  50.7575188  89.8084968
 113.1934113  51.6270599  89.5846183 112.9296402  50.4411472  90.4878998
 107.2606975  54.4970755  77.5415050 107.4281377  55.3650991  77.9085521
 107.0704144  54.6598037  76.6176339 110.0182308  62.9587734  89.2080880
 109.7183031  63.8612773  89.0996688 109.6733368  62.6919917  90.0602033
 103.4694790  59.4101531  85.2417585 102.5445286  59.2777745  85.4495277
 103.7179203  60.1895750  85.7387527 113.4179452  55.4770274  86.8878318
 112.5096329  55.4085682  86.5937079 113.3667048  55.9542219  87.7160143
 107.2396196  56.9528412  78.5261717 107.1195821  57.3985463  79.3647197
 106.5448784  57.3013730  77.9675255 105.0003088  69.7232054  82.1751848
 104.9227118  70.6739879  82.2540329 104.3964731  69.3777927  82.8326774
 107.4920318  56.8959920  94.8313215 106.7153652  57.4553840  94.8216080
 108.1310881  57.3816703  95.3528085 115.2841098  53.6786712  88.6656192
 114.6415478  53.9719246  88.0195986 114.7796027  53.5639633  89.4709388
 112.9381262  57.4249886  79.3542051 113.8499118  57.6577272  79.1789748
 112.4290909  58.0086930  78.7917130 105.7466690  59.7045373  94.3931182
 106.4881374  60.2430417  94.1166006 105.0403675  60.3311662  94.5502734
 111.2222030  61.8474513  92.9903344 111.6305386  61.4056924  92.2457976
 110.4999291  61.2727141  93.2437536 107.5753100  56.7847120  90.3636900
 108.4214295  57.2086534  90.5071549 107.5151737  56.1280745  91.0575464
 111.5450844  62.4075704  86.7455632 110.9159707  62.5721418  86.0431700
 111.1576506  62.8217314  87.5166596 115.4240076  63.3430142  84.0999996
 114.7391114  63.7229043  83.5497029 115.5083925  63.9525469  84.8331944
 110.7252545  54.4451489  92.0218074 110.4813477  55.1993549  91.4852350
 111.0012475  54.8236836  92.8565321 112.6791008  60.9890101  90.6995340
 112.8907903  61.6321861  90.0229721 112.6320756  60.1552418  90.2317270
 110.2817237  53.6007922  87.6031912 109.4201716  53.8989175  87.8948649
 110.3079671  53.8178321  86.6712944 107.0978806  62.1450112  84.0105717
 107.5617152  62.4237815  83.2210340 106.8335604  61.2433557  83.8278808
 106.0347692  58.2673265  80.8195283 106.7371735  58.7194308  81.2869209
 105.7028321  57.6257083  81.4475176 104.4828054  56.8585021  95.1946492
 103.8526714  57.5401302  95.4281889 104.3764142  56.7468103  94.2499630
 113.7936836  63.8662056  88.8717697 114.6154279  63.4642244  88.5900379
 113.7899239  63.7630291  89.8233813 101.7287771  56.8901396  83.0795893
 100.9318935  57.0020091  83.5979389 101.5013364  57.2288049  82.2136783
 107.5593439  63.4146100  91.0278408 107.6237872  63.8766507  91.8636579
 106.8504363  62.7843465  91.1560717 107.2741457  65.0814207  80.8957388
 107.1387132  65.9265743  81.3242236 107.8151269  65.2833485  80.1323322
 103.7608796  51.1605787  97.5571743 103.3675742  50.6071986  98.2319387
 104.5774937  51.4716366  97.9478261 102.5365739  65.7155402  83.5508066
 102.7132367  66.6373366  83.3629050 103.3322572  65.4013821  83.9802446
 106.6776757  52.5763666  95.1492000 107.4186471  53.1770819  95.0696462
 106.9094680  51.8341304  94.5910042 108.9009933  65.7037774  95.0257730
 108.4573787  64.9174152  94.7078634 109.5627147  65.8916924  94.3601621
 110.9991171  65.9840574  93.0539131 110.9809647  66.8049455  92.5619400
 111.9211091  65.8594649  93.2789272 107.4564225  63.4984703  93.8962640
 107.9892562  62.7372991  93.6661948 106.9278306  63.2058355  94.6386794
 110.6233920  48.6044769  89.4256281 110.2798190  49.4946411  89.3495392
 110.9912883  48.4146427  88.5625866 110.5884203  58.5953380  77.9328716
 110.0730826  59.3657985  78.1717104 110.3161511  57.9218516  78.5561778
 108.1731314  53.4403081  82.9913955 107.3172910  53.0509931  82.8119593
 108.5858266  53.5195042  82.1313740 109.7030461  50.9749424  87.3905515
 109.1995256  50.9379559  86.5773320 109.9961068  51.8842167  87.4502171
 105.9473347  51.0588154  86.3971696 106.8126343  50.8630963  86.0377586
 106.0150856  50.8298506  87.3241053 115.5618477  61.3485735  79.8681890
 114.7847920  61.0096894  79.4237052 116.2409958  61.3538358  79.1936855
 110.3770506  56.4680472  79.7588498 110.0720642  56.7826621  80.6098641
 111.3300948  56.5461892  79.8015831 108.8216938  62.6270696  81.4081452
 108.2938300  61.8923455  81.0954689 108.3204441  63.4045372  81.1621420
 113.8009784  60.8219716  86.5248498 113.1433459  61.5118977  86.6128627
 114.6050183  61.2116148  86.8682484 103.5535666  53.2890362  83.7688063
 104.1279418  53.0665543  83.0361256 104.1406648  53.3579056  84.5216664
 112.6115243  59.1764089  84.5752440 113.1247125  59.8094081  85.0774149
 113.2616467  58.5765284  84.2095800 103.8805253  55.3194823  77.7883948
 103.0442565  55.6569509  78.1093223 103.7410022  55.1843803  76.8511085
 105.8558333  50.1631611  82.4963133 105.2022746  49.8480628  81.8719747
 105.8138808  49.5407351  83.2222955 106.9669538  60.4450906  74.4116425
 106.0596600  60.2140159  74.6107574 107.4640570  59.6488525  74.5990406
 109.8737617  69.1548413  77.3313111 109.1999316  69.4580110  77.9398069
 110.2603439  69.9577493  76.9818568 109.0896074  56.6513544  86.8210780
 108.1718635  56.8728491  86.6632468 109.5056217  56.7259855  85.9622487
 109.8731122  58.0504960  81.9513460 110.6202940  58.5626357  81.6420582
 110.1422711  57.7289013  82.8117854 108.1457772  60.5463501  78.9340415
 107.2368991  60.2622534  79.0312884 108.1752855  60.9662579  78.0743722
 113.3777039  64.1570090  82.7031582 112.9239366  63.3161000  82.7596773
 112.7471006  64.7931489  83.0406362 112.3209959  55.0862076  83.9332250
 111.5832715  54.5739462  84.2642492 112.5736732  54.6462458  83.1215527
 111.8209978  65.9946587  83.6381400 112.1132953  66.5551644  82.9193766
 112.3308599  66.2875148  84.3934560 112.4221586  47.8638328  84.5274019
 112.7280463  47.0035692  84.2399934 113.1474191  48.4555948  84.3273013
  98.7145942  58.2669015  82.9155617  98.5170342  57.6738376  82.1906683
  98.1592606  57.9621225  83.6331556 106.6942666  58.1592121  85.0350210
 106.7491276  57.2065958  84.9592687 105.8833868  58.3151560  85.5191508
 107.8433859  62.0872244  76.2728493 107.4053289  61.3708103  75.8134131
 108.5844300  62.3148359  75.7113585 104.6335026  56.7769181  82.7940589
 103.8202891  57.0763352  83.2005781 105.1294020  56.3824870  83.5115071
 106.7843604  66.7726938  84.7274854 106.7419782  66.9987784  83.7983386
 107.7006302  66.5390313  84.8760655 110.2309237  57.2411006  91.6255483
 110.5858625  57.4682479  92.4849949 110.8781369  57.5729382  91.0032738
 115.9606974  60.3629441  82.3304812 115.8224873  60.5531037  81.4026001
 115.6043193  61.1248824  82.7872863 104.1249100  54.3487537  88.4101824
 104.7648480  54.2076296  87.7124787 103.2926631  54.0622050  88.0340426
 115.9876354  62.4305968  87.3416083 116.4212861  62.3381258  88.1899137
 116.7007935  62.4063469  86.7036099 109.7204249  66.0308063  88.8749184
 109.7741271  66.5998999  89.6426900 108.8519030  66.2009948  88.5103221
 101.2092168  57.7933049  80.5996569 100.2789756  57.7317504  80.8166531
 101.3049640  57.2709002  79.8033210 101.1277717  54.3187862  83.1874811
 101.3884534  55.2333195  83.0783971 101.9494889  53.8512304  83.3371423
 116.8491903  62.4729669  89.8748969 117.0427794  63.3775480  90.1208244
 116.7492522  62.0137088  90.7087554 108.5028214  52.3587560  92.3739296
 107.8556129  53.0577509  92.2803772 109.2729230  52.7923704  92.7415544
 111.9107012  62.6236412  95.4489849 111.7592519  62.3946964  94.5319933
 111.9011692  63.5807013  95.4621194 108.6792349  60.1968325  90.4336116
 109.6084409  60.3479484  90.2605083 108.2583379  60.2852345  89.5784762
 108.0728832  69.3228085  79.5460190 108.2480588  68.8516129  80.3605813
 107.3861620  69.9493852  79.7741451 109.0285895  63.6000592  85.5923491
 108.6935728  63.5601362  86.4881141 108.5289841  62.9345308  85.1193901
 111.9645087  60.9456626  75.8660551 111.3474258  60.2203454  75.7693604
 111.4961576  61.7065986  75.5227625 113.6199219  65.6555534  93.5266331
 113.5611765  64.9714755  92.8596914 114.0218737  66.3974524  93.0746957
 102.6389918  72.4717448  86.3200050 102.8786516  73.1035972  86.9979069
 101.7959114  72.1205488  86.6065409 103.7543633  55.1642050  74.9881855
 102.8773099  55.0430851  74.6244102 104.2301386  54.3728129  74.7360744
 113.6216626  63.6195118  91.7580311 112.7343405  63.2821040  91.8806710
 114.1915177  62.8878150  91.9949076 107.1517779  68.2796571  88.7241554
 107.0787951  69.0851542  89.2360859 106.7095173  68.4788536  87.8989575
 106.9407559  67.5168341  82.2344376 106.1575081  68.0590021  82.3282600
 107.6400304  68.0342320  82.6338617 110.2504209  53.3262970  84.8778581
 110.7472909  52.5732932  84.5579651 109.4791191  53.3627287  84.3121790
 118.1033967  59.0303336  86.5196873 118.0923843  59.9128051  86.1490806
 117.2351346  58.6774887  86.3251410 109.6116463  68.1783405  90.8799713
 110.3244435  68.8130870  90.8075614 109.1206492  68.2747271  90.0639715
 111.3333990  62.0834657  82.4517004 110.3990269  62.2036120  82.2821709
 111.5110658  61.1807124  82.1877014 106.8339178  55.4680353  84.6050266
 106.4636965  54.9151394  85.2931171 107.3298270  54.8638487  84.0525266
 114.7206541  57.9251977  82.9867039 115.1866993  58.7579968  82.9127341
 115.1714042  57.4596958  83.6912297 112.7882772  64.2695798  79.9853191
 113.0642616  64.1552393  80.8947065 111.9187271  63.8713283  79.9465364
 112.6923204  50.2932564  87.0257940 111.7786284  50.5236790  87.1940147
 113.1216305  50.3771008  87.8771972 112.4629662  58.4822456  89.5257834
 111.8101113  58.7298363  88.8710287 112.8410042  57.6686594  89.1920311
 109.4236836  68.5182149  83.6286004 109.6059231  67.7003805  84.0913757
 110.2469822  68.7349841  83.1910894 109.7579002  67.4450334  80.8901053
 110.2866768  66.9342789  80.2771215 110.0207221  67.1292864  81.7546586
 108.5117235  59.2242267  96.0123871 107.8357872  59.1236396  96.6826246
 109.3344869  59.0681480  96.4759868 103.1134750  68.4965451  83.6498829
 102.4445125  68.9811578  83.1662869 102.9747619  68.7434671  84.5642207
 107.2540018  70.5309194  90.2481487 107.8058326  70.6940816  91.0130572
 107.5946212  71.1213632  89.5761512 102.2304512  52.8784344  90.8503372
 102.2945838  53.7399175  90.4380769 102.1671632  52.2658346  90.1175730
 101.7056784  54.9507476  94.4976406 102.3328823  54.5684554  95.1113930
 100.8484703  54.7321678  94.8632098 112.1050893  65.3570452  96.1030141
 112.6490797  65.9700410  95.6085096 111.5237738  65.9150030  96.6197154
  98.4822327  56.7583906  80.4294761  98.7775768  55.8494584  80.3761814
  97.5810363  56.7371645  80.1075763 110.3908406  68.4791170  87.2345169
 110.2659545  67.6780909  86.7256115 111.0487497  68.9737363  86.7459139
 102.0116574  54.8339902  86.4122309 101.2903160  55.4475870  86.2729783
 102.8009830  55.3697667  86.3338955 112.4543314  66.2800190  88.8624719
 111.5073650  66.1605541  88.7903046 112.8026087  65.3922688  88.9450981
 104.8142887  52.1694329  92.6862961 105.3377289  52.4156625  93.4489270
 104.5955221  53.0014363  92.2666098 100.2110168  54.4398003  80.5534086
  99.8822875  53.5595382  80.3709192 100.5649539  54.3845672  81.4410475
 109.4589747  66.0752906  85.0629071 109.3114710  65.1469613  85.2436642
 110.2843241  66.0972997  84.5786147 103.3251992  54.7270973  80.9209564
 103.6648064  55.2556894  80.1988172 103.7724112  55.0651379  81.6968130
 113.0623869  66.8981465  86.1493944 113.9870417  66.6924326  86.0118395
 112.8939173  66.6497866  87.0583286 106.0195432  53.1108024  90.3712632
 105.6792253  52.3115837  90.7733312 105.3134439  53.4109735  89.7989465
 106.6711904  50.1957336  88.8239955 107.4937974  49.7217814  88.7018845
 106.9149968  50.9747820  89.3238641 105.3120139  53.2245595  79.1202856
 106.0328501  53.6026847  78.6166573 104.6885443  53.9434471  79.2237834
 109.4551262  53.9290744  80.0561189 109.6714876  54.8115381  79.7550017
 108.9745329  53.5376957  79.3266831 106.0546866  53.8779005  86.6812823
 106.0408435  52.9820098  86.3445121 106.7719294  53.8849669  87.3151109
 107.9072997  54.3116345  88.7265950 107.6490774  55.2333416  88.7250281
 107.3758037  53.9146780  89.4166414 112.8519185  67.4167132  81.5056036
 113.0256063  66.8513555  80.7529888 113.3448077  68.2168027  81.3235526
 105.4583762  52.7593385  81.9500393 105.5799673  51.8310031  82.1491281
 105.1685804  52.7732071  81.0378708 108.3274952  50.4448296  85.0867113
 108.3496649  50.5087629  84.1319092 108.7443011  49.6052804  85.2807619
 113.8394358  66.7333897  78.6052934 114.5345262  67.3540589  78.8240249
 114.1817508  65.8829248  78.8805312 115.7385781  64.1833602  80.1340265
 116.2637105  64.5220875  79.4089585 115.6508134  63.2480617  79.9503399
 107.4005830  68.0967676  92.2630141 107.7092956  67.8516822  93.1352841
 108.1981312  68.3014314  91.7749012 107.4226442  70.2505585  84.4935518
 106.9831432  69.7581964  85.1868375 108.1734559  69.7078553  84.2527593
 104.9424841  54.2725382  96.1590326 104.9912997  55.1487505  95.7768095
 105.4847356  53.7302776  95.5861969 115.4279687  64.8166506  95.4391463
 114.6375231  64.7990645  94.8995962 115.1913042  65.3554799  96.1940499
 115.5477562  61.6658972  92.7524191 115.5975567  61.5008980  93.6939714
 115.4391485  60.7986231  92.3622072 104.4313821  64.3447518  80.0416280
 104.5801941  65.0282982  79.3882953 105.2380264  64.3252608  80.5565736
 112.8381324  57.6489900  94.0683498 113.7391187  57.5096365  93.7767496
 112.9129299  57.8144355  95.0081675 107.1724130  55.0256755  92.9136684
 106.3027439  55.3190321  92.6419273 107.4083610  55.6097200  93.6343948
 117.0495759  64.0855914  92.9966213 116.7580567  64.4485894  93.8329674
 116.4367890  63.3722922  92.8179545 115.2982947  59.2088528  91.4646271
 115.7737069  59.4016175  90.6565122 114.3748513  59.2647714  91.2189654
 102.1866454  60.3712695  81.0477349 101.9412496  59.4675025  81.2457559
 102.3562368  60.3729846  80.1056827 109.8763164  51.2436372  90.4302105
 110.3945108  51.9797399  90.1048593 109.5218296  51.5500365  91.2648864
 101.4562101  56.1041053  78.5463511 100.7631346  56.1785408  77.8903546
 101.2113853  55.3401397  79.0685027 110.1275758  47.6636654  85.9503001
 110.4077512  46.9959843  86.5763428 110.9126365  47.8565750  85.4377665
 107.9309226  66.8395648  77.5128028 107.3583193  67.4585835  77.0598499
 108.5042020  67.3895010  78.0467950 113.9984616  56.0854288  89.6974576
 114.9502039  56.1852386  89.7186800 113.8288067  55.2932557  90.2072661
 112.0198996  53.1709872  89.8833977 111.4248928  53.4514884  89.1880466
 111.7348692  53.6603772  90.6550718 111.1506486  67.1232798  78.6436610
 112.0837159  67.0578360  78.8469485 111.0629699  67.9589065  78.1851142
 113.7794503  66.4398669  75.6040557 113.7008134  66.1058532  76.4976315
 114.6004170  66.9320437  75.6032030 116.4772694  59.3060408  88.8116876
 116.4449014  58.3676409  88.9976560 117.0873318  59.3844445  88.0782701
 108.3156025  58.1756461  74.8544080 109.2615130  58.0462669  74.9232498
 107.9370270  57.4371123  75.3313508 116.6267182  56.0971451  88.8575159
 116.1106231  55.3129908  88.6705088 117.5107131  55.7690168  89.0221679
 114.2877909  49.8412467  84.8170972 114.0902730  49.5327555  85.7014304
 114.8977615  50.5674106  84.9468902 108.1994717  62.2274207  96.3144737
 109.1197727  62.4052806  96.5084784 108.1644300  61.2830252  96.1624436
 106.4998942  56.1006437  74.7898965 105.5930397  55.8039550  74.8661679
 106.7774923  55.8036255  73.9233252 108.1161008  50.6443327  80.9443207
 107.3061736  50.2990412  81.3198453 108.8045425  50.3350871  81.5330818
 110.0451556  49.7221374  82.5667503 110.5982595  50.1416827  83.2257526
 110.2821642  48.7957122  82.6090459 106.0684655  55.7108448  98.3470267
 105.9681382  56.6602804  98.2782358 105.8506197  55.3826686  97.4746337
 105.2697727  52.9593373  74.9310944 106.1316891  53.2848271  75.1906762
 105.4548071  52.1724868  74.4184010 113.4230363  51.8321899  82.0746167
 112.8429032  52.4906703  81.6924220 113.1566296  51.0099244  81.6633585
 111.8733929  51.2326957  84.2767488 112.3733708  51.3443491  83.4681807
 112.5169537  50.9288010  84.9168296 105.9315925  59.1405586  97.1635329
 105.4483007  59.9405946  97.3699218 106.0176864  59.1513531  96.2102773
 112.2055241  53.9921989  81.1302516 111.3181096  54.2771640  80.9122710
 112.6209230  53.8315753  80.2829793 115.5569777  54.0168510  84.8456855
 116.3330167  54.5064963  85.1181472 114.8317911  54.4426565  85.3028724
 100.2139492  68.5729741  86.2173960 100.0793959  67.8130141  85.6511958
  99.7971554  69.2970640  85.7502749 111.3498455  63.7566664  75.2250536
 112.0534305  63.9616667  75.8408191 110.6261103  64.3243426  75.4899619
 112.1796265  59.5076525  81.3452806 112.1231466  59.9645077  80.5060438
 112.7324607  58.7467210  81.1675649 115.9901071  55.2966257  82.1702925
 115.7338005  54.8962893  83.0011133 115.3653939  56.0110051  82.0453065
 103.3708617  69.4699058  86.4292403 103.2541002  70.4144490  86.3271093
 102.5501064  69.1672619  86.8178202 113.2585152  64.1949193  77.2748996
 114.0930756  63.7630392  77.0926471 113.0969495  64.0231207  78.2025890
 112.9131044  60.6981307  78.6405335 112.8579848  60.5325578  77.6993779
 112.2877099  61.4057340  78.7967525 110.2276951  63.0030218  97.9658898
 111.0968111  63.1770871  97.6045533 109.7483703  63.8224635  97.8434627
 106.2227170  50.1989416  78.2190653 106.2105839  51.1431256  78.3758924
 107.1150591  50.0159561  77.9250115 104.3963132  70.1227319  89.6448332
 105.2990378  70.1550930  89.9614826 104.1700502  69.1927770  89.6594667
 106.1516734  68.8758306  86.3058410 105.2012365  68.8760168  86.1922782
 106.4549220  68.1291041  85.7894445 110.0379289  46.7932192  82.4736590
 109.2711685  46.2390679  82.6193273 110.4489994  46.8654061  83.3350742
 102.0421050  53.0816988  96.5641772 102.9052512  52.7253793  96.7745096
 101.4686461  52.7430883  97.2517176 114.5545949  76.5181749  83.2962588
 113.9910814  76.4271686  82.5278876 114.4398344  75.6981653  83.7765081
 112.1010381  78.0132941  86.1346809 112.8931673  77.6723765  85.7193108
 112.3407031  78.1227916  87.0548962 114.0601135  77.2741854  79.0064187
 114.8332011  76.7270841  78.8677063 114.4126534  78.1386103  79.2178649
 115.8986177  78.6018236  92.2131087 115.6076043  79.5063867  92.0977753
 116.5343162  78.6434764  92.9275156 116.8242384  75.9795085  88.8032446
 117.4205957  75.7551107  88.0889409 116.8817356  75.2379830  89.4057894
 116.3967413  73.4334520  76.6382637 116.6492933  72.9116041  75.8766100
 115.4591972  73.2700665  76.7409321 116.1163701  75.3362626  78.8407012
 115.9999960  74.6607529  79.5088097 116.2265961  74.8495000  78.0239165
 118.1000729  69.8262673  77.5415050 118.2675132  70.6942909  77.9085521
 117.9097898  69.9889954  76.6176339 114.3088544  74.7393448  85.2417585
 113.3839040  74.6069663  85.4495277 114.5572957  75.5187668  85.7387527
 118.0789950  72.2820330  78.5261717 117.9589575  72.7277381  79.3647197
 117.3842539  72.6305648  77.9675255 111.6697355  74.3826722  86.0761374
 111.7989736  74.6361201  86.9900786 110.9894806  74.9754430  85.7566029
 115.8396842  85.0523972  82.1751848 115.7620872  86.0031797  82.2540329
 115.2358486  84.7069844  82.8326774 116.5860444  75.0337291  94.3931182
 117.3275129  75.5722335  94.1166006 115.8797430  75.6603579  94.5502734
 114.8296642  77.0213511  86.9485481 115.3997999  77.4500780  86.3102965
 115.4204753  76.7396096  87.6469666 116.8741447  73.5965182  80.8195283
 117.5765490  74.0486226  81.2869209 116.5422075  72.9549001  81.4475176
 115.3221808  72.1876939  95.1946492 114.6920469  72.8693220  95.4281889
 115.2157896  72.0760020  94.2499630 110.6166781  71.8548735  86.1212416
 109.8265835  72.1106263  85.6452527 111.1078028  72.6697073  86.2264457
 112.5681526  72.2193314  83.0795893 111.7712689  72.3312008  83.5979389
 112.3407118  72.5579966  82.2136783 108.9004484  72.1079225  88.5527407
 109.1512522  72.9926235  88.8184983 109.4364032  71.9283827  87.7802499
 114.6002551  66.4897705  97.5571743 114.2069496  65.9363903  98.2319387
 115.4168691  66.8008283  97.9478261 111.5664609  77.9281563  81.4685313
 112.0789129  78.7224813  81.6190878 112.2187321  77.2307853  81.4018914
 113.3759493  81.0447319  83.5508066 113.5526122  81.9665284  83.3629050
 114.1716327  80.7305738  83.9802446 117.5170512  67.9055584  95.1492000
 118.2580225  68.5062737  95.0696462 117.7488435  67.1633222  94.5910042
 112.6611850  73.0911951  93.4270229 112.5465365  72.1897208  93.7277328
 111.8056368  73.3375648  93.0755046 114.4990809  82.5625493  89.5518408
 115.0498234  82.4342556  88.7795402 113.6602285  82.8620382  89.2013301
 109.5313525  76.2570217  82.2444883 110.3688747  76.6667226  82.0278591
 109.7091793  75.3169659  82.2145077 116.7867101  66.3880072  86.3971696
 117.6520098  66.1922880  86.0377586 116.8544610  66.1590423  87.3241053
 114.3929420  68.6182280  83.7688063 114.9673172  68.3957461  83.0361256
 114.9800403  68.6870974  84.5216664 114.7199007  70.6486741  77.7883948
 113.8836320  70.9861427  78.1093223 114.5803777  70.5135720  76.8511085
 116.6952088  65.4923528  82.4963133 116.0416500  65.1772546  81.8719747
 116.6532562  64.8699269  83.2222955 117.8063293  75.7742824  74.4116425
 116.8990354  75.5432077  74.6107574 118.3034325  74.9780443  74.5990406
 109.5539697  73.5960933  82.9155617 109.3564096  73.0030293  82.1906683
 108.9986361  73.2913143  83.6331556 117.5336420  73.4884039  85.0350210
 117.5885030  72.5357875  84.9592687 116.7227622  73.6443478  85.5191508
 115.4728780  72.1061099  82.7940589 114.6596646  72.4055269  83.2005781
 115.9687774  71.7116788  83.5115071 114.9642855  69.6779454  88.4101824
 115.6042234  69.5368213  87.7124787 114.1320385  69.3913968  88.0340426
 115.7403159  78.9781885  84.5236816 116.5343757  78.4832205  84.3219391
 115.0294851  78.4499748  84.1604522 112.0485922  73.1224966  80.5996569
 111.1183510  73.0609422  80.8166531 112.1443394  72.6000919  79.8033210
 111.9671471  69.6479779  83.1874811 112.2278289  70.5625113  83.0783971
 112.7888644  69.1804222  83.3371423 113.4396397  71.0617536  90.3573635
 114.1119450  70.8534899  89.7086284 112.6126183  70.8639622  89.9178867
 113.8423894  74.3360139  91.1176072 113.7043692  73.6040378  91.7187611
 114.7528817  74.2469040  90.8360260 116.4706195  74.0480099  90.6059752
 117.1805813  73.4073291  90.5646370 116.4275503  74.2992994  91.5285933
 115.1835129  71.0345317  92.4255391 114.6472486  70.5836055  93.0776988
 114.5951837  71.1691225  91.6825856 113.4783672  87.8009366  86.3200050
 113.7180270  88.4327890  86.9979069 112.6352869  87.4497406  86.6065409
 114.5937387  70.4933968  74.9881855 113.7166854  70.3722769  74.6244102
 115.0695141  69.7020046  74.7360744 106.1139528  75.2811128  85.0823362
 106.8010567  74.9672858  84.4944378 105.9587656  76.1852492  84.8090614
 110.9174250  70.1701324  89.5108386 110.8332439  69.5626994  88.7758796
 110.0956956  70.6610343  89.5117882 117.9911534  83.6088488  88.7241554
 117.9181705  84.4143460  89.2360859 117.5488927  83.8080454  87.8989575
 117.6732932  70.7972271  84.6050266 117.3030720  70.2443311  85.2931171
 118.1692025  70.1930404  84.0525266 115.5022131  81.2569766  91.7005284
 116.2031590  81.8906249  91.8534678 115.0317246  81.5984497  90.9400923
 111.0989849  80.7906121  88.6336386 111.6843286  80.0449809  88.7664290
 110.9014687  81.1010078  89.5173050 113.9528504  83.8257368  83.6498829
 113.2838880  84.3103496  83.1662869 113.8141374  84.0726589  84.5642207
 105.6907504  73.3611721  87.3540829 105.7291603  72.8275312  88.1477948
 105.1847797  72.8346927  86.7351807 113.0698266  68.2076262  90.8503372
 113.1339593  69.0691093  90.4380769 113.0065386  67.5950263  90.1175730
 112.5450539  70.2799394  94.4976406 113.1722577  69.8976471  95.1113930
 111.6878457  70.0613596  94.8632098 109.3216081  72.0875823  80.4294761
 109.6169522  71.1786502  80.3761814 108.4204117  72.0663563  80.1075763
 112.8510328  70.1631820  86.4122309 112.1296914  70.7767788  86.2729783
 113.6403584  70.6989585  86.3338955 115.6536642  67.4986246  92.6862961
 116.1771044  67.7448543  93.4489270 115.4348975  68.3306281  92.2666098
 111.0503923  69.7689921  80.5534086 110.7216629  68.8887300  80.3709192
 111.4043294  69.7137590  81.4410475 114.1645746  70.0562891  80.9209564
 114.5041819  70.5848812  80.1988172 114.6117867  70.3943297  81.6968130
 116.8589187  68.4399941  90.3712632 116.5186007  67.6407755  90.7733312
 116.1528193  68.7401652  89.7989465 116.1513893  68.5537512  79.1202856
 116.8722256  68.9318765  78.6166573 115.5279197  69.2726389  79.2237834
 115.0344237  72.2168375  86.6331933 114.8888818  72.5308678  87.5256215
 114.5569441  72.8353275  86.0802832 116.8940620  69.2070922  86.6812823
 116.8802189  68.3112016  86.3445121 117.6113048  69.2141586  87.3151109
 109.5089900  74.7573719  89.5719594 108.9643368  75.5333527  89.7039869
 110.3869250  75.1044523  89.4138716 116.2977516  68.0885303  81.9500393
 116.4193427  67.1601949  82.1491281 116.0079559  68.1023989  81.0378708
 110.2955922  73.8843615  92.4649751 109.5537658  74.0326251  93.0514382
 109.9748666  74.1451881  91.6016501 110.7412535  81.7709044  84.4960146
 111.5670555  81.4712816  84.1158790 110.3906587  81.0016666  84.9449935
 115.7094068  81.1235512  86.5657820 115.0874078  80.4606217  86.2660047
 116.3798935  81.1496644  85.8831467 108.9421140  79.6895370  85.4549080
 108.1053049  79.2617545  85.2733081 108.9144786  79.8827814  86.3919871
 115.7818596  69.6017300  96.1590326 115.8306751  70.4779423  95.7768095
 116.3241110  69.0594693  95.5861969 115.2707575  79.6739435  80.0416280
 115.4195696  80.3574900  79.3882953 116.0774019  79.6544526  80.5565736
 118.0117884  70.3548673  92.9136684 117.1421194  70.6482239  92.6419273
 118.2477365  70.9389118  93.6343948 113.0260208  75.7004613  81.0477349
 112.7806250  74.7966943  81.2457559 113.1956123  75.7021764  80.1056827
 112.2955856  71.4332971  78.5463511 111.6025101  71.5077326  77.8903546
 112.0507608  70.6693314  79.0685027 117.3392696  71.4298355  74.7898965
 116.4324152  71.1331468  74.8661679 117.6168677  71.1328173  73.9233252
 108.2570637  72.7504718  85.2398012 107.9373421  71.8970027  84.9472386
 107.7104065  72.9653297  85.9955979 112.0350544  75.4667159  88.9567518
 112.2536554  76.3984267  88.9755552 112.4476318  75.1075134  89.7422322
 116.9078410  71.0400365  98.3470267 116.8075137  71.9894722  98.2782358
 116.6899952  70.7118604  97.4746337 116.1091481  68.2885290  74.9310944
 116.9710645  68.6140189  75.1906762 116.2941825  67.5016786  74.4184010
 108.1258897  76.3707630  87.2091133 107.4322368  75.9561583  86.6961088
 108.8731888  76.4128166  86.6124552 116.7709680  74.4697504  97.1635329
 116.2876761  75.2697864  97.3699218 116.8570619  74.4805449  96.2102773
 110.0395639  76.3025884  85.0857148 110.0166327  76.4013571  84.1339031
 110.3496276  77.1491035  85.4074314 112.6983017  78.3602039  89.2003763
 113.6526271  78.3285981  89.1333694 112.4995541  77.8992662  90.0153988
 113.2882399  76.9303155  91.7674560 114.1075288  77.4247233  91.7909398
 113.5619207  76.0135123  91.7392128 111.0533246  83.9021658  86.2173960
 110.9187714  83.1422059  85.6511958 110.6365308  84.6262558  85.7502749
 114.2102372  84.7990975  86.4292403 114.0934756  85.7436408  86.3271093
 113.3894818  84.4964537  86.8178202 108.5417314  71.2641289  92.4666757
 109.1876177  70.7540243  92.9553982 108.3334465  72.0009970  93.0410183
 117.0620924  65.5281333  78.2190653 117.0499594  66.4723173  78.3758924
 117.9544346  65.3451479  77.9250115 115.2356886  85.4519237  89.6448332
 116.1384133  85.4842847  89.9614826 115.0094256  84.5219688  89.6594667
 116.9910488  84.2050224  86.3058410 116.0406119  84.2052085  86.1922782
 117.2942974  83.4582958  85.7894445 112.8814805  68.4108906  96.5641772
 113.7446266  68.0545711  96.7745096 112.3080215  68.0722801  97.2517176
 116.9533282  90.6103045  85.0823362 117.6404322  90.2964775  84.4944378
 116.7981411  91.5144410  84.8090614 116.5301258  88.6903639  87.3540829
 116.5685358  88.1567229  88.1477948 116.0241551  88.1638844  86.7351807
  70.1208655   3.4903818  73.0445357  70.3605254   4.1222342  73.7224375
  69.2777852   3.1391858  73.3310716  82.0364687   7.5368118  70.0207895
  81.4729552   7.4458055  69.2524183  81.9217082   6.7168023  70.5010387
  79.5829119   9.0319310  72.8592115  80.3750411   8.6910135  72.4438415
  79.8225769   9.1414285  73.7794269  87.6164246  11.2039086  65.3322360
  86.9652225  11.7893167  64.9456373  88.4108608  11.7345281  65.3917397
  81.5419873   8.2928223  65.7309494  82.3150749   7.7457210  65.5922370
  81.8945272   9.1572473  65.9423955  83.3804915   9.6204606  78.9376393
  83.0894781  10.5250236  78.8223060  84.0161900   9.6621133  79.6520463
  84.3061122   6.9981454  75.5277753  84.9024694   6.7737477  74.8134716
  84.3636094   6.2566200  76.1303201  89.0939511   8.8929518  65.8691344
  88.4585344   8.9664145  66.5812249  88.7636917   9.4823117  65.1910423
  83.5982439   6.3548995  65.5652319  83.4818697   5.6793899  66.2333403
  83.7084699   5.8681369  64.7484472  88.3394800   9.3066021  75.9326187
  88.0395523  10.2091060  75.8241994  87.9945860   9.0398204  76.7847340
  81.7907282   5.7579818  71.9662891  80.8657778   5.6256032  72.1740583
  82.0391695   6.5374037  72.4632834  79.1516093   5.4013092  72.8006681
  79.2808474   5.6547570  73.7146092  78.4713544   5.9940800  72.4811336
  83.3215580  16.0710341  68.8997155  83.2439610  17.0218167  68.9785635
  82.7177224  15.7256214  69.5572081  84.0679182   6.0523660  81.1176489
  84.8093867   6.5908704  80.8411312  83.3616168   6.6789949  81.2748040
  89.8663336   8.7553991  73.4700939  89.2372199   8.9199705  72.7677007
  89.4788999   9.1695601  74.2411903  93.7452568   9.6908429  70.8245303
  93.0603607  10.0707331  70.2742336  93.8296418  10.3003756  71.5577251
  85.4191298   8.4928399  70.7351024  85.8829644   8.7716102  69.9455647
  85.1548096   7.5911844  70.5524115  82.3115379   8.0399881  73.6730787
  82.8816736   8.4687149  73.0348272  82.9023491   7.7582466  74.3714973
  92.1149328  10.2140344  75.5963004  92.9366772   9.8120531  75.3145685
  92.1111731  10.1108578  76.5479119  85.8805931   9.7624387  77.7523714
  85.9450364  10.2244794  78.5881886  85.1716855   9.1321752  77.8806024
  85.5953949  11.4292494  67.6202694  85.4599624  12.2744030  68.0487542
  86.1363762  11.6311772  66.8568628  79.0483346   8.9467932  68.1930620
  79.5607867   9.7411183  68.3436184  79.7006059   8.2494223  68.1264221
  80.8578231  12.0633689  70.2753373  81.0344859  12.9851653  70.0874357
  81.6535065  11.7492108  70.7047753  87.2222425  12.0516061  81.7503037
  86.7786280  11.2652440  81.4323941  87.8839639  12.2395211  81.0846927
  81.9809547  13.5811863  76.2763715  82.5316972  13.4528926  75.5040709
  81.1421022  13.8806752  75.9258608  89.3203663  12.3318861  79.7784438
  89.3022139  13.1527742  79.2864707  90.2423584  12.2072936  80.0034579
  85.7776718   9.8462990  80.6207946  86.3105054   9.0851279  80.3907254
  85.2490799   9.5536642  81.3632101  77.0132263   7.2756587  68.9690190
  77.8507485   7.6853595  68.7523898  77.1910531   6.3356029  68.9390384
  87.1429430   8.9748983  68.1326758  86.6150792   8.2401742  67.8199996
  86.6416933   9.7523659  67.8866727  88.1950109  15.5026700  64.0558417
  87.5211808  15.8058397  64.6643375  88.5815931  16.3055781  63.7063874
  86.4670264   6.8941788  65.6585721  85.5581483   6.6100821  65.7558191
  86.4965348   7.3140867  64.7989028  91.6989531  10.5048377  69.4276889
  91.2451858   9.6639287  69.4842079  91.0683498  11.1409776  69.7651669
  90.1422471  12.3424874  70.3626707  90.4345445  12.9029931  69.6439073
  90.6521091  12.6353435  71.1179866  77.0358434   4.6147302  69.6400924
  76.8382834   4.0216663  68.9151990  76.4805098   4.3099512  70.3576862
  86.1646352   8.4350532  62.9973800  85.7265782   7.7186391  62.5379437
  86.9056793   8.6626646  62.4358891  85.1056096  13.1205225  71.4520160
  85.0632275  13.3466072  70.5228692  86.0218795  12.8868600  71.6005961
  83.2221897   9.9968254  71.2482123  84.0162495   9.5018574  71.0464698
  82.5113589   9.4686117  70.8849829  88.0416741  12.3786350  75.5994491
  88.0953763  12.9477286  76.3672206  87.1731522  12.5488235  75.2348528
  90.2319504   8.9714699  82.1735156  90.0805011   8.7425251  81.2565240
  90.2224184   9.9285300  82.1866501  85.7993173  10.5697276  74.9279960
  85.6604258  10.2016061  75.8005898  85.0107769  11.0844916  74.7563918
  86.3941325  15.6706373  66.2705497  86.5693080  15.1994416  67.0851119
  85.7074113  16.2972139  66.4986757  87.3498388   9.9478879  72.3168798
  87.0148220   9.9079649  73.2126448  86.8502333   9.2823595  71.8439208
  91.9411711  12.0033822  80.2511638  91.8824257  11.3193042  79.5842221
  92.3431229  12.7452812  79.7992264  80.9602410  18.8195735  73.0445357
  81.1999008  19.4514260  73.7224375  80.1171606  18.4683775  73.3310716
  91.9429118   9.9673406  78.4825618  91.0555897   9.6299327  78.6052016
  92.5127669   9.2356437  78.7194383  73.5958265   6.2997497  71.8068669
  74.2829305   5.9859227  71.2189684  73.4406394   7.2038862  71.5335920
  85.4730272  14.6274858  75.4486861  85.4000443  15.4329829  75.9606165
  85.0307665  14.8266824  74.6234882  85.2620051  13.8646628  68.9589682
  84.4787573  14.4068308  69.0527907  85.9612796  14.3820608  69.3583923
  87.9328955  14.5261692  77.6045019  88.6456927  15.1609157  77.5320921
  87.4418984  14.6225558  76.7885021  82.9840869  12.2756135  78.4250590
  83.6850328  12.9092618  78.5779984  82.5135984  12.6170867  77.6646229
  91.1095265  10.6174085  66.7098497  91.3855108  10.5030680  67.6192371
  90.2399763  10.2191570  66.6710670  87.7449329  14.8660436  70.3531311
  87.9271723  14.0482092  70.8159063  88.5682315  15.0828128  69.9156201
  88.0791494  13.7928621  67.6146359  88.6079261  13.2821076  67.0016521
  88.3419714  13.4771151  68.4791892  78.5808587  11.8092490  75.3581693
  79.1662024  11.0636178  75.4909597  78.3833425  12.1196447  76.2418357
  81.4347242  14.8443738  70.3744135  80.7657617  15.3289865  69.8908175
  81.2960112  15.0912958  71.2887514  73.1726242   4.3798091  74.0786136
  73.2110341   3.8461681  74.8723254  72.6666534   3.8533296  73.4597113
  85.5752511  16.8787481  76.9726794  86.1270819  17.0419103  77.7375879
  85.9158704  17.4691919  76.3006818  90.4263385  11.7048739  82.8275448
  90.9703289  12.3178697  82.3330403  89.8450230  12.2628317  83.3442461
  88.7120898  14.8269457  73.9590476  88.5872037  14.0259197  73.4501421
  89.3699989  15.3215650  73.4704446  90.7755806  12.6278477  75.5870026
  89.8286142  12.5083828  75.5148353  91.1238579  11.7400975  75.6696287
  87.7802240  12.4231193  71.7874378  87.6327202  11.4947901  71.9681948
  88.6055733  12.4451284  71.3031453  91.3836361  13.2459752  72.8739251
  92.3082909  13.0402613  72.7363702  91.2151665  12.9976153  73.7828592
  91.1731678  13.7645419  68.2301342  91.3468555  13.1991842  67.4775195
  91.6660569  14.5646314  68.0480832  76.9908637   5.7760088  76.2964901
  76.4462106   6.5519896  76.4285175  77.8687987   6.1230893  76.1384023
  92.1606850  13.0812184  65.3298241  92.8557755  13.7018876  65.5485555
  92.5030000  12.2307535  65.6050618  77.7774659   4.9029985  79.1895058
  77.0356395   5.0512620  79.7759688  77.4567404   5.1638250  78.3261807
  94.0598273  10.5311889  66.8585571  94.5849597  10.8699162  66.1334891
  93.9720626   9.5958905  66.6748706  85.7218322  14.4445963  78.9875448
  86.0305448  14.1995110  79.8598148  86.5193804  14.6492601  78.4994318
  85.7438934  16.5983873  71.2180825  85.3043924  16.1060251  71.9113681
  86.4947051  16.0556840  70.9772900  78.2231273  12.7895413  71.2205453
  79.0489293  12.4899185  70.8404096  77.8725325  12.0203036  71.6695241
  83.1912806  12.1421882  73.2903126  82.5692815  11.4792587  72.9905354
  83.8617673  12.1683014  72.6076774  76.4239878  10.7081740  72.1794386
  75.5871786  10.2803914  71.9978387  76.3963523  10.9014183  73.1165177
  93.7492179  11.1644793  82.1636769  92.9587723  11.1468932  81.6241269
  93.5125534  11.7033087  82.9185806  82.7526313  10.6925805  66.7661587
  82.9014433  11.3761269  66.1128260  83.5592757  10.6730895  67.2811043
  95.3708251  10.4334201  79.7211519  95.0793059  10.7964181  80.5574980
  94.7580382   9.7201209  79.5424851  80.5078946   6.7190983  67.7722656
  80.2624988   5.8153313  67.9702866  80.6774861   6.7208133  66.8302134
  86.2521719  13.1873935  64.2373334  85.6795686  13.8064123  63.7843806
  86.8254512  13.7373297  64.7713256  89.4718978  13.4711086  65.3681916
  90.4049652  13.4056647  65.5714792  89.3842191  14.3067352  64.9096449
  92.1006995  12.7876956  62.3285864  92.0220627  12.4536820  63.2221622
  92.9216662  13.2798724  62.3277336  86.5207210   8.5752494  83.0390044
  87.4410219   8.7531093  83.2330090  86.4856793   7.6308540  82.8869743
  75.7389375   3.7691088  71.9643318  75.4192159   2.9156396  71.6717692
  75.1922803   3.9839666  72.7201286  79.5169282   6.4853529  75.6812825
  79.7355292   7.4170637  75.7000859  79.9295056   6.1261503  76.4667629
  75.6077635   7.3893999  73.9336440  74.9141106   6.9747952  73.4206394
  76.3550626   7.4314536  73.3369859  77.5214377   7.3212253  71.8102455
  77.4985065   7.4199941  70.8584338  77.8315014   8.1677404  72.1319621
  80.1801755   9.3788408  75.9249069  81.1345009   9.3472351  75.8579001
  79.9814279   8.9179032  76.7399295  80.7701137   7.9489524  78.4919867
  81.5894026   8.4433603  78.5154704  81.0437945   7.0321492  78.4637434
  78.5351984  14.9208028  72.9419267  78.4006452  14.1608429  72.3757265
  78.1184046  15.6448928  72.4748056  89.6710947  10.1044951  61.9495842
  90.3746797  10.3094954  62.5653498  88.9473596  10.6721713  62.2144926
  81.6921110  15.8177345  73.1537710  81.5753494  16.7622777  73.0516400
  80.8713556  15.5150906  73.5423509  91.5797644  10.5427481  63.9994302
  92.4143248  10.1108679  63.8171777  91.4181987  10.3709494  64.9271197
  88.5489444   9.3508506  84.6904204  89.4180603   9.5249158  84.3290839
  88.0696195  10.1702923  84.5679934  82.7175624  16.4705607  76.3693638
  83.6202871  16.5029217  76.6860133  82.4912994  15.5406058  76.3839974
  84.4729226  15.2236593  73.0303717  83.5224857  15.2238455  72.9168089
  84.7761712  14.4769328  72.5139751 100.2081919  21.0597132  74.0949479
 100.8460329  20.9403879  73.3912819 100.0902762  22.0077976  74.1537431
  97.0171626  21.0124560  74.0311004  96.6790137  20.8965624  73.1431539
  97.8861394  20.6115725  74.0112010  92.8758441  22.8660036  70.0207895
  92.3123306  22.7749973  69.2524183  92.7610836  22.0459941  70.5010387
  97.4991409  22.1659411  79.9897209  97.4880049  21.7712210  79.1177713
  97.6612048  21.4325484  80.5830981  90.4222873  24.3611228  72.8592115
  91.2144165  24.0202052  72.4438415  90.6619523  24.4706203  73.7794269
  98.4558000  26.5331004  65.3322360  97.8045980  27.1185084  64.9456373
  99.2502363  27.0637199  65.3917397  92.3813627  23.6220141  65.7309494
  93.1544503  23.0749128  65.5922370  92.7339026  24.4864390  65.9423955
  94.2198670  24.9496523  78.9376393  93.9288536  25.8542154  78.8223060
  94.8555654  24.9913051  79.6520463  95.1454877  22.3273372  75.5277753
  95.7418449  22.1029394  74.8134716  95.2029848  21.5858117  76.1303201
  94.7179905  19.7812807  63.3627944  94.9705426  19.2594328  62.6011407
  93.7804464  19.6178953  63.4654628  99.7623188  18.7848585  71.1702687
 100.5486277  18.3668009  70.8193104 100.0261892  19.6894678  71.3384336
  99.9333265  24.2221436  65.8691344  99.2979098  24.2956062  66.5812249
  99.6030672  24.8115035  65.1910423 105.1631615  18.7223819  72.0735666
 105.8956787  18.1523036  72.3073495 104.4070971  18.3345419  72.5142171
  94.4376194  21.6840913  65.5652319  94.3212452  21.0085816  66.2333403
  94.5478454  21.1973287  64.7484472  96.7807735  21.1451060  69.2699008
  96.4165942  20.6181681  69.9811930  97.6374851  20.7549529  69.0965494
 102.6857035  12.4345393  76.5330274 102.3540360  13.3040804  76.3091489
 102.0902649  12.1181677  77.2124305  96.4213222  16.1740960  64.2660357
  96.5887624  17.0421196  64.6330828  96.2310391  16.3368242  63.3421646
  99.1788555  24.6357939  75.9326187  98.8789278  25.5382978  75.8241994
  98.8339614  24.3690122  76.7847340  92.6301036  21.0871736  71.9662891
  91.7051533  20.9547950  72.1740583  92.8785449  21.8665955  72.4632834
 102.5785699  17.1540479  73.6123624 101.6702576  17.0855887  73.3182385
 102.5273294  17.6312424  74.4405450  96.4002443  18.6298617  65.2507024
  96.2802068  19.0755668  66.0892504  95.7055031  18.9783935  64.6920562
  89.9909847  20.7305009  72.8006681  90.1202228  20.9839488  73.7146092
  89.3107299  21.3232717  72.4811336  94.1609335  31.4002259  68.8997155
  94.0833364  32.3510084  68.9785635  93.5570978  31.0548132  69.5572081
  96.6526564  18.5730125  81.5558522  95.8759898  19.1324045  81.5461386
  97.2917127  19.0586908  82.0773392 104.4447345  15.3556917  75.3901498
 103.8021725  15.6489451  74.7441293 103.9402274  15.2409838  76.1954695
 102.0987509  19.1020091  66.0787358 103.0105365  19.3347477  65.9035055
 101.5897156  19.6857135  65.5162436  94.9072937  21.3815578  81.1176489
  95.6487621  21.9200622  80.8411312  94.2009922  22.0081867  81.2748040
 100.3828276  23.5244718  79.7148650 100.7911632  23.0827129  78.9703282
  99.6605538  22.9497346  79.9682843  96.7359346  18.4617325  77.0882207
  97.5820542  18.8856739  77.2316856  96.6757984  17.8050949  77.7820770
 100.7057091  24.0845909  73.4700939 100.0765953  24.2491623  72.7677007
 100.3182753  24.4987519  74.2411903 104.5846323  25.0200347  70.8245303
 103.8997361  25.3999248  70.2742336 104.6690172  25.6295674  71.5577251
  99.8858792  16.1221694  78.7463381  99.6419724  16.8763754  78.2097656
 100.1618722  16.5007041  79.5810628 101.8397254  22.6660306  77.4240646
 102.0514150  23.3092066  76.7475027 101.7927003  21.8322622  76.9562576
  99.4423483  15.2778127  74.3277218  98.5807962  15.5759380  74.6193956
  99.4685918  15.4948525  73.3958251  96.2585053  23.8220317  70.7351024
  96.7223398  24.1008020  69.9455647  95.9941851  22.9203762  70.5524115
  93.1509134  23.3691799  73.6730787  93.7210491  23.7979067  73.0348272
  93.7417246  23.0874383  74.3714973  95.1953939  19.9443469  67.5440589
  95.8977982  20.3964513  68.0114516  94.8634567  19.3027288  68.1720482
  93.6434300  18.5355226  81.9191799  93.0132961  19.2171507  82.1527195
  93.5370388  18.4238308  80.9744937  88.9379273  18.2027022  72.8457723
  88.1478327  18.4584551  72.3697833  89.4290520  19.0175360  72.9509763
 102.9543082  25.5432261  75.5963004 103.7760526  25.1412449  75.3145685
 102.9505485  25.4400495  76.5479119  90.8894018  18.5671601  69.8041200
  90.0925182  18.6790296  70.3224695  90.6619610  18.9058254  68.9382090
  96.7199686  25.0916305  77.7523714  96.7844118  25.5536712  78.5881886
  96.0110610  24.4613670  77.8806024  87.2216976  18.4557513  75.2772714
  87.4725014  19.3404523  75.5430290  87.7576524  18.2762114  74.5047805
 111.0449075  21.8871010  71.9447975 110.2912784  21.3178408  71.7891980
 111.1796617  21.8533674  72.8918610  96.4347704  26.7584412  67.6202694
  96.2993378  27.6035948  68.0487542  96.9757516  26.9603690  66.8568628
  92.9215043  12.8375992  84.2817050  92.5281989  12.2842191  84.9564694
  93.7381183  13.1486570  84.6723567  89.8877101  24.2759850  68.1930620
  90.4001621  25.0703100  68.3436184  90.5399814  23.5786141  68.1264221
  91.6971986  27.3925606  70.2753373  91.8738614  28.3143571  70.0874357
  92.4928819  27.0784026  70.7047753  95.8383004  14.2533871  81.8737306
  96.5792718  14.8541024  81.7941769  96.0700927  13.5111509  81.3155349
  90.9824342  19.4390238  80.1515536  90.8677857  18.5375496  80.4522635
  90.1268860  19.6853935  79.8000352  98.0616180  27.3807979  81.7503037
  97.6180034  26.5944357  81.4323941  98.7233393  27.5687129  81.0846927
  92.8203301  28.9103780  76.2763715  93.3710726  28.7820844  75.5040709
  91.9814777  29.2098669  75.9258608 100.1597418  27.6610779  79.7784438
 100.1415893  28.4819660  79.2864707 101.0817338  27.5364854  80.0034579
  96.6170472  25.1754908  80.6207946  97.1498809  24.4143196  80.3907254
  96.0884553  24.8828560  81.3632101  87.8526018  22.6048504  68.9690190
  88.6901240  23.0145513  68.7523898  88.0304285  21.6647947  68.9390384
  99.7490450  20.2723585  64.6574023  99.2337073  21.0428190  64.8962410
  99.4767758  19.5988721  65.2807084  97.3337561  15.1173286  69.7159261
  96.4779157  14.7280136  69.5364900  97.7464513  15.1965247  68.8559047
  98.8636707  12.6519629  74.1150821  98.3601503  12.6149764  73.3018626
  99.1567314  13.5612372  74.1747478  95.1079593  12.7358359  73.1217003
  95.9732590  12.5401168  72.7622892  95.1757102  12.5068711  74.0486360
 104.7224724  23.0255940  66.5927197 103.9454167  22.6867099  66.1482359
 105.4016205  23.0308563  65.9182162  99.5376753  18.1450677  66.4833804
  99.2326889  18.4596826  67.3343947 100.4907195  18.2232097  66.5261137
  97.9823185  24.3040901  68.1326758  97.4544546  23.5693660  67.8199996
  97.4810688  25.0815577  67.8866727 102.9616031  22.4989921  73.2493805
 102.3039705  23.1889182  73.3373933 103.7656430  22.8886353  73.5927791
  92.7141912  14.9660567  70.4933370  93.2885664  14.7435748  69.7606563
  93.3012895  15.0349261  71.2461971 101.7721490  20.8534294  71.2997746
 102.2853371  21.4864286  71.8019456 102.4222714  20.2535489  70.9341106
  93.0411500  16.9965028  64.5129255  92.2048812  17.3339714  64.8338530
  92.9016269  16.8614008  63.5756392  95.0164580  11.8401816  69.2208439
  94.3628992  11.5250833  68.5965054  94.9745054  11.2177556  69.9468262
  96.1275785  22.1221111  61.1361731  95.2202847  21.8910364  61.3352880
  96.6246817  21.3258730  61.3235713  99.0343864  30.8318618  64.0558417
  98.3605563  31.1350315  64.6643375  99.4209686  31.6347698  63.7063874
  98.2502321  18.3283749  73.5456087  97.3324882  18.5498696  73.3877775
  98.6662464  18.4030060  72.6867794  99.0337368  19.7275165  68.6758767
  99.7809187  20.2396562  68.3665889  99.3028958  19.4059218  69.5363161
  97.3064018  22.2233706  65.6585721  96.3975238  21.9392738  65.7558191
  97.3359102  22.6432784  64.7989028 102.5383286  25.8340295  69.4276889
 102.0845613  24.9931205  69.4842079 101.9077253  26.4701694  69.7651669
 101.4816205  16.7632281  70.6577556 100.7438962  16.2509667  70.9887799
 101.7342979  16.3232663  69.8460833 100.9816225  27.6716792  70.3626707
 101.2739199  28.2321849  69.6439073 101.4914846  27.9645353  71.1179866
  87.8752189  19.9439220  69.6400924  87.6776589  19.3508580  68.9151990
  87.3198853  19.6391430  70.3576862  95.8548912  19.8362326  71.7595517
  95.9097522  18.8836163  71.6837993  95.0440115  19.9921765  72.2436815
  97.0040106  23.7642449  62.9973800  96.5659536  23.0478308  62.5379437
  97.7450547  23.9918564  62.4358891  93.7941272  18.4539386  69.5185896
  92.9809138  18.7533557  69.9251088  94.2900267  18.0595075  70.2360378
  95.9449850  28.4497143  71.4520160  95.9026029  28.6757989  70.5228692
  96.8612549  28.2160518  71.6005961  99.3915484  18.9181210  78.3500789
  99.7464872  19.1452684  79.2095255 100.0387615  19.2499587  77.7278045
 105.1213221  22.0399646  69.0550118 104.9831120  22.2301242  68.1271308
 104.7649440  22.8019029  69.5118170  93.2855347  16.0257742  75.1347131
  93.9254726  15.8846501  74.4370094  92.4532878  15.7392255  74.7585732
 105.1482601  24.1076173  74.0661390 105.5819107  24.0151462  74.9144444
 105.8614181  24.0833674  73.4281406  94.0615651  25.3260172  71.2482123
  94.8556250  24.8310492  71.0464698  93.3507343  24.7978035  70.8849829
  98.8810496  27.7078267  75.5994491  98.9347518  28.2769204  76.3672206
  98.0125277  27.8780153  75.2348528  90.3698415  19.4703254  67.3241876
  89.4396003  19.4087709  67.5411838  90.4655887  18.9479206  66.5278517
  90.2883964  15.9958066  69.9120117  90.5490781  16.9103400  69.8029278
  91.1101136  15.5282509  70.0616730  91.7608889  17.4095824  77.0818942
  92.4331942  17.2013186  76.4331591  90.9338675  17.2117910  76.6424174
 106.0098150  24.1499874  76.5994275 106.2034040  25.0545685  76.8453550
 105.9098768  23.6907293  77.4332860  97.6634461  14.0357765  79.0984603
  97.0162376  14.7347714  79.0049079  98.4335476  14.4693909  79.4660851
 101.0713259  24.3006617  82.1735156 100.9198765  24.0717168  81.2565240
 101.0617938  25.2577218  82.1866501  97.8398595  21.8738529  77.1581422
  98.7690655  22.0249689  76.9850390  97.4189625  21.9622550  76.3030069
  96.6386927  25.8989194  74.9279960  96.4998013  25.5307978  75.8005898
  95.8501523  26.4136833  74.7563918  97.2335079  30.9998290  66.2705497
  97.4086835  30.5286334  67.0851119  96.5467867  31.6264057  66.4986757
  98.1892142  25.2770797  72.3168798  97.8541975  25.2371567  73.2126448
  97.6896088  24.6115513  71.8439208  92.1636386  20.6838427  77.8421379
  92.0256184  19.9518665  78.4432918  93.0741310  20.5947327  77.5605567
 101.1251334  22.6226831  62.5905857 100.5080505  21.8973659  62.4938910
 100.6567822  23.3836191  62.2472932  94.7918687  20.3958386  77.3305059
  95.5018305  19.7551578  77.2891677  94.7487995  20.6471281  78.2531239
 102.7805466  27.3325739  80.2511638 102.7218012  26.6484959  79.5842221
 103.1824984  28.0744729  79.7992264  93.5047621  17.3823604  79.1500698
  92.9684978  16.9314342  79.8022294  92.9164329  17.5169513  78.4071162
  91.7996164  34.1487653  73.0445357  92.0392763  34.7806177  73.7224375
  90.9565361  33.7975693  73.3310716  92.9149880  16.8412255  61.7127162
  92.0379346  16.7201056  61.3489408  93.3907633  16.0498334  61.4606050
 102.7822873  25.2965323  78.4825618 101.8949652  24.9591245  78.6052016
 103.3521424  24.5648354  78.7194383  84.4352020  21.6289415  71.8068669
  85.1223060  21.3151145  71.2189684  84.2800149  22.5330780  71.5335920
  89.2386742  16.5179612  76.2353693  89.1544931  15.9105281  75.5004103
  88.4169448  17.0088630  76.2363189  96.3124026  29.9566776  75.4486861
  96.2394198  30.7621747  75.9606165  95.8701419  30.1558741  74.6234882
  96.1013806  29.1938546  68.9589682  95.3181328  29.7360226  69.0527907
  96.8006551  29.7112525  69.3583923  99.4110456  15.0033175  71.6023888
  99.9079155  14.2503137  71.2824958  98.6397437  15.0397492  71.0367097
 107.2640213  20.7073541  73.2442179 107.2530090  21.5898256  72.8736112
 106.3957593  20.3545091  73.0496716  98.7722710  29.8553610  77.6045019
  99.4850682  30.4901074  77.5320921  98.2812738  29.9517476  76.7885021
 100.4940237  23.7604862  69.1762311  99.5596515  23.8806325  69.0067015
 100.6716905  22.8577329  68.9122321  95.9945425  17.1450558  71.3295572
  95.6243212  16.5921598  72.0176478  96.4904517  16.5408692  70.7770572
 103.8812788  19.6022182  69.7112345 104.3473240  20.4350173  69.6372648
 104.3320288  19.1367163  70.4157604  93.8234623  27.6048053  78.4250590
  94.5244083  28.2384536  78.5779984  93.3529738  27.9462785  77.6646229
 101.9489019  25.9466003  66.7098497 102.2248863  25.8322597  67.6192371
 101.0793518  25.5483488  66.6710670 101.6235909  20.1592661  76.2503141
 100.9707359  20.4068568  75.5955593 102.0016289  19.3456799  75.9165618
  98.5843083  30.1952354  70.3531311  98.7665478  29.3774010  70.8159063
  99.4076069  30.4120046  69.9156201  98.9185249  29.1220539  67.6146359
  99.4473015  28.6112993  67.0016521  99.1813468  28.8063069  68.4791892
  97.6723482  20.9012472  82.7369178  96.9964119  20.8006601  83.4071553
  98.4951116  20.7451685  83.2005175  89.4202341  27.1384408  75.3581693
  90.0055778  26.3928096  75.4909597  89.2227180  27.4488365  76.2418357
  92.2740997  30.1735656  70.3744135  91.6051372  30.6581783  69.8908175
  92.1353866  30.4204876  71.2887514  84.0119996  19.7090008  74.0786136
  84.0504096  19.1753599  74.8723254  83.5060289  19.1825214  73.4597113
  96.4146265  32.2079399  76.9726794  96.9664573  32.3711021  77.7375879
  96.7552459  32.7983837  76.3006818  91.3910758  14.5554549  77.5748678
  91.4552085  15.4169380  77.1626076  91.3277879  13.9428551  76.8421037
  90.8663031  16.6277681  81.2221713  91.4935070  16.2454759  81.8359237
  90.0090950  16.4091883  81.5877405 101.2657139  27.0340657  82.8275448
 101.8097043  27.6470615  82.3330403 100.6843984  27.5920235  83.3442461
  87.6428574  18.4354111  67.1540067  87.9382015  17.5264789  67.1007121
  86.7416609  18.4141850  66.8321070  99.5514652  30.1561375  73.9590476
  99.4265792  29.3551114  73.4501421 100.2093744  30.6507568  73.4704446
  91.1722821  16.5110107  73.1367616  90.4509406  17.1246075  72.9975089
  91.9616076  17.0467872  73.0584262 101.6149561  27.9570395  75.5870026
 100.6679896  27.8375746  75.5148353 101.9632334  27.0692893  75.6696287
  93.9749134  13.8464534  79.4108268  94.4983536  14.0926830  80.1734577
  93.7561467  14.6784568  78.9911405  89.3716415  16.1168208  67.2779393
  89.0429121  15.2365587  67.0954499  89.7255786  16.0615877  68.1655782
  98.6195994  27.7523111  71.7874378  98.4720957  26.8239818  71.9681948
  99.4449488  27.7743202  71.3031453  92.4858238  16.4041178  67.6454870
  92.8254311  16.9327099  66.9233479  92.9330359  16.7421584  68.4213437
 102.2230116  28.5751670  72.8739251 103.1476663  28.3694531  72.7363702
 102.0545419  28.3268071  73.7828592  95.1801679  14.7878229  77.0957938
  94.8398500  13.9886042  77.4978618  94.4740685  15.0879940  76.5234772
  95.8318151  11.8727541  75.5485261  96.6544220  11.3988019  75.4264152
  96.0756215  12.6518025  76.0483948  94.4726386  14.9015800  65.8448163
  95.1934748  15.2797052  65.3411880  93.8491690  15.6204676  65.9483141
  98.6157508  15.6060949  66.7806495  98.8321123  16.4885586  66.4795324
  98.1351576  15.2147162  66.0512137  93.3556730  18.5646662  73.3577240
  93.2101310  18.8786965  74.2501521  92.8781933  19.1831562  72.8048139
  95.2153113  15.5549210  73.4058130  95.2014681  14.6590303  73.0690427
  95.9325541  15.5619873  74.0396416  97.0679243  15.9886550  75.4511257
  96.8097021  16.9103621  75.4495587  96.5364284  15.5916984  76.1411721
 102.0125432  29.0937337  68.2301342 102.1862310  28.5283760  67.4775195
 102.5054323  29.8938232  68.0480832  87.8302392  21.1052006  76.2964901
  87.2855860  21.8811814  76.4285175  88.7081742  21.4522811  76.1384023
  94.6190009  14.4363590  68.6745700  94.7405920  13.5080236  68.8736587
  94.3292051  14.4502276  67.7624015  97.4881199  12.1218500  71.8112419
  97.5102896  12.1857834  70.8564399  97.9049258  11.2823009  72.0052926
 107.8664823  21.8573760  69.8491642 108.3095969  21.1081085  69.4510765
 106.9891334  21.8483896  69.4665374 103.0000605  28.4104101  65.3298241
 103.6951509  29.0310794  65.5485555 103.3423755  27.5599453  65.6050618
  88.6168414  20.2321902  79.1895058  87.8750150  20.3804538  79.7759688
  88.2961158  20.4930168  78.3261807 104.8992028  25.8603807  66.8585571
 105.4243352  26.1991080  66.1334891 104.8114380  24.9250822  66.6748706
  96.5612076  29.7737881  78.9875448  96.8699203  29.5287027  79.8598148
  97.3587558  29.9784519  78.4994318  96.5832688  31.9275790  71.2180825
  96.1437679  31.4352169  71.9113681  97.3340805  31.3848758  70.9772900
  89.0625027  28.1187331  71.2205453  89.8883047  27.8191103  70.8404096
  88.7119079  27.3494954  71.6695241  94.0306561  27.4713799  73.2903126
  93.4086570  26.8084504  72.9905354  94.7011428  27.4974931  72.6076774
  87.2633633  26.0373658  72.1794386  86.4265541  25.6095832  71.9978387
  87.2357278  26.2306101  73.1165177  94.1031088  15.9495587  82.8835632
  94.1519244  16.8257710  82.5013402  94.6453602  15.4072980  82.3107275
 104.5885934  26.4936711  82.1636769 103.7981478  26.4760849  81.6241269
 104.3519288  27.0325004  82.9185806 104.7083809  23.3429177  79.4769498
 104.7581814  23.1779184  80.4185021 104.5997732  22.4756436  79.0867379
  93.5920068  26.0217723  66.7661587  93.7408188  26.7053187  66.1128260
  94.3986511  26.0022813  67.2811043 101.9987571  19.3260105  80.7928805
 102.8997434  19.1866570  80.5012802 102.0735546  19.4914560  81.7326982
  96.3330377  16.7026960  79.6381991  95.4633686  16.9960526  79.3664579
  96.5689857  17.2867405  80.3589255 106.2102006  25.7626119  79.7211519
 105.9186814  26.1256099  80.5574980 105.5974137  25.0493127  79.5424851
 107.4097688  23.3278998  72.2414090 108.2444579  23.7668802  72.4051650
 107.5456817  22.8517652  71.4222335 104.4589194  20.8858733  78.1891577
 104.9343316  21.0786379  77.3810429 103.5354759  20.9417919  77.9434961
  91.3472701  22.0482900  67.7722656  91.1018742  21.1445230  67.9702866
  91.5168615  22.0500051  66.8302134  99.0369410  12.9206577  77.1547411
  99.5551354  13.6567604  76.8293900  98.6824543  13.2270570  77.9894170
  90.6168348  17.7811258  65.2708817  89.9237593  17.8555613  64.6148853
  90.3720100  17.0171602  65.7930334  97.0915473  28.5165853  64.2373334
  96.5189440  29.1356040  63.7843806  97.6648267  29.0665215  64.7713256
 103.1590863  17.7624493  76.4219883 104.1108286  17.8622591  76.4432107
 102.9894313  16.9702762  76.9317967 101.1805242  14.8480076  76.6079284
 100.5855175  15.1285089  75.9125773 100.8954939  15.3373977  77.3796025
 100.3112733  28.8003003  65.3681916 101.2443406  28.7348565  65.5714792
 100.2235946  29.6359270  64.9096449 102.9400750  28.1168874  62.3285864
 102.8614381  27.7828737  63.2221622 103.7610416  28.6090642  62.3277336
 105.6378941  20.9830613  75.5362183 105.6055261  20.0446614  75.7221866
 106.2479564  21.0614650  74.8028008  97.4762272  19.8526666  61.5789387
  98.4221376  19.7232874  61.6477805  97.0976517  19.1141328  62.0558815
 105.7873429  17.7741656  75.5820466 105.2712478  16.9900113  75.3950395
 106.6713378  17.4460373  75.7466985 111.4555491  22.0446620  74.6768219
 112.1858879  21.7831908  75.2375923 110.8462436  21.3075342  74.7170287
 109.5370788  20.1854482  75.2742671 108.8103951  20.0510447  74.6659162
 109.1218075  20.4931311  76.0799389  97.3600964  23.9044412  83.0390044
  98.2803974  24.0823011  83.2330090  97.3250547  22.9600457  82.8869743
  95.6605189  17.7776642  61.5144272  94.7536644  17.4809755  61.5906986
  95.9381170  17.4806460  60.6478558  86.5783129  19.0983006  71.9643318
  86.2585913  18.2448314  71.6717692  86.0316557  19.3131584  72.7201286
  90.3563037  21.8145447  75.6812825  90.5749046  22.7462555  75.7000859
  90.7688810  21.4553421  76.4667629  97.2767254  12.3213532  67.6688513
  96.4667983  11.9760617  68.0443759  97.9651671  12.0121076  68.2576125
  95.2290902  17.3878652  85.0715574  95.1287629  18.3373009  85.0027665
  95.0112444  17.0596891  84.1991644  94.4303973  14.6363578  61.6556251
  95.2923137  14.9618476  61.9152068  94.6154318  13.8495073  61.1429317
  86.4471389  22.7185917  73.9336440  85.7534861  22.3039870  73.4206394
  87.1944380  22.7606454  73.3369859 102.5836610  13.5092104  68.7991474
 102.0035279  14.1676908  68.4169527 102.3172543  12.6869449  68.3878892
 101.0340176  12.9097162  71.0012794 101.5339955  13.0213696  70.1927113
 101.6775784  12.6058215  71.6413603  95.0922172  20.8175791  83.8880635
  94.6089254  21.6176151  84.0944524  95.1783111  20.8283736  82.9348079
  88.3608132  22.6504171  71.8102455  88.3378820  22.7491858  70.8584338
  88.6708768  23.4969322  72.1319621  91.0195510  24.7080326  75.9249069
  91.9738763  24.6764268  75.8579001  90.8208033  24.2470950  76.7399295
  91.6094892  23.2781442  78.4919867  92.4287781  23.7725521  78.5154704
  91.8831699  22.3613410  78.4637434 101.3661488  15.6692194  67.8547822
 100.4787343  15.9541845  67.6368017 101.7815477  15.5085958  67.0075099
 104.7176024  15.6938715  71.5702162 105.4936414  16.1835168  71.8426778
 103.9924158  16.1196770  72.0274031 107.1548583  16.4066335  72.6276102
 107.7493073  16.1662071  71.9169410 107.2275166  15.6873465  73.2549639
  89.3745738  30.2499945  72.9419267  89.2400206  29.4900346  72.3757265
  88.9577801  30.9740845  72.4748056 100.5104701  25.4336869  61.9495842
 101.2140551  25.6386872  62.5653498  99.7867350  26.0013631  62.2144926
 101.3402512  21.1846730  68.0698113 101.2837713  21.6415282  67.2305745
 101.8930854  20.4237415  67.8920955 105.1507318  16.9736462  68.8948232
 104.8944252  16.5733098  69.7256440 104.5260186  17.6880256  68.7698371
 109.4619655  19.7132535  71.4019523 108.9019213  19.7825725  72.1751085
 108.8563159  19.5373520  70.6819020  92.5314864  31.1469263  73.1537710
  92.4147248  32.0914695  73.0516400  91.7107310  30.8442824  73.5423509
 102.4191399  25.8719398  63.9994302 103.2537003  25.4400597  63.8171777
 102.2575742  25.7001412  64.9271197 102.0737291  22.3751512  65.3650642
 102.0186095  22.2095783  64.4239086 101.4483346  23.0827544  65.5212831
  86.8629806  17.6119576  79.1912064  87.5088669  17.1018530  79.6799289
  86.6546957  18.3488258  79.7655489  99.3883198  24.6800423  84.6904204
 100.2574358  24.8541076  84.3290839  98.9089950  25.4994840  84.5679934
  95.3833416  11.8759621  64.9435960  95.3712086  12.8201460  65.1004231
  96.2756838  11.6929766  64.6495421  93.5569378  31.7997524  76.3693638
  94.4596625  31.8321135  76.6860133  93.3306748  30.8697975  76.3839974
  95.3122980  30.5528511  73.0303717  94.3618611  30.5530373  72.9168089
  95.6155466  29.8061246  72.5139751  91.2027297  14.7587193  83.2887078
  92.0658758  14.4023998  83.4990403  90.6292708  14.4201088  83.9762482
 111.0475674  36.3889049  74.0949479 111.6854084  36.2695797  73.3912819
 110.9296517  37.3369893  74.1537431 107.8565380  36.3416477  74.0311004
 107.5183892  36.2257542  73.1431539 108.7255148  35.9407643  74.0112010
 103.7152196  38.1951954  70.0207895 103.1517061  38.1041891  69.2524183
 103.6004591  37.3751858  70.5010387 108.3385163  37.4951329  79.9897209
 108.3273804  37.1004127  79.1177713 108.5005803  36.7617402  80.5830981
 101.2616628  39.6903145  72.8592115 102.0537920  39.3493970  72.4438415
 101.5013278  39.7998120  73.7794269 109.2951755  41.8622922  65.3322360
 108.6439734  42.4477002  64.9456373 110.0896117  42.3929116  65.3917397
 103.2207382  38.9512059  65.7309494 103.9938258  38.4041046  65.5922370
 103.5732781  39.8156308  65.9423955 105.0592424  40.2788441  78.9376393
 104.7682290  41.1834072  78.8223060 105.6949409  40.3204969  79.6520463
 105.9848631  37.6565289  75.5277753 106.5812203  37.4321312  74.8134716
 106.0423603  36.9150035  76.1303201 105.5573659  35.1104725  63.3627944
 105.8099180  34.5886246  62.6011407 104.6198219  34.9470870  63.4654628
 110.6016942  34.1140503  71.1702687 111.3880032  33.6959926  70.8193104
 110.8655647  35.0186595  71.3384336 110.7727020  39.5513353  65.8691344
 110.1372853  39.6247980  66.5812249 110.4424426  40.1406952  65.1910423
 116.0025369  34.0515736  72.0735666 116.7350541  33.4814953  72.3073495
 115.2464725  33.6637337  72.5142171 105.2769948  37.0132831  65.5652319
 105.1606206  36.3377734  66.2333403 105.3872208  36.5265205  64.7484472
 107.6201489  36.4742978  69.2699008 107.2559696  35.9473599  69.9811930
 108.4768605  36.0841447  69.0965494 113.5250790  27.7637310  76.5330274
 113.1934115  28.6332721  76.3091489 112.9296403  27.4473594  77.2124305
 107.2606976  31.5032878  64.2660357 107.4281378  32.3713114  64.6330828
 107.0704145  31.6660159  63.3421646 110.0182309  39.9649856  75.9326187
 109.7183032  40.8674895  75.8241994 109.6733369  39.6982040  76.7847340
 103.4694791  36.4163653  71.9662891 102.5445287  36.2839867  72.1740583
 103.7179204  37.1957873  72.4632834 113.4179453  32.4832397  73.6123624
 112.5096330  32.4147805  73.3182385 113.3667049  32.9604342  74.4405450
 107.2396197  33.9590535  65.2507024 107.1195822  34.4047586  66.0892504
 106.5448785  34.3075853  64.6920562 100.8303602  36.0596927  72.8006681
 100.9595983  36.3131406  73.7146092 100.1501053  36.6524635  72.4811336
 105.0003089  46.7294177  68.8997155 104.9227119  47.6802002  68.9785635
 104.3964733  46.3840049  69.5572081 107.4920319  33.9022042  81.5558522
 106.7153653  34.4615962  81.5461386 108.1310882  34.3878825  82.0773392
 115.2841099  30.6848835  75.3901498 114.6415480  30.9781368  74.7441293
 114.7796028  30.5701755  76.1954695 112.9381263  34.4312008  66.0787358
 113.8499119  34.6639395  65.9035055 112.4290910  35.0149052  65.5162436
 105.7466691  36.7107496  81.1176489 106.4881376  37.2492540  80.8411312
 105.0403677  37.3373784  81.2748040 111.2222031  38.8536636  79.7148650
 111.6305387  38.4119047  78.9703282 110.4999292  38.2789264  79.9682843
 107.5753101  33.7909243  77.0882207 108.4214296  34.2148656  77.2316856
 107.5151739  33.1342867  77.7820770 111.5450845  39.4137827  73.4700939
 110.9159708  39.5783541  72.7677007 111.1576508  39.8279436  74.2411903
 115.4240077  40.3492265  70.8245303 114.7391116  40.7291166  70.2742336
 115.5083927  40.9587591  71.5577251 110.7252546  31.4513611  78.7463381
 110.4813478  32.2055672  78.2097656 111.0012477  31.8298959  79.5810628
 112.6791009  37.9952224  77.4240646 112.8907904  38.6383983  76.7475027
 112.6320757  37.1614540  76.9562576 110.2817238  30.6070044  74.3277218
 109.4201717  30.9051298  74.6193956 110.3079673  30.8240443  73.3958251
 107.0978807  39.1512235  70.7351024 107.5617153  39.4299938  69.9455647
 106.8335605  38.2495679  70.5524115 103.9902888  38.6983716  73.6730787
 104.5604245  39.1270985  73.0348272 104.5811000  38.4166301  74.3714973
 106.0347693  35.2735387  67.5440589 106.7371737  35.7256431  68.0114516
 105.7028322  34.6319206  68.1720482 104.4828055  33.8647144  81.9191799
 103.8526716  34.5463425  82.1527195 104.3764143  33.7530225  80.9744937
  99.7773027  33.5318940  72.8457723  98.9872081  33.7876468  72.3697833
 100.2684275  34.3467278  72.9509763 113.7936837  40.8724179  75.5963004
 114.6154281  40.4704366  75.3145685 113.7899240  40.7692413  76.5479119
 101.7287773  33.8963519  69.8041200 100.9318936  34.0082213  70.3224695
 101.5013365  34.2350171  68.9382090 107.5593440  40.4208222  77.7523714
 107.6237873  40.8828630  78.5881886 106.8504364  39.7905587  77.8806024
  98.0610730  33.7849430  75.2772714  98.3118769  34.6696440  75.5430290
  98.5970279  33.6054032  74.5047805 107.2741458  42.0876330  67.6202694
 107.1387133  42.9327866  68.0487542 107.8151271  42.2895607  66.8568628
 103.7608798  28.1667910  84.2817050 103.3675743  27.6134108  84.9564694
 104.5774938  28.4778488  84.6723567 100.7270855  39.6051768  68.1930620
 101.2395376  40.3995018  68.3436184 101.3793568  38.9078058  68.1264221
 102.5365740  42.7217524  70.2753373 102.7132368  43.6435489  70.0874357
 103.3322574  42.4075943  70.7047753 106.6776759  29.5825789  81.8737306
 107.4186472  30.1832942  81.7941769 106.9094681  28.8403427  81.3155349
 101.8218097  34.7682156  80.1515536 101.7071612  33.8667413  80.4522635
 100.9662614  35.0145853  79.8000352 108.9009934  42.7099896  81.7503037
 108.4573789  41.9236275  81.4323941 109.5627148  42.8979047  81.0846927
 103.6597056  44.2395698  76.2763715 104.2104481  44.1112761  75.5040709
 102.8208531  44.5390587  75.9258608 110.9991172  42.9902696  79.7784438
 110.9809648  43.8111577  79.2864707 111.9211093  42.8656771  80.0034579
 107.4564227  40.5046826  80.6207946 107.9892563  39.7435114  80.3907254
 106.9278308  40.2120478  81.3632101 110.6233922  25.6106892  76.1501588
 110.2798191  26.5008533  76.0740699 110.9912884  25.4208549  75.2871173
  98.6919772  37.9340422  68.9690190  99.5294994  38.3437430  68.7523898
  98.8698040  36.9939864  68.9390384 110.5884204  35.6015503  64.6574023
 110.0730828  36.3720107  64.8962410 110.3161513  34.9280639  65.2807084
 108.1731315  30.4465204  69.7159261 107.3172912  30.0572054  69.5364900
 108.5858267  30.5257164  68.8559047 109.7030462  27.9811547  74.1150821
 109.1995258  27.9441682  73.3018626 109.9961069  28.8904290  74.1747478
 105.9473348  28.0650277  73.1217003 106.8126345  27.8693085  72.7622892
 106.0150857  27.8360628  74.0486360 115.5618478  38.3547857  66.5927197
 114.7847921  38.0159017  66.1482359 116.2409959  38.3600481  65.9182162
 110.3770507  33.4742595  66.4833804 110.0720643  33.7888744  67.3343947
 111.3300950  33.5524015  66.5261137 108.8216939  39.6332818  68.1326758
 108.2938301  38.8985578  67.8199996 108.3204442  40.4107495  67.8866727
 113.8009785  37.8281839  73.2493805 113.1433460  38.5181100  73.3373933
 114.6050185  38.2178271  73.5927791 103.5535667  30.2952484  70.4933370
 104.1279419  30.0727666  69.7606563 104.1406649  30.3641179  71.2461971
 112.6115244  36.1826211  71.2997746 113.1247126  36.8156203  71.8019456
 113.2616468  35.5827407  70.9341106 103.8805254  32.3256945  64.5129255
 103.0442566  32.6631632  64.8338530 103.7410024  32.1905925  63.5756392
 105.8558335  27.1693733  69.2208439 105.2022747  26.8542751  68.5965054
 105.8138809  26.5469474  69.9468262 106.9669539  37.4513028  61.1361731
 106.0596601  37.2202282  61.3352880 107.4640571  36.6550648  61.3235713
 109.8737618  46.1610536  64.0558417 109.1999317  46.4642232  64.6643375
 110.2603440  46.9639616  63.7063874 109.0896075  33.6575667  73.5456087
 108.1718636  33.8790614  73.3877775 109.5056219  33.7321977  72.6867794
 109.8731123  35.0567083  68.6758767 110.6202942  35.5688480  68.3665889
 110.1422712  34.7351135  69.5363161 108.1457773  37.5525623  65.6585721
 107.2368992  37.2684656  65.7558191 108.1752857  37.9724702  64.7989028
 113.3777040  41.1632213  69.4276889 112.9239367  40.3223123  69.4842079
 112.7471007  41.7993611  69.7651669 112.3209960  32.0924199  70.6577556
 111.5832717  31.5801585  70.9887799 112.5736733  31.6524580  69.8460833
 111.8209980  43.0008710  70.3626707 112.1132954  43.5613767  69.6439073
 112.3308600  43.2937271  71.1179866 112.4221587  24.8700451  71.2519326
 112.7280464  24.0097814  70.9645241 113.1474192  25.4618071  71.0518320
  98.7145943  35.2731137  69.6400924  98.5170343  34.6800498  68.9151990
  98.1592607  34.9683348  70.3576862 106.6942667  35.1654244  71.7595517
 106.7491277  34.2128080  71.6837993 105.8833869  35.3213683  72.2436815
 107.8433861  39.0934367  62.9973800 107.4053291  38.3770226  62.5379437
 108.5844302  39.3210482  62.4358891 104.6335027  33.7831304  69.5185896
 103.8202892  34.0825474  69.9251088 105.1294021  33.3886992  70.2360378
 106.7843605  43.7789061  71.4520160 106.7419784  44.0049907  70.5228692
 107.7006304  43.5452435  71.6005961 110.2309239  34.2473128  78.3500789
 110.5858626  34.4744601  79.2095255 110.8781370  34.5791505  77.7278045
 115.9606976  37.3691564  69.0550118 115.8224874  37.5593160  68.1271308
 115.6043194  38.1310947  69.5118170 104.1249102  31.3549659  75.1347131
 104.7648481  31.2138418  74.4370094 103.2926632  31.0684173  74.7585732
 115.9876355  39.4368091  74.0661390 116.4212862  39.3443380  74.9144444
 116.7007936  39.4125591  73.4281406 104.9009406  40.6552090  71.2482123
 105.6950004  40.1602410  71.0464698 104.1901098  40.1269953  70.8849829
 109.7204250  43.0370185  75.5994491 109.7741272  43.6061121  76.3672206
 108.8519031  43.2072070  75.2348528 101.2092169  34.7995171  67.3241876
 100.2789757  34.7379627  67.5411838 101.3049641  34.2771124  66.5278517
 101.1277718  31.3249984  69.9120117 101.3884535  32.2395317  69.8029278
 101.9494890  30.8574427  70.0616730 102.6002643  32.7387741  77.0818942
 103.2725697  32.5305103  76.4331591 101.7732430  32.5409827  76.6424174
 116.8491905  39.4791792  76.5994275 117.0427795  40.3837602  76.8453550
 116.7492523  39.0199211  77.4332860 108.5028215  29.3649682  79.0984603
 107.8556130  30.0639632  79.0049079 109.2729231  29.7985826  79.4660851
 111.9107013  39.6298534  82.1735156 111.7592520  39.4009086  81.2565240
 111.9011693  40.5869136  82.1866501 108.6792350  37.2030447  77.1581422
 109.6084410  37.3541607  76.9850390 108.2583380  37.2914468  76.3030069
 107.4780682  41.2281112  74.9279960 107.3391767  40.8599896  75.8005898
 106.6895278  41.7428751  74.7563918 108.0728834  46.3290208  66.2705497
 108.2480589  45.8578251  67.0851119 107.3861622  46.9555974  66.4986757
 109.0285897  40.6062714  72.3168798 108.6935729  40.5663484  73.2126448
 108.5289842  39.9407430  71.8439208 103.0030141  36.0130344  77.8421379
 102.8649939  35.2810583  78.4432918 103.9135064  35.9239244  77.5605567
 111.9645088  37.9518749  62.5905857 111.3474259  37.2265577  62.4938910
 111.4961577  38.7128109  62.2472932 105.6312441  35.7250304  77.3305059
 106.3412060  35.0843496  77.2891677 105.5881749  35.9763198  78.2531239
 113.6199220  42.6617657  80.2511638 113.5611766  41.9776877  79.5842221
 114.0218738  43.4036647  79.7992264 104.3441375  32.7115522  79.1500698
 103.8078732  32.2606260  79.8022294 103.7558084  32.8461430  78.4071162
 102.6389919  49.4779571  73.0445357 102.8786517  50.1098095  73.7224375
 101.7959115  49.1267611  73.3310716 103.7543634  32.1704173  61.7127162
 102.8773101  32.0492974  61.3489408 104.2301387  31.3790251  61.4606050
 113.6216627  40.6257241  78.4825618 112.7343406  40.2883163  78.6052016
 114.1915178  39.8940272  78.7194383  95.2745774  36.9581333  71.8068669
  95.9616814  36.6443063  71.2189684  95.1193903  37.8622697  71.5335920
 100.0780497  31.8471529  76.2353693  99.9938685  31.2397199  75.5004103
  99.2563203  32.3380548  76.2363189 107.1517781  45.2858693  75.4486861
 107.0787952  46.0913665  75.9606165 106.7095174  45.4850659  74.6234882
 106.9407560  44.5230463  68.9589682 106.1575082  45.0652143  69.0527907
 107.6400305  45.0404443  69.3583923 110.2504210  30.3325093  71.6023888
 110.7472910  29.5795055  71.2824958 109.4791192  30.3689409  71.0367097
 118.1033968  36.0365458  73.2442179 118.0923844  36.9190174  72.8736112
 117.2351347  35.6837009  73.0496716 109.6116464  45.1845527  77.6045019
 110.3244436  45.8192992  77.5320921 109.1206493  45.2809393  76.7885021
 111.3333991  39.0896780  69.1762311 110.3990270  39.2098242  69.0067015
 111.5110660  38.1869247  68.9122321 106.8339179  32.4742476  71.3295572
 106.4636967  31.9213516  72.0176478 107.3298272  31.8700609  70.7770572
 114.7206542  34.9314099  69.7112345 115.1866995  35.7642091  69.6372648
 115.1714043  34.4659081  70.4157604 104.6628378  42.9339971  78.4250590
 105.3637837  43.5676454  78.5779984 104.1923493  43.2754702  77.6646229
 112.7882774  41.2757921  66.7098497 113.0642617  41.1614515  67.6192371
 111.9187272  40.8775405  66.6710670 112.6923205  27.2994686  73.7503247
 111.7786285  27.5298913  73.9185453 113.1216307  27.3833130  74.6017279
 112.4629664  35.4884578  76.2503141 111.8101114  35.7360486  75.5955593
 112.8410044  34.6748716  75.9165618 109.4236838  45.5244271  70.3531311
 109.6059232  44.7065927  70.8159063 110.2469824  45.7411964  69.9156201
 109.7579003  44.4512457  67.6146359 110.2866769  43.9404911  67.0016521
 110.0207223  44.1354987  68.4791892 108.5117237  36.2304389  82.7369178
 107.8357874  36.1298519  83.4071553 109.3344871  36.0743603  83.2005175
 100.2596096  42.4676326  75.3581693 100.8449533  41.7220014  75.4909597
 100.0620934  42.7780283  76.2418357 103.1134751  45.5027573  70.3744135
 102.4445126  45.9873701  69.8908175 102.9747621  45.7496794  71.2887514
  94.8513751  35.0381926  74.0786136  94.8897850  34.5045517  74.8723254
  94.3454043  34.5117132  73.4597113 107.2540020  47.5371317  76.9726794
 107.8058328  47.7002938  77.7375879 107.5946213  48.1275755  76.3006818
 102.2304513  29.8846467  77.5748678 102.2945839  30.7461297  77.1626076
 102.1671633  29.2720468  76.8421037 101.7056785  31.9569599  81.2221713
 102.3328824  31.5746676  81.8359237 100.8484704  31.7383801  81.5877405
 112.1050894  42.3632574  82.8275448 112.6490798  42.9762533  82.3330403
 111.5237739  42.9212153  83.3442461  98.4822328  33.7646028  67.1540067
  98.7775769  32.8556707  67.1007121  97.5810364  33.7433768  66.8321070
 110.3908407  45.4853292  73.9590476 110.2659546  44.6843032  73.4501421
 111.0487498  45.9799486  73.4704446 102.0116575  31.8402025  73.1367616
 101.2903161  32.4537992  72.9975089 102.8009831  32.3759790  73.0584262
 112.4543315  43.2862312  75.5870026 111.5073651  43.1667664  75.5148353
 112.8026088  42.3984810  75.6696287 104.8142889  29.1756451  79.4108268
 105.3377290  29.4218748  80.1734577 104.5955222  30.0076486  78.9911405
 100.2110170  31.4460126  67.2779393  99.8822876  30.5657505  67.0954499
 100.5649540  31.3907795  68.1655782 109.4589749  43.0815029  71.7874378
 109.3114711  42.1531736  71.9681948 110.2843242  43.1035119  71.3031453
 103.3251993  31.7333096  67.6454870 103.6648065  32.2619017  66.9233479
 103.7724113  32.0713502  68.4213437 113.0623870  43.9043587  72.8739251
 113.9870418  43.6986449  72.7363702 112.8939174  43.6559988  73.7828592
 106.0195434  30.1170146  77.0957938 105.6792254  29.3177959  77.4978618
 105.3134440  30.4171857  76.5234772 106.6711905  27.2019459  75.5485261
 107.4937975  26.7279937  75.4264152 106.9149969  27.9809943  76.0483948
 105.3120140  30.2307717  65.8448163 106.0328502  30.6088970  65.3411880
 104.6885444  30.9496594  65.9483141 109.4551263  30.9352866  66.7806495
 109.6714877  31.8177504  66.4795324 108.9745330  30.5439080  66.0512137
 104.1950484  33.8938579  73.3577240 104.0495065  34.2078882  74.2501521
 103.7175688  34.5123480  72.8048139 106.0546867  30.8841127  73.4058130
 106.0408436  29.9882221  73.0690427 106.7719295  30.8911791  74.0396416
 107.9072998  31.3178468  75.4511257 107.6490776  32.2395538  75.4495587
 107.3758038  30.9208902  76.1411721 112.8519187  44.4229255  68.2301342
 113.0256064  43.8575677  67.4775195 113.3448078  45.2230150  68.0480832
  98.6696146  36.4343924  76.2964901  98.1249614  37.2103732  76.4285175
  99.5475496  36.7814728  76.1384023 105.4583763  29.7655508  68.6745700
 105.5799674  28.8372154  68.8736587 105.1685805  29.7794194  67.7624015
 108.3274953  27.4510418  71.8112419 108.3496650  27.5149751  70.8564399
 108.7443012  26.6114927  72.0052926 113.8394359  43.7396019  65.3298241
 114.5345264  44.3602712  65.5485555 114.1817509  42.8891370  65.6050618
  99.4562168  35.5613820  79.1895058  98.7143904  35.7096455  79.7759688
  99.1354913  35.8222086  78.3261807 115.7385782  41.1895725  66.8585571
 116.2637106  41.5282997  66.1334891 115.6508135  40.2542740  66.6748706
 107.4005831  45.1029798  78.9875448 107.7092957  44.8578945  79.8598148
 108.1981313  45.3076437  78.4994318 107.4226443  47.2567708  71.2180825
 106.9831433  46.7644087  71.9113681 108.1734560  46.7140676  70.9772900
  99.9018782  43.4479249  71.2205453 100.7276802  43.1483021  70.8404096
  99.5512834  42.6786871  71.6695241 104.8700315  42.8005717  73.2903126
 104.2480324  42.1376422  72.9905354 105.5405182  42.8266849  72.6076774
  98.1027387  41.3665575  72.1794386  97.2659295  40.9387750  71.9978387
  98.0751032  41.5598019  73.1165177 104.9424843  31.2787505  82.8835632
 104.9912998  32.1549628  82.5013402 105.4847357  30.7364898  82.3107275
 115.4279688  41.8228628  82.1636769 114.6375232  41.8052767  81.6241269
 115.1913043  42.3616922  82.9185806 115.5477563  38.6721095  79.4769498
 115.5975568  38.5071102  80.4185021 115.4391487  37.8048354  79.0867379
 104.4313822  41.3509640  66.7661587 104.5801942  42.0345105  66.1128260
 105.2380265  41.3314730  67.2811043 112.8381326  34.6552023  80.7928805
 113.7391188  34.5158488  80.5012802 112.9129300  34.8206478  81.7326982
 107.1724131  32.0318877  79.6381991 106.3027440  32.3252444  79.3664579
 107.4083611  32.6159322  80.3589255 117.0495760  41.0918036  79.7211519
 116.7580568  41.4548017  80.5574980 116.4367891  40.3785044  79.5424851
 115.2982948  36.2150651  78.1891577 115.7737070  36.4078297  77.3810429
 114.3748514  36.2709837  77.9434961 102.1866455  37.3774818  67.7722656
 101.9412497  36.4737148  67.9702866 102.3562370  37.3791968  66.8302134
 109.8763165  28.2498494  77.1547411 110.3945109  28.9859521  76.8293900
 109.5218298  28.5562488  77.9894170 101.4562103  33.1103176  65.2708817
 100.7631347  33.1847531  64.6148853 101.2113854  32.3463519  65.7930334
 110.1275759  24.6698777  72.6748308 110.4077513  24.0021966  73.3008734
 110.9126366  24.8627873  72.1622972 107.9309228  43.8457771  64.2373334
 107.3583195  44.4647958  63.7843806 108.5042021  44.3957133  64.7713256
 113.9984617  33.0916411  76.4219883 114.9502040  33.1914509  76.4432107
 113.8288068  32.2994679  76.9317967 112.0198997  30.1771994  76.6079284
 111.4248929  30.4577007  75.9125773 111.7348694  30.6665895  77.3796025
 111.1506487  44.1294921  65.3681916 112.0837160  44.0640483  65.5714792
 111.0629700  44.9651188  64.9096449 113.7794504  43.4460791  62.3285864
 113.7008136  43.1120655  63.2221622 114.6004171  43.9382559  62.3277336
 116.4772695  36.3122531  75.5362183 116.4449015  35.3738531  75.7221866
 117.0873319  36.3906567  74.8028008 108.3156026  35.1818584  61.5789387
 109.2615131  35.0524792  61.6477805 107.9370271  34.4433245  62.0558815
 116.6267184  33.1033574  75.5820466 116.1106232  32.3192031  75.3950395
 117.5107132  32.7752291  75.7466985 114.2877911  26.8474590  71.5416279
 114.0902732  26.5389678  72.4259610 114.8977616  27.5736229  71.6714208
 108.1994719  39.2336330  83.0390044 109.1197728  39.4114929  83.2330090
 108.1644302  38.2892375  82.8869743 106.4998943  33.1068560  61.5144272
 105.5930399  32.8101673  61.5906986 106.7774924  32.8098378  60.6478558
  97.4176884  34.4274923  71.9643318  97.0979668  33.5740232  71.6717692
  96.8710312  34.6423502  72.7201286 101.1956791  37.1437364  75.6812825
 101.4142801  38.0754472  75.7000859 101.6082565  36.7845339  76.4667629
 108.1161009  27.6505450  67.6688513 107.3061737  27.3052535  68.0443759
 108.8045426  27.3412993  68.2576125 110.0451557  26.7283496  69.2912810
 110.5982596  27.1478950  69.9502833 110.2821644  25.8019245  69.3335766
 106.0684656  32.7170570  85.0715574 105.9681383  33.6664927  85.0027665
 105.8506199  32.3888809  84.1991644 105.2697728  29.9655495  61.6556251
 106.1316892  30.2910393  61.9152068 105.4548072  29.1786991  61.1429317
  97.2865144  38.0477835  73.9336440  96.5928615  37.6331788  73.4206394
  98.0338135  38.0898371  73.3369859 113.4230364  28.8384022  68.7991474
 112.8429033  29.4968826  68.4169527 113.1566297  28.0161366  68.3878892
 111.8733931  28.2389079  71.0012794 112.3733709  28.3505614  70.1927113
 112.5169539  27.9350132  71.6413603 105.9315927  36.1467709  83.8880635
 105.4483008  36.9468069  84.0944524 106.0176866  36.1575654  82.9348079
  99.2001886  37.9796089  71.8102455  99.1772574  38.0783776  70.8584338
  99.5102523  38.8261239  72.1319621 101.8589264  40.0372244  75.9249069
 102.8132518  40.0056186  75.8579001 101.6601788  39.5762867  76.7399295
 102.4488646  38.6073360  78.4919867 103.2681535  39.1017438  78.5154704
 102.7225454  37.6905328  78.4637434 112.2055242  30.9984112  67.8547822
 111.3181097  31.2833763  67.6368017 112.6209231  30.8377875  67.0075099
 115.5569778  31.0230633  71.5702162 116.3330169  31.5127085  71.8426778
 114.8317913  31.4488687  72.0274031 100.2139493  45.5791863  72.9419267
 100.0793961  44.8192264  72.3757265  99.7971555  46.3032763  72.4748056
 111.3498456  40.7628787  61.9495842 112.0534306  40.9678789  62.5653498
 110.6261105  41.3305549  62.2144926 112.1796266  36.5138648  68.0698113
 112.1231467  36.9707199  67.2305745 112.7324609  35.7529333  67.8920955
 115.9901072  32.3028380  68.8948232 115.7338006  31.9025015  69.7256440
 115.3653940  33.0172174  68.7698371 103.3708619  46.4761180  73.1537710
 103.2541003  47.4206613  73.0516400 102.5501065  46.1734742  73.5423509
 113.2585153  41.2011316  63.9994302 114.0930757  40.7692514  63.8171777
 113.0969496  41.0293330  64.9271197 112.9131045  37.7043429  65.3650642
 112.8579849  37.5387701  64.4239086 112.2877101  38.4119462  65.5212831
  97.7023560  32.9411494  79.1912064  98.3482424  32.4310448  79.6799289
  97.4940711  33.6780175  79.7655489 110.2276953  40.0092341  84.6904204
 111.0968112  40.1832993  84.3290839 109.7483704  40.8286758  84.5679934
 106.2227171  27.2051538  64.9435960 106.2105841  28.1493378  65.1004231
 107.1150593  27.0221684  64.6495421 104.3963133  47.1289442  76.3693638
 105.2990379  47.1613052  76.6860133 104.1700503  46.1989893  76.3839974
 106.1516735  45.8820429  73.0303717 105.2012366  45.8822290  72.9168089
 106.4549221  45.1353163  72.5139751 110.0379290  23.7994315  69.1981897
 109.2711686  23.2452802  69.3438579 110.4489995  23.8716184  70.0596049
 102.0421051  30.0879111  83.2887078 102.9052513  29.7315916  83.4990403
 101.4686462  29.7493005  83.9762482 114.5545950  53.5243872  70.0207895
 113.9910815  53.4333808  69.2524183 114.4398345  52.7043776  70.5010387
 112.1010382  55.0195063  72.8592115 112.8931674  54.6785888  72.4438415
 112.3407032  55.1290038  73.7794269 114.0601136  54.2803976  65.7309494
 114.8332012  53.7332963  65.5922370 114.4126535  55.1448226  65.9423955
 115.8986179  55.6080359  78.9376393 115.6076045  56.5125989  78.8223060
 116.5343163  55.6496886  79.6520463 116.8242386  52.9857207  75.5277753
 117.4205958  52.7613230  74.8134716 116.8817357  52.2441953  76.1303201
 116.3967414  50.4396642  63.3627944 116.6492935  49.9178164  62.6011407
 115.4591973  50.2762788  63.4654628 116.1163703  52.3424748  65.5652319
 115.9999961  51.6669652  66.2333403 116.2265963  51.8557122  64.7484472
 118.1000731  46.8324795  64.2660357 118.2675133  47.7005032  64.6330828
 117.9097900  46.9952077  63.3421646 114.3088545  51.7455571  71.9662891
 113.3839042  51.6131785  72.1740583 114.5572958  52.5249790  72.4632834
 118.0789951  49.2882453  65.2507024 117.9589577  49.7339504  66.0892504
 117.3842540  49.6367770  64.6920562 111.6697356  51.3888845  72.8006681
 111.7989737  51.6423323  73.7146092 110.9894808  51.9816553  72.4811336
 115.8396844  62.0586095  68.8997155 115.7620873  63.0093920  68.9785635
 115.2358487  61.7131967  69.5572081 116.5860446  52.0399413  81.1176489
 117.3275130  52.5784457  80.8411312 115.8797431  52.6665702  81.2748040
 114.8296643  54.0275634  73.6730787 115.3998000  54.4562902  73.0348272
 115.4204755  53.7458219  74.3714973 116.8741448  50.6027305  67.5440589
 117.5765491  51.0548349  68.0114516 116.5422076  49.9611124  68.1720482
 115.3221809  49.1939061  81.9191799 114.6920470  49.8755342  82.1527195
 115.2157897  49.0822143  80.9744937 110.6166782  48.8610857  72.8457723
 109.8265836  49.1168386  72.3697833 111.1078029  49.6759195  72.9509763
 112.5681527  49.2255437  69.8041200 111.7712690  49.3374131  70.3224695
 112.3407119  49.5642089  68.9382090 108.9004485  49.1141348  75.2772714
 109.1512523  49.9988358  75.5430290 109.4364033  48.9345949  74.5047805
 114.6002552  43.4959827  84.2817050 114.2069498  42.9426026  84.9564694
 115.4168692  43.8070406  84.6723567 111.5664610  54.9343685  68.1930620
 112.0789130  55.7286936  68.3436184 112.2187323  54.2369976  68.1264221
 113.3759495  58.0509442  70.2753373 113.5526123  58.9727406  70.0874357
 114.1716328  57.7367861  70.7047753 117.5170513  44.9117706  81.8737306
 118.2580227  45.5124860  81.7941769 117.7488436  44.1695344  81.3155349
 112.6611851  50.0974074  80.1515536 112.5465366  49.1959331  80.4522635
 111.8056369  50.3437770  79.8000352 114.4990810  59.5687616  76.2763715
 115.0498235  59.4404679  75.5040709 113.6602286  59.8682505  75.9258608
 109.5313527  53.2632340  68.9690190 110.3688749  53.6729348  68.7523898
 109.7091794  52.3231782  68.9390384 116.7867102  43.3942194  73.1217003
 117.6520099  43.1985003  72.7622892 116.8544611  43.1652546  74.0486360
 114.3929421  45.6244402  70.4933370 114.9673173  45.4019584  69.7606563
 114.9800404  45.6933097  71.2461971 114.7199009  47.6548863  64.5129255
 113.8836321  47.9923550  64.8338530 114.5803778  47.5197843  63.5756392
 116.6952089  42.4985651  69.2208439 116.0416501  42.1834668  68.5965054
 116.6532563  41.8761392  69.9468262 117.8063294  52.7804946  61.1361731
 116.8990356  52.5494200  61.3352880 118.3034326  51.9842565  61.3235713
 109.5539698  50.6023055  69.6400924 109.3564098  50.0092416  68.9151990
 108.9986362  50.2975265  70.3576862 117.5336421  50.4946162  71.7595517
 117.5885031  49.5419998  71.6837993 116.7227623  50.6505601  72.2436815
 115.4728781  49.1123221  69.5185896 114.6596647  49.4117392  69.9251088
 115.9687776  48.7178910  70.2360378 114.9642856  46.6841577  75.1347131
 115.6042235  46.5430336  74.4370094 114.1320387  46.3976090  74.7585732
 115.7403160  55.9844007  71.2482123 116.5343759  55.4894327  71.0464698
 115.0294852  55.4561870  70.8849829 112.0485924  50.1287089  67.3241876
 111.1183512  50.0671545  67.5411838 112.1443396  49.6063042  66.5278517
 111.9671473  46.6541902  69.9120117 112.2278290  47.5687235  69.8029278
 112.7888645  46.1866344  70.0616730 113.4396398  48.0679659  77.0818942
 114.1119451  47.8597021  76.4331591 112.6126184  47.8701745  76.6424174
 113.8423895  51.3422262  77.8421379 113.7043693  50.6102501  78.4432918
 114.7528819  51.2531162  77.5605567 116.4706196  51.0542221  77.3305059
 117.1805814  50.4135414  77.2891677 116.4275504  51.3055116  78.2531239
 115.1835130  48.0407439  79.1500698 114.6472487  47.5898178  79.8022294
 114.5951838  48.1753348  78.4071162 113.4783673  64.8071489  73.0445357
 113.7180272  65.4390013  73.7224375 112.6352870  64.4559529  73.3310716
 114.5937389  47.4996091  61.7127162 113.7166855  47.3784891  61.3489408
 115.0695142  46.7082169  61.4606050 106.1139529  52.2873250  71.8068669
 106.8010569  51.9734980  71.2189684 105.9587658  53.1914615  71.5335920
 110.9174251  47.1763447  76.2353693 110.8332440  46.5689116  75.5004103
 110.0956957  47.6672465  76.2363189 117.9911535  60.6150611  75.4486861
 117.9181707  61.4205582  75.9606165 117.5488928  60.8142577  74.6234882
 117.6732934  47.8034393  71.3295572 117.3030721  47.2505434  72.0176478
 118.1692026  47.1992527  70.7770572 115.5022132  58.2631888  78.4250590
 116.2031592  58.8968371  78.5779984 115.0317247  58.6046620  77.6646229
 111.0989850  57.7968243  75.3581693 111.6843287  57.0511931  75.4909597
 110.9014689  58.1072200  76.2418357 113.9528506  60.8319491  70.3744135
 113.2838881  61.3165619  69.8908175 113.8141375  61.0788711  71.2887514
 105.6907505  50.3673844  74.0786136 105.7291605  49.8337434  74.8723254
 105.1847798  49.8409049  73.4597113 113.0698267  45.2138384  77.5748678
 113.1339594  46.0753215  77.1626076 113.0065388  44.6012386  76.8421037
 112.5450540  47.2861517  81.2221713 113.1722579  46.9038594  81.8359237
 111.6878459  47.0675719  81.5877405 109.3216083  49.0937946  67.1540067
 109.6169524  48.1848624  67.1007121 108.4204118  49.0725685  66.8321070
 112.8510330  47.1693942  73.1367616 112.1296915  47.7829910  72.9975089
 113.6403585  47.7051707  73.0584262 115.6536643  44.5048369  79.4108268
 116.1771045  44.7510665  80.1734577 115.4348976  45.3368404  78.9911405
 111.0503924  46.7752044  67.2779393 110.7216630  45.8949422  67.0954499
 111.4043295  46.7199712  68.1655782 114.1645747  47.0625013  67.6454870
 114.5041820  47.5910935  66.9233479 114.6117868  47.4005419  68.4213437
 116.8589188  45.4462064  77.0957938 116.5186009  44.6469877  77.4978618
 116.1528194  45.7463775  76.5234772 116.1513894  45.5599635  65.8448163
 116.8722257  45.9380888  65.3411880 115.5279199  46.2788512  65.9483141
 115.0344239  49.2230497  73.3577240 114.8888819  49.5370800  74.2501521
 114.5569442  49.8415397  72.8048139 116.8940622  46.2133045  73.4058130
 116.8802190  45.3174138  73.0690427 117.6113050  46.2203709  74.0396416
 109.5089901  51.7635841  76.2964901 108.9643369  52.5395649  76.4285175
 110.3869251  52.1106646  76.1384023 116.2977518  45.0947425  68.6745700
 116.4193429  44.1664072  68.8736587 116.0079560  45.1086111  67.7624015
 110.2955923  50.8905738  79.1895058 109.5537659  51.0388373  79.7759688
 109.9748667  51.1514003  78.3261807 110.7412536  58.7771166  71.2205453
 111.5670556  58.4774938  70.8404096 110.3906588  58.0078789  71.6695241
 115.7094070  58.1297635  73.2903126 115.0874079  57.4668340  72.9905354
 116.3798937  58.1558767  72.6076774 108.9421141  56.6957493  72.1794386
 108.1053050  56.2679667  71.9978387 108.9144787  56.8889936  73.1165177
 115.7818597  46.6079423  82.8835632 115.8306753  47.4841546  82.5013402
 116.3241111  46.0656816  82.3107275 115.2707577  56.6801558  66.7661587
 115.4195697  57.3637022  66.1128260 116.0774020  56.6606648  67.2811043
 118.0117886  47.3610795  79.6381991 117.1421195  47.6544361  79.3664579
 118.2477366  47.9451240  80.3589255 113.0260209  52.7066736  67.7722656
 112.7806251  51.8029066  67.9702866 113.1956124  52.7083886  66.8302134
 112.2955857  48.4395093  65.2708817 111.6025102  48.5139448  64.6148853
 112.0507609  47.6755437  65.7930334 117.3392698  48.4360478  61.5144272
 116.4324153  48.1393590  61.5906986 117.6168679  48.1390296  60.6478558
 108.2570638  49.7566841  71.9643318 107.9373422  48.9032149  71.6717692
 107.7104066  49.9715419  72.7201286 112.0350546  52.4729282  75.6812825
 112.2536555  53.4046390  75.7000859 112.4476319  52.1137256  76.4667629
 116.9078411  48.0462488  85.0715574 116.8075138  48.9956845  85.0027665
 116.6899953  47.7180727  84.1991644 116.1091482  45.2947413  61.6556251
 116.9710646  45.6202311  61.9152068 116.2941826  44.5078909  61.1429317
 108.1258898  53.3769753  73.9336440 107.4322370  52.9623705  73.4206394
 108.8731889  53.4190289  73.3369859 116.7709681  51.4759627  83.8880635
 116.2876763  52.2759987  84.0944524 116.8570620  51.4867572  82.9348079
 110.0395641  53.3088006  71.8102455 110.0166329  53.4075694  70.8584338
 110.3496277  54.1553157  72.1319621 112.6983018  55.3664161  75.9249069
 113.6526272  55.3348104  75.8579001 112.4995542  54.9054785  76.7399295
 113.2882401  53.9365277  78.4919867 114.1075290  54.4309356  78.5154704
 113.5619208  53.0197246  78.4637434 111.0533247  60.9083781  72.9419267
 110.9187715  60.1484182  72.3757265 110.6365310  61.6324681  72.4748056
 114.2102373  61.8053098  73.1537710 114.0934757  62.7498530  73.0516400
 113.3894819  61.5026659  73.5423509 108.5417315  48.2703411  79.1912064
 109.1876178  47.7602365  79.6799289 108.3334466  49.0072093  79.7655489
 117.0620925  42.5343456  64.9435960 117.0499595  43.4785296  65.1004231
 117.9544347  42.3513601  64.6495421 115.2356887  62.4581360  76.3693638
 116.1384134  62.4904970  76.6860133 115.0094257  61.5281811  76.3839974
 116.9910489  61.2112346  73.0303717 116.0406120  61.2114208  72.9168089
 117.2942975  60.4645081  72.5139751 112.8814806  45.4171028  83.2887078
 113.7446267  45.0607833  83.4990403 112.3080217  45.0784923  83.9762482
 116.9533283  67.6165168  71.8068669 117.6404323  67.3026898  71.2189684
 116.7981412  68.5206533  71.5335920 116.5301260  65.6965761  74.0786136
 116.5685359  65.1629352  74.8723254 116.0241552  65.1700967  73.4597113
  91.7996166  11.1549776  59.7690663  92.0392764  11.7868300  60.4469682
  90.9565362  10.8037816  60.0556023 103.7152197  15.2014076  56.7453201
 103.1517062  15.1104013  55.9769489 103.6004592  14.3813981  57.2255694
 101.2616629  16.6965268  59.5837422 102.0537921  16.3556093  59.1683721
 101.5013279  16.8060243  60.5039575 109.2951756  18.8685044  52.0567666
 108.6439736  19.4539125  51.6701680 110.0896119  19.3991239  52.1162704
 103.2207383  15.9574181  52.4554801 103.9938259  15.4103168  52.3167677
 103.5732782  16.8218431  52.6669262 105.0592425  17.2850564  65.6621700
 104.7682291  18.1896194  65.5468366 105.6949410  17.3267091  66.3765770
 105.9848632  14.6627412  62.2523060 106.5812205  14.4383434  61.5380023
 106.0423604  13.9212158  62.8548508 110.7727021  16.5575476  52.5936651
 110.1372854  16.6310103  53.3057555 110.4424427  17.1469075  51.9155730
 105.2769949  14.0194953  52.2897626 105.1606208  13.3439857  52.9578710
 105.3872209  13.5327327  51.4729779 110.0182311  16.9711979  62.6571494
 109.7183034  17.8737018  62.5487301 109.6733370  16.7044162  63.5092647
 103.4694792  13.4225776  58.6908198 102.5445289  13.2901990  58.8985890
 103.7179205  14.2019995  59.1878141 100.8303603  13.0659049  59.5251987
 100.9595984  13.3193528  60.4391399 100.1501054  13.6586757  59.2056642
 105.0003090  23.7356299  55.6242461 104.9227120  24.6864125  55.7030942
 104.3964734  23.3902172  56.2817388 105.7466692  13.7169618  67.8421795
 106.4881377  14.2554662  67.5656619 105.0403678  14.3435907  67.9993347
 111.5450847  16.4199949  60.1946246 110.9159709  16.5845663  59.4922314
 111.1576509  16.8341559  60.9657210 115.4240079  17.3554387  57.5490609
 114.7391117  17.7353289  56.9987643 115.5083928  17.9649714  58.2822557
 107.0978809  16.1574357  57.4596331 107.5617154  16.4362060  56.6700953
 106.8335607  15.2557802  57.2769421 103.9902890  15.7045839  60.3976094
 104.5604247  16.1333107  59.7593579 104.5811002  15.4228424  61.0960280
 113.7936838  17.8786302  62.3208310 114.6154282  17.4766489  62.0390992
 113.7899241  17.7754536  63.2724426 107.5593442  17.4270345  64.4769021
 107.6237874  17.8890752  65.3127193 106.8504365  16.7967710  64.6051331
 107.2741459  19.0938452  54.3448001 107.1387134  19.9389988  54.7732849
 107.8151272  19.2957730  53.5813935 100.7270857  16.6113890  54.9175926
 101.2395377  17.4057141  55.0681491 101.3793569  15.9140181  54.8509528
 102.5365741  19.7279647  56.9998679 102.7132370  20.6497611  56.8119663
 103.3322575  19.4138066  57.4293059 108.9009936  19.7162019  68.4748343
 108.4573790  18.9298397  68.1569248 109.5627149  19.9041169  67.8092234
 103.6597057  21.2457820  63.0009022 104.2104482  21.1174884  62.2286016
 102.8208533  21.5452710  62.6503915 110.9991174  19.9964819  66.5029744
 110.9809649  20.8173700  66.0110014 111.9211094  19.8718894  66.7279886
 107.4564228  17.5108948  67.3453253 107.9892565  16.7497236  67.1152561
 106.9278309  17.2182600  68.0877407  98.6919773  14.9402545  55.6935497
  99.5294995  15.3499553  55.4769204  98.8698041  14.0001987  55.6635691
 108.8216941  16.6394941  54.8572065 108.2938302  15.9047700  54.5445302
 108.3204443  17.4169617  54.6112033 109.8737620  23.1672658  50.7803724
 109.1999318  23.4704355  51.3888682 110.2603442  23.9701739  50.4309181
 108.1457774  14.5587746  52.3831028 107.2368993  14.2746779  52.4803498
 108.1752858  14.9786824  51.5234335 113.3777042  18.1694335  56.1522196
 112.9239369  17.3285245  56.2087386 112.7471008  18.8055734  56.4896976
 111.8209981  20.0070832  57.0872014 112.1132955  20.5675889  56.3684379
 112.3308601  20.2999393  57.8425173  98.7145945  12.2793260  56.3646230
  98.5170344  11.6862621  55.6397297  98.1592609  11.9745470  57.0822169
 107.8433862  16.0996490  49.7219107 107.4053292  15.3832349  49.2624744
 108.5844303  16.3272604  49.1604198 106.7843606  20.7851183  58.1765467
 106.7419785  21.0112029  57.2473999 107.7006305  20.5514558  58.3251268
 104.9009407  17.6614212  57.9727430 105.6950005  17.1664532  57.7710005
 104.1901099  17.1332075  57.6095135 109.7204251  20.0432308  62.3239797
 109.7741274  20.6123244  63.0917513 108.8519033  20.2134193  61.9593834
 111.9107015  16.6360657  68.8980463 111.7592521  16.4071209  67.9810546
 111.9011694  17.5931258  68.9111808 107.4780683  18.2343234  61.6525267
 107.3391769  17.8662019  62.5251205 106.6895279  18.7490874  61.4809224
 108.0728835  23.3352331  52.9950803 108.2480590  22.8640374  53.8096426
 107.3861623  23.9618097  53.2232064 109.0285898  17.6124837  59.0414104
 108.6935731  17.5725607  59.9371754 108.5289844  16.9469553  58.5684515
 113.6199221  19.6679780  66.9756944 113.5611767  18.9839000  66.3087528
 114.0218740  20.4098770  66.5237570 102.6389920  26.4841693  59.7690663
 102.8786518  27.1160218  60.4469682 101.7959117  26.1329733  60.0556023
 113.6216629  17.6319364  65.2070924 112.7343407  17.2945285  65.3297323
 114.1915180  16.9002395  65.4439690  95.2745776  13.9643455  58.5313976
  95.9616815  13.6505185  57.9434991  95.1193904  14.8684820  58.2581227
 107.1517782  22.2920816  62.1732167 107.0787953  23.0975787  62.6851472
 106.7095175  22.4912782  61.3480189 106.9407562  21.5292586  55.6834989
 106.1575083  22.0714266  55.7773213 107.6400307  22.0466566  56.0829230
 109.6116465  22.1907650  64.3290326 110.3244438  22.8255115  64.2566227
 109.1206494  22.2871516  63.5130328 104.6628379  19.9402093  65.1495897
 105.3637838  20.5738576  65.3025291 104.1923494  20.2816825  64.3891536
 112.7882775  18.2820043  53.4343804 113.0642619  18.1676638  54.3437678
 111.9187274  17.8837528  53.3955977 109.4236839  22.5306394  57.0776618
 109.6059233  21.7128050  57.5404370 110.2469825  22.7474086  56.6401507
 109.7579004  21.4574579  54.3391666 110.2866771  20.9467034  53.7261828
 110.0207224  21.1417109  55.2037199 100.2596097  19.4738448  62.0827000
 100.8449534  18.7282136  62.2154904 100.0620936  19.7842405  62.9663663
 103.1134752  22.5089696  57.0989442 102.4445128  22.9935823  56.6153482
 102.9747622  22.7558916  58.0132820  94.8513752  12.0444049  60.8031443
  94.8897851  11.5107639  61.5968561  94.3454045  11.5179254  60.1842420
 107.2540021  24.5433439  63.6972100 107.8058329  24.7065061  64.4621186
 107.5946214  25.1337877  63.0252125 112.1050895  19.3694697  69.5520755
 112.6490799  19.9824655  69.0575710 111.5237740  19.9274275  70.0687768
 110.3908408  22.4915415  60.6835782 110.2659548  21.6905155  60.1746728
 111.0487499  22.9861608  60.1949752 112.4543317  20.2924435  62.3115333
 111.5073652  20.1729786  62.2393659 112.8026090  19.4046933  62.3941594
 109.4589750  20.0877151  58.5119685 109.3114712  19.1593859  58.6927255
 110.2843243  20.1097242  58.0276760 113.0623872  20.9105710  59.5984558
 113.9870419  20.7048571  59.4609009 112.8939175  20.6622111  60.5073899
 112.8519188  21.4291377  54.9546649 113.0256065  20.8637800  54.2020501
 113.3448079  22.2292272  54.7726139  98.6696148  13.4406046  63.0210208
  98.1249616  14.2165854  63.1530482  99.5475498  13.7876851  62.8629329
 113.8394360  20.7458142  52.0543547 114.5345265  21.3664834  52.2730862
 114.1817511  19.8953493  52.3295925  99.4562170  12.5675943  65.9140365
  98.7143906  12.7158578  66.5004995  99.1354914  12.8284208  65.0507114
 115.7385783  18.1957847  53.5830878 116.2637108  18.5345120  52.8580198
 115.6508136  17.2604863  53.3994013 107.4005832  22.1091921  65.7120755
 107.7092959  21.8641068  66.5843454 108.1981314  22.3138559  65.2239625
 107.4226444  24.2629831  57.9426131 106.9831435  23.7706209  58.6358988
 108.1734561  23.7202798  57.7018206  99.9018783  20.4541371  57.9450759
 100.7276803  20.1545143  57.5649403  99.5512835  19.6848994  58.3940548
 104.8700316  19.8067840  60.0148433 104.2480326  19.1438545  59.7150661
 105.5405183  19.8328972  59.3322081  98.1027388  18.3727698  58.9039693
  97.2659297  17.9449872  58.7223694  98.0751034  18.5660141  59.8410484
 115.4279690  18.8290751  68.8882076 114.6375233  18.8114890  68.3486575
 115.1913044  19.3679045  69.6431113 104.4313823  18.3571763  53.4906893
 104.5801944  19.0407227  52.8373566 105.2380267  18.3376853  54.0056349
 117.0495761  18.0980159  66.4456826 116.7580570  18.4610139  67.2820287
 116.4367893  17.3847167  66.2670158 102.1866456  14.3836941  54.4967962
 101.9412498  13.4799271  54.6948172 102.3562371  14.3854091  53.5547440
 107.9309229  20.8519893  50.9618641 107.3583196  21.4710081  50.5089113
 108.5042022  21.4019255  51.4958563 111.1506489  21.1357044  52.0927223
 112.0837162  21.0702605  52.2960099 111.0629701  21.9713310  51.6341756
 113.7794505  20.4522914  49.0531171 113.7008137  20.1182777  49.9466929
 114.6004172  20.9444682  49.0522643 108.1994720  16.2398452  69.7635350
 109.1197729  16.4177051  69.9575397 108.1644303  15.2954498  69.6115050
  97.4176885  11.4337046  58.6888625  97.0979669  10.5802354  58.3962999
  96.8710313  11.6485624  59.4446592 101.1956792  14.1499487  62.4058131
 101.4142802  15.0816595  62.4246165 101.6082566  13.7907461  63.1912935
  97.2865145  15.0539957  60.6581747  96.5928616  14.6393910  60.1451701
  98.0338136  15.0960494  60.0615165  99.2001887  14.9858211  58.5347761
  99.1772575  15.0845899  57.5829645  99.5102524  15.8323362  58.8564928
 101.8589265  17.0434366  62.6494376 102.8132519  17.0118309  62.5824307
 101.6601789  16.5824990  63.4644602 102.4488647  15.6135482  65.2165174
 103.2681536  16.1079561  65.2400011 102.7225455  14.6967450  65.1882741
 100.2139494  22.5853986  59.6664574 100.0793962  21.8254387  59.1002572
  99.7971556  23.3094886  59.1993363 111.3498457  17.7690909  48.6741149
 112.0534307  17.9740912  49.2898805 110.6261106  18.3367671  48.9390233
 103.3708620  23.4823303  59.8783016 103.2541004  24.4268735  59.7761707
 102.5501066  23.1796864  60.2668816 113.2585154  18.2073438  50.7239609
 114.0930758  17.7754637  50.5417084 113.0969497  18.0355452  51.6516504
 110.2276954  17.0154464  71.4149511 111.0968113  17.1895116  71.0536146
 109.7483705  17.8348880  71.2925240 104.3963134  24.1351565  63.0938945
 105.2990381  24.1675175  63.4105440 104.1700504  23.2052016  63.1085281
 106.1516736  22.8882551  59.7549023 105.2012367  22.8884413  59.6413396
 106.4549222  22.1415286  59.2385058 114.5545952  30.5305994  56.7453201
 113.9910817  30.4395931  55.9769489 114.4398347  29.7105899  57.2255694
 112.1010383  32.0257186  59.5837422 112.8931675  31.6848010  59.1683721
 112.3407034  32.1352161  60.5039575 114.0601137  31.2866099  52.4554801
 114.8332013  30.7395086  52.3167677 114.4126536  32.1510348  52.6669262
 115.8986180  32.6142481  65.6621700 115.6076046  33.5188112  65.5468366
 116.5343164  32.6559009  66.3765770 116.8242387  29.9919330  62.2523060
 117.4205959  29.7675352  61.5380023 116.8817358  29.2504075  62.8548508
 116.3967415  27.4458765  50.0873251 116.6492936  26.9240286  49.3256714
 115.4591974  27.2824911  50.1899934 116.1163704  29.3486871  52.2897626
 115.9999962  28.6731774  52.9578710 116.2265964  28.8619245  51.4729779
 118.1000732  23.8386918  50.9905663 118.2675134  24.7067154  51.3576134
 117.9097901  24.0014200  50.0666953 114.3088547  28.7517694  58.6908198
 113.3839043  28.6193908  58.8985890 114.5572960  29.5311913  59.1878141
 118.0789953  26.2944575  51.9752330 117.9589578  26.7401626  52.8137810
 117.3842541  26.6429893  51.4165868 111.6697358  28.3950967  59.5251987
 111.7989739  28.6485446  60.4391399 110.9894809  28.9878675  59.2056642
 115.8396845  39.0648217  55.6242461 115.7620875  40.0156042  55.7030942
 115.2358488  38.7194090  56.2817388 116.5860447  29.0461536  67.8421795
 117.3275131  29.5846580  67.5656619 115.8797432  29.6727825  67.9993347
 114.8296644  31.0337757  60.3976094 115.3998001  31.4625025  59.7593579
 115.4204756  30.7520341  61.0960280 116.8741449  27.6089427  54.2685896
 117.5765492  28.0610471  54.7359822 116.5422078  26.9673246  54.8965789
 115.3221811  26.2001184  68.6437105 114.6920471  26.8817465  68.8772502
 115.2157899  26.0884266  67.6990244 110.6166783  25.8672980  59.5703029
 109.8265837  26.1230509  59.0943140 111.1078030  26.6821318  59.6755070
 112.5681528  26.2317559  56.5286506 111.7712692  26.3436254  57.0470002
 112.3407121  26.5704212  55.6627397 108.9004486  26.1203471  62.0018020
 109.1512524  27.0050480  62.2675596 109.4364034  25.9408072  61.2293112
 114.6002553  20.5021950  71.0062356 114.2069499  19.9488148  71.6810001
 115.4168694  20.8132528  71.3968874 111.5664611  31.9405808  54.9175926
 112.0789132  32.7349058  55.0681491 112.2187324  31.2432099  54.8509528
 113.3759496  35.0571564  56.9998679 113.5526124  35.9789529  56.8119663
 114.1716329  34.7429984  57.4293059 117.5170514  21.9179829  68.5982613
 118.2580228  22.5186982  68.5187075 117.7488437  21.1757467  68.0400655
 112.6611852  27.1036196  66.8760843 112.5465368  26.2021453  67.1767941
 111.8056370  27.3499893  66.5245659 114.4990811  36.5749738  63.0009022
 115.0498236  36.4466802  62.2286016 113.6602287  36.8744627  62.6503915
 109.5313528  30.2694462  55.6935497 110.3688750  30.6791471  55.4769204
 109.7091796  29.3293905  55.6635691 116.7867104  20.4004317  59.8462310
 117.6520100  20.2047125  59.4868199 116.8544613  20.1714669  60.7731666
 114.3929423  22.6306525  57.2178676 114.9673175  22.4081706  56.4851869
 114.9800405  22.6995219  57.9707278 114.7199010  24.6610986  51.2374562
 113.8836322  24.9985672  51.5583836 114.5803779  24.5259966  50.3001699
 116.6952090  19.5047774  55.9453746 116.0416503  19.1896791  55.3210361
 116.6532565  18.8823514  56.6713569 117.8063295  29.7867069  47.8607038
 116.8990357  29.5556322  48.0598187 118.3034327  28.9904688  48.0481019
 109.5539699  27.6085178  56.3646230 109.3564099  27.0154538  55.6397297
 108.9986363  27.3037388  57.0822169 117.5336423  27.5008284  58.4840823
 117.5885033  26.5482121  58.4083300 116.7227625  27.6567723  58.9682122
 115.4728783  26.1185344  56.2431202 114.6596648  26.4179514  56.6496394
 115.9687777  25.7241033  56.9605684 114.9642857  23.6903699  61.8592437
 115.6042237  23.5492459  61.1615400 114.1320388  23.4038213  61.4831039
 115.7403161  32.9906130  57.9727430 116.5343760  32.4956450  57.7710005
 115.0294854  32.4623993  57.6095135 112.0485925  27.1349212  54.0487182
 111.1183513  27.0733667  54.2657144 112.1443397  26.6125164  53.2523824
 111.9671474  23.6604024  56.6365424 112.2278291  24.5749358  56.5274584
 112.7888646  23.1928467  56.7862037 113.4396399  25.0741782  63.8064248
 114.1119453  24.8659144  63.1576897 112.6126186  24.8763868  63.3669481
 113.8423896  28.3484385  64.5666686 113.7043694  27.6164623  65.1678225
 114.7528820  28.2593285  64.2850873 116.4706197  28.0604344  64.0550365
 117.1805816  27.4197536  64.0136984 116.4275505  28.3117239  64.9776546
 115.1835131  25.0469562  65.8746005 114.6472488  24.5960300  66.5267601
 114.5951840  25.1815471  65.1316469 113.4783675  41.8133611  59.7690663
 113.7180273  42.4452135  60.4469682 112.6352871  41.4621651  60.0556023
 114.5937390  24.5058213  48.4372468 113.7166856  24.3847014  48.0734715
 115.0695143  23.7144292  48.1851357 106.1139530  29.2935373  58.5313976
 106.8010570  28.9797103  57.9434991 105.9587659  30.1976738  58.2581227
 110.9174252  24.1825569  62.9598999 110.8332441  23.5751239  62.2249409
 110.0956959  24.6734588  62.9608496 117.9911536  37.6212734  62.1732167
 117.9181708  38.4267705  62.6851472 117.5488930  37.8204699  61.3480189
 117.6732935  24.8096516  58.0540879 117.3030722  24.2567556  58.7421784
 118.1692027  24.2054649  57.5015879 115.5022133  35.2694011  65.1495897
 116.2031593  35.9030494  65.3025291 115.0317248  35.6108743  64.3891536
 111.0989852  34.8030366  62.0827000 111.6843288  34.0574054  62.2154904
 110.9014690  35.1134323  62.9663663 113.9528507  37.8381613  57.0989442
 113.2838882  38.3227741  56.6153482 113.8141376  38.0850834  58.0132820
 105.6907506  27.3735966  60.8031443 105.7291606  26.8399557  61.5968561
 105.1847799  26.8471172  60.1842420 113.0698269  22.2200507  64.2993985
 113.1339595  23.0815338  63.8871383 113.0065389  21.6074508  63.5666344
 112.5450541  24.2923639  67.9467019 113.1722580  23.9100717  68.5604544
 111.6878460  24.0737841  68.3122712 109.3216084  26.1000068  53.8785374
 109.6169525  25.1910747  53.8252428 108.4204120  26.0787808  53.5566376
 112.8510331  24.1756065  59.8612923 112.1296917  24.7892033  59.7220396
 113.6403587  24.7113830  59.7829569 115.6536644  21.5110492  66.1353574
 116.1771046  21.7572788  66.8979884 115.4348978  22.3430526  65.7156712
 111.0503925  23.7814166  54.0024699 110.7216632  22.9011545  53.8199805
 111.4043296  23.7261835  54.8901088 114.1645749  24.0687136  54.3700177
 114.5041821  24.5973057  53.6478785 114.6117869  24.4067542  55.1458743
 116.8589189  22.4524187  63.8203245 116.5186010  21.6532000  64.2223925
 116.1528196  22.7525897  63.2480078 116.1513896  22.5661757  52.5693470
 116.8722258  22.9443010  52.0657187 115.5279200  23.2850634  52.6728448
 115.0344240  26.2292620  60.0822547 114.8888821  26.5432923  60.9746828
 114.5569444  26.8477520  59.5293445 116.8940623  23.2195168  60.1303436
 116.8802192  22.3236261  59.7935734 117.6113051  23.2265831  60.7641722
 109.5089902  28.7697964  63.0210208 108.9643370  29.5457772  63.1530482
 110.3869252  29.1168769  62.8629329 116.2977519  22.1009548  55.3991006
 116.4193430  21.1726194  55.5981894 116.0079561  22.1148234  54.4869322
 110.2955924  27.8967860  65.9140365 109.5537660  28.0450496  66.5004995
 109.9748668  28.1576126  65.0507114 110.7412538  35.7833289  57.9450759
 111.5670558  35.4837061  57.5649403 110.3906590  35.0140912  58.3940548
 115.7094071  35.1359757  60.0148433 115.0874080  34.4730462  59.7150661
 116.3798938  35.1620889  59.3322081 108.9421143  33.7019616  58.9039693
 108.1053051  33.2741790  58.7223694 108.9144788  33.8952059  59.8410484
 115.7818598  23.6141545  69.6080939 115.8306754  24.4903668  69.2258709
 116.3241113  23.0718938  69.0352582 115.2707578  33.6863681  53.4906893
 115.4195698  34.3699145  52.8373566 116.0774021  33.6668771  54.0056349
 118.0117887  24.3672918  66.3627298 117.1421196  24.6606484  66.0909886
 118.2477367  24.9513363  67.0834561 113.0260211  29.7128858  54.4967962
 112.7806253  28.8091188  54.6948172 113.1956125  29.7146009  53.5547440
 112.2955858  25.4457216  51.9954124 111.6025103  25.5201571  51.3394160
 112.0507610  24.6817559  52.5175641 117.3392699  25.4422600  48.2389579
 116.4324154  25.1455713  48.3152292 117.6168680  25.1452418  47.3723865
 108.2570639  26.7628964  58.6888625 107.9373424  25.9094272  58.3962999
 107.7104068  26.9777542  59.4446592 112.0350547  29.4791405  62.4058131
 112.2536557  30.4108512  62.4246165 112.4476321  29.1199379  63.1912935
 116.9078412  25.0524610  71.7960880 116.8075139  26.0018967  71.7272972
 116.6899954  24.7242849  70.9236950 116.1091484  22.3009535  48.3801558
 116.9710648  22.6264434  48.6397375 116.2941828  21.5141031  47.8674624
 108.1258899  30.3831875  60.6581747 107.4322371  29.9685828  60.1451701
 108.8731890  30.4252412  60.0615165 116.7709682  28.4821749  70.6125942
 116.2876764  29.2822109  70.8189831 116.8570621  28.4929694  69.6593386
 110.0395642  30.3150129  58.5347761 110.0166330  30.4137816  57.5829645
 110.3496278  31.1615280  58.8564928 112.6983020  32.3726284  62.6494376
 113.6526273  32.3410226  62.5824307 112.4995543  31.9116908  63.4644602
 113.2882402  30.9427400  65.2165174 114.1075291  31.4371479  65.2400011
 113.5619210  30.0259368  65.1882741 111.0533249  37.9145903  59.6664574
 110.9187716  37.1546304  59.1002572 110.6365311  38.6386803  59.1993363
 114.2102374  38.8115220  59.8783016 114.0934759  39.7560653  59.7761707
 113.3894821  38.5088782  60.2668816 108.5417316  25.2765534  65.9157371
 109.1876180  24.7664488  66.4044596 108.3334467  26.0134215  66.4900796
 117.0620927  19.5405578  51.6681267 117.0499596  20.4847418  51.8249538
 117.9544348  19.3575724  51.3740728 115.2356889  39.4643482  63.0938945
 116.1384135  39.4967093  63.4105440 115.0094259  38.5343933  63.1085281
 116.9910491  38.2174469  59.7549023 116.0406122  38.2176330  59.6413396
 117.2942977  37.4707203  59.2385058 112.8814807  22.4233151  70.0132385
 113.7446269  22.0669956  70.2235709 112.3080218  22.0847046  70.7007789
 116.9533285  44.6227291  58.5313976 117.6404324  44.3089021  57.9434991
 116.7981413  45.5268655  58.2581227 116.5301261  42.7027884  60.8031443
 116.5685360  42.1691475  61.5968561 116.0241554  42.1763089  60.1842420
 113.4783676  18.8195734  46.4935970 113.7180274  19.4514258  47.1714989
 112.6352872  18.4683774  46.7801329 116.9533286  21.6289413  45.2559282
 117.6404326  21.3151143  44.6680298 116.7981415  22.5330778  44.9826534
 116.5301262  19.7090007  47.5276749 116.5685362  19.1753597  48.3213867
 116.0241555  19.1825212  46.9087727  23.1587577  61.4902457 117.1577188
  22.4849276  61.7934154 117.7662146  23.5453399  62.2931537 116.8082645
  27.0644463  58.7752713 115.4304634  26.9858095  58.4412576 116.3240392
  27.8854130  59.2674480 115.4296107  24.6348415  56.0920708 115.0514613
  25.3384265  56.2970710 115.6672268  23.9111064  56.6597470 115.3163696
  27.8395909  68.8535793 123.1226665  27.2760774  68.7625730 122.3542953
  27.7248304  68.0335697 123.6029158  33.4195468  72.5206760 118.4341130
  32.7683448  73.1060841 118.0475144  34.2139831  73.0512955 118.4936168
  27.3451095  69.6095898 118.8328264  28.1181971  69.0624885 118.6941140
  27.6976494  70.4740147 119.0442726  29.6817373  65.7688564 116.4646714
  29.9342894  65.2470085 115.7030177  28.7441932  65.6054709 116.5673398
  34.7260656  64.7724342 124.2721458  35.5123745  64.3543765 123.9211875
  34.9899360  65.6770434 124.4403106  34.8970733  70.2097192 118.9710114
  34.2616566  70.2831819 119.6831019  34.5668140  70.7990791 118.2929194
  40.1269083  64.7099575 125.1754436  40.8594255  64.1398792 125.4092266
  39.3708439  64.3221176 125.6160942  29.4013662  67.6716670 118.6671089
  29.2849920  66.9961573 119.3352174  29.5115922  67.1849044 117.8503242
  31.7445203  67.1326817 122.3717779  31.3803410  66.6057438 123.0830700
  32.6012319  66.7425286 122.1984264  31.3850690  62.1616716 117.3679127
  31.5525092  63.0296953 117.7349598  31.1947859  62.3243998 116.4440416
  31.3639911  64.6174374 118.3525794  31.2439536  65.0631425 119.1911274
  30.6692499  64.9659692 117.7939332  37.0624977  65.0895847 119.1806128
  37.9742833  65.3223234 119.0053825  36.5534624  65.6732891 118.6181207
  35.6694559  70.0721666 126.5719709  35.0403421  70.2367380 125.8695777
  35.2820221  70.4863275 127.3430673  39.5483791  71.0076103 123.9264073
  38.8634829  71.3875005 123.3761106  39.6327640  71.6171430 124.6596021
  31.2222521  69.8096074 123.8369794  31.6860866  70.0883777 123.0474417
  30.9579319  68.9079518 123.6542885  30.1591407  65.9319226 120.6459360
  30.8615450  66.3840270 121.1133286  29.8272035  65.2903045 121.2739253
  37.9180550  71.5308018 128.6981774  38.7397994  71.1288205 128.4164456
  37.9142953  71.4276252 129.6497890  46.0086544  67.8746766 125.0466745
  45.2550252  67.3054164 124.8910750  46.1434085  67.8409431 125.9937380
  31.3985172  72.7460169 120.7221465  31.2630846  73.5911704 121.1506313
  31.9394984  72.9479446 119.9587399  34.7127918  66.2599342 117.7592793
  34.1974541  67.0303946 117.9981181  34.4405226  65.5864478 118.3825855
  39.6862192  69.0131696 119.6945967  38.9091635  68.6742856 119.2501129
  40.3653673  69.0184319 119.0200932  34.5014221  64.1326434 119.5852575
  34.1964357  64.4472583 120.4362718  35.4544663  64.2107854 119.6279908
  32.9460653  70.2916657 121.2345529  32.4182014  69.5569417 120.9218766
  32.4448156  71.0691333 120.9885497  37.9253499  68.4865678 126.3512575
  37.2677173  69.1764939 126.4392704  38.7293898  68.8762110 126.6946561
  36.7358958  66.8410050 124.4016517  37.2490839  67.4740042 124.9038226
  37.3860182  66.2411246 124.0359877  28.0048968  62.9840784 117.6148025
  27.1686280  63.3215471 117.9357300  27.8653737  62.8489764 116.6775162
  31.0913253  68.1096867 114.2380502  30.1840315  67.8786121 114.4371651
  31.5884285  67.3134487 114.4254483  33.9981332  76.8194375 117.1577188
  33.3243031  77.1226071 117.7662146  34.3847154  77.6223455 116.8082645
  33.9974836  65.7150922 121.7777537  34.7446655  66.2272319 121.4684659
  34.2666426  65.3934974 122.6381931  32.2701486  68.2109462 118.7604492
  31.3612706  67.9268495 118.8576961  32.2996570  68.6308541 117.9007799
  37.5020754  71.8216052 122.5295659  37.0483081  70.9806962 122.5860850
  36.8714721  72.4577450 122.8670439  35.9453693  73.6592548 123.4645477
  36.2376668  74.2197606 122.7457843  36.4552314  73.9521109 124.2198637
  31.9677574  69.7518206 116.0992570  31.5297004  69.0354065 115.6398208
  32.7088015  69.9794321 115.5377662  40.0850689  68.0275403 122.1568889
  39.9468588  68.2176999 121.2290078  39.7286908  68.7894786 122.6136940
  40.1120069  70.0951930 127.1680160  40.5456575  70.0027219 128.0163214
  40.8251649  70.0709430 126.5300176  25.3335883  65.4579010 120.4260646
  24.4033471  65.3963466 120.6430608  25.4293355  64.9354963 119.6297287
  32.1972547  76.9874047 119.3724267  32.3724303  76.5162090 120.1869890
  31.5105335  77.6139813 119.6005528  33.1529610  71.2646553 125.4187568
  32.8179443  71.2247323 126.3145218  32.6533556  70.5991269 124.9457978
  36.0888802  68.6102588 115.6924628  35.4717973  67.8849416 115.5957681
  35.6205290  69.3711948 115.3491702  27.8787348  62.8288012 114.8145932
  27.0016814  62.7076813 114.4508179  28.3545101  62.0374090 114.5624821
  31.0651274  75.1814302 122.0608453  30.2818796  75.7235982 122.1546677
  31.7644019  75.6988282 122.4602694  42.2277681  66.6949297 126.3460950
  42.2167558  67.5774013 125.9754883  41.3595061  66.3420848 126.1515487
  35.4577705  69.7480619 122.2781081  34.5233983  69.8682081 122.1085786
  35.6354373  68.8453086 122.0141091  38.8450256  65.5897938 122.8131116
  39.3110708  66.4225930 122.7391418  39.2957756  65.1242920 123.5176374
  36.9126487  71.9341759 119.8117268  37.1886331  71.8198354 120.7211142
  36.0430986  71.5359244 119.7729441  33.5480551  76.1828110 123.4550081
  33.7302946  75.3649766 123.9177834  34.3713537  76.3995803 123.0174971
  33.8822717  75.1096295 120.7165130  34.4110483  74.5988750 120.1035292
  34.1450936  74.7938826 121.5810663  33.5833462  73.7398867 124.8893148
  33.4358425  72.8115575 125.0700719  34.4086956  73.7618958 124.4050224
  37.1867584  74.5627426 125.9758021  38.1114131  74.3570288 125.8382472
  37.0182887  74.3143827 126.8847363  29.4363854  60.8891556 118.9466933
  30.1572216  61.2672809 118.4430650  28.8129158  61.6080433 119.0501911
  33.5794976  61.5936705 119.8825266  33.7958591  62.4761343 119.5814094
  33.0989044  61.2022919 119.1530908  36.9762900  75.0813094 121.3320113
  37.1499778  74.5159516 120.5793965  37.4691791  75.8813989 121.1499603
  42.8302291  67.8449517 122.9510412  43.2733437  67.0956842 122.5529536
  41.9528802  67.8359653 122.5684144  37.9638073  74.3979858 118.4317011
  38.6588977  75.0186551 118.6504326  38.3061223  73.5475209 118.7069389
  39.8629496  71.8479564 119.9604342  40.3880820  72.1866836 119.2353662
  39.7751848  70.9126579 119.7767476  28.5557536  72.0093479 119.8680357
  28.7045656  72.6928944 119.2147030  29.3623979  71.9898569 120.3829813
  42.3735156  69.3154755 125.3432860  43.2082047  69.7544559 125.5070420
  42.5094285  68.8393408 124.5241106  26.3110169  68.0358657 120.8741426
  26.0656210  67.1320987 121.0721636  26.4806083  68.0375807 119.9320904
  25.5805816  63.7687014 118.3727588  24.8875061  63.8431369 117.7167623
  25.3357568  63.0047358 118.8949104  32.0552941  74.5041610 117.3392105
  31.4826908  75.1231797 116.8862576  32.6285735  75.0540971 117.8732027
  35.2750201  74.7878760 118.4700687  36.2080874  74.7224322 118.6733562
  35.1873414  75.6235027 118.0115220  37.9038218  74.1044630 115.4304634
  37.8251849  73.7704494 116.3240392  38.7247884  74.5966398 115.4296107
  32.4399740  65.8402422 114.6808157  33.3858844  65.7108631 114.7496575
  32.0613985  65.1017084 115.1577585  46.4192959  68.0322376 127.7786990
  47.1496347  67.7707664 128.3394693  45.8099904  67.2951098 127.8189058
  44.5008256  66.1730239 128.3761441  43.7741419  66.0386204 127.7677933
  44.0855543  66.4807068 129.1818159  30.6242657  63.7652399 114.6163042
  29.7174112  63.4685512 114.6925756  30.9018638  63.4682217 113.7497329
  29.3941441  60.6239334 114.7575021  30.2560605  60.9494232 115.0170839
  29.5791786  59.8370830 114.2448087  37.5474078  59.4967861 121.9010244
  36.9672747  60.1552665 121.5188297  37.2810011  58.6745205 121.4897662
  36.3298956  61.6567951 120.9566593  35.4424811  61.9417602 120.7386788
  36.7452945  61.4961714 120.1093870  35.4742169  71.4212626 115.0514613
  36.1778019  71.6262628 115.6672268  34.7504818  71.9889387 115.3163696
  36.3039980  67.1722487 121.1716883  36.2475181  67.6291038 120.3324515
  36.8568322  66.4113171 120.9939726  40.1144786  62.9612219 121.9967002
  39.8581720  62.5608854 122.8275210  39.4897654  63.6756013 121.8717142
  44.4257123  65.7008292 124.5038294  43.8656681  65.7701481 125.2769856
  43.8200627  65.5249277 123.7837790  37.3828867  71.8595155 117.1013073
  38.2174471  71.4276353 116.9190548  37.2213210  71.6877168 118.0289967
  37.0374759  68.3627268 118.4669412  36.9823563  68.1971540 117.5257856
  36.4120814  69.0703301 118.6231602  30.3470884  57.8635377 118.0454730
  30.3349554  58.8077217 118.2023001  31.2394306  57.6805523 117.7514192
  38.6789664  84.1827710 123.1226665  38.1154529  84.0917647 122.3542953
  38.5642059  83.3627615 123.6029158  44.2589223  87.8498678 118.4341130
  43.6077202  88.4352759 118.0475144  45.0533585  88.3804873 118.4936168
  38.1844850  84.9387815 118.8328264  38.9575726  84.3916802 118.6941140
  38.5370249  85.8032065 119.0442726  40.5211128  81.0980481 116.4646714
  40.7736648  80.5762003 115.7030177  39.5835687  80.9346627 116.5673398
  45.5654410  80.1016260 124.2721458  46.3517500  79.6835683 123.9211875
  45.8293115  81.0062352 124.4403106  45.7364488  85.5389110 118.9710114
  45.1010321  85.6123737 119.6831019  45.4061894  86.1282709 118.2929194
  40.2407416  83.0008587 118.6671089  40.1243674  82.3253491 119.3352174
  40.3509676  82.5140961 117.8503242  42.5838957  82.4618734 122.3717779
  42.2197164  81.9349355 123.0830700  43.4406073  82.0717204 122.1984264
  42.2244444  77.4908634 117.3679127  42.3918847  78.3588871 117.7349598
  42.0341613  77.6535916 116.4440416  42.2033665  79.9466292 118.3525794
  42.0833290  80.3923342 119.1911274  41.5086253  80.2951609 117.7939332
  47.9018731  80.4187765 119.1806128  48.8136587  80.6515152 119.0053825
  47.3928378  81.0024809 118.6181207  45.2454706  76.5945801 127.4295989
  44.3839185  76.8927054 127.7212726  45.2717141  76.8116200 126.4977021
  42.0616275  85.1387991 123.8369794  42.5254621  85.4175694 123.0474417
  41.7973073  84.2371436 123.6542885  40.9985161  81.2611144 120.6459360
  41.7009205  81.7132187 121.1133286  40.6665790  80.6194963 121.2739253
  36.6925241  79.8839276 122.9059970  35.8956404  79.9957970 123.4243466
  36.4650833  80.2225928 122.0400860  42.2378926  88.0752086 120.7221465
  42.1024601  88.9203622 121.1506313  42.7788739  88.2771364 119.9587399
  45.5871390  71.5982648 129.2520358  45.2435659  72.4884290 129.1759469
  45.9550352  71.4084306 128.3889943  45.5521672  81.5891259 117.7592793
  45.0368296  82.3595864 117.9981181  45.2798981  80.9156396 118.3825855
  43.1368783  76.4340960 122.8178032  42.2810380  76.0447811 122.6383671
  43.5495735  76.5132921 121.9577817  44.6667930  73.9687303 127.2169592
  44.1632726  73.9317439 126.4037397  44.9598537  74.8780046 127.2766248
  40.9110816  74.0526033 126.2235773  41.7763813  73.8568842 125.8641663
  40.9788325  73.8236385 127.1505130  50.5255946  84.3423614 119.6945967
  49.7485389  84.0034773 119.2501129  51.2047427  84.3476237 119.0200932
  45.3407976  79.4618351 119.5852575  45.0358111  79.7764501 120.4362718
  46.2938418  79.5399771 119.6279908  43.7854407  85.6208575 121.2345529
  43.2575769  84.8861334 120.9218766  43.2841910  86.3983251 120.9885497
  38.5173135  76.2828241 123.5952140  39.0916887  76.0603423 122.8625333
  39.1044117  76.3516936 124.3480741  38.8442722  78.3132702 117.6148025
  38.0080034  78.6507389 117.9357300  38.7047492  78.1781682 116.6775162
  40.8195803  73.1569490 122.3227210  40.1660215  72.8418507 121.6983824
  40.7776277  72.5345230 123.0487032  41.9307008  83.4388785 114.2380502
  41.0234069  83.2078038 114.4371651  42.4278040  82.6426404 114.4254483
  44.8375086  92.1486292 117.1577188  44.1636785  92.4517989 117.7662146
  45.2240908  92.9515373 116.8082645  44.8368591  81.0442839 121.7777537
  45.5840410  81.5564236 121.4684659  45.1060180  80.7226892 122.6381931
  43.1095241  83.5401380 118.7604492  42.2006460  83.2560413 118.8576961
  43.1390325  83.9600458 117.9007799  47.2847428  78.0799955 123.7596327
  46.5470185  77.5677342 124.0906569  47.5374201  77.6400337 122.9479604
  47.3859055  70.8576207 124.3538096  47.6917932  69.9973571 124.0664011
  48.1111660  71.4493828 124.1537090  41.6580135  81.1530000 124.8614287
  41.7128745  80.2003837 124.7856764  40.8471337  81.3089440 125.3455585
  42.8071329  85.0810124 116.0992570  42.3690759  84.3645982 115.6398208
  43.5481770  85.3086238 115.5377662  39.5972495  79.7707060 122.6204666
  38.7840360  80.0701231 123.0269858  40.0931489  79.3762749 123.3379148
  39.0886570  77.3425416 128.2365901  39.7285949  77.2014175 127.5388864
  38.2564100  77.0559929 127.8604503  36.1729637  80.7870928 120.4260646
  35.2427225  80.7255383 120.6430608  36.2687109  80.2646881 119.6297287
  36.0915186  77.3125741 123.0138888  36.3522003  78.2271074 122.9048048
  36.9132358  76.8450183 123.1635500  46.9282556  83.9394505 115.6924628
  46.3111727  83.2141333 115.5957681  46.4599045  84.7003865 115.3491702
  38.7181102  78.1579930 114.8145932  37.8410569  78.0368730 114.4508179
  39.1938855  77.3666008 114.5624821  45.2141678  76.3200849 124.7042658
  45.7110378  75.5670812 124.3843728  44.4428660  76.3565166 124.1385867
  41.7976647  78.4618232 124.4314343  41.4274435  77.9089273 125.1195248
  42.2935740  77.8576366 123.8789343  47.6560673  73.2870443 126.8522017
  46.7423753  73.5174670 127.0204224  48.0853775  73.3708887 127.7036049
  33.4459796  79.7521785 120.2558838  33.7413237  78.8432463 120.2025892
  32.5447832  79.7309524 119.9339840  35.1747638  77.4335882 120.3798163
  34.8460344  76.5533261 120.1973269  35.5287008  77.3783551 121.2674552
  38.2889461  77.7208852 120.7473641  38.6285533  78.2494773 120.0252249
  38.7361581  78.0589258 121.5232207  41.6349374  73.1895215 128.6504032
  42.4575443  72.7155694 128.5282922  41.8787437  73.9685699 129.1502718
  40.2757608  76.2183474 118.9466933  40.9965971  76.5964727 118.4430650
  39.6522912  76.9372351 119.0501911  44.4188731  76.9228623 119.8825266
  44.6352345  77.8053261 119.5814094  43.9382798  76.5314836 119.1530908
  41.0184335  76.8716884 126.5076900  41.0045904  75.9757977 126.1709198
  41.7356763  76.8787548 127.1415186  40.4221231  75.7531264 121.7764470
  40.5437142  74.8247910 121.9755358  40.1323273  75.7669950 120.8642785
  43.2912421  73.4386175 124.9131190  43.3134118  73.5025508 123.9583169
  43.7080480  72.5990683 125.1071696  39.3951290  87.3385397 119.8680357
  39.5439410  88.0220861 119.2147030  40.2017734  87.3190487 120.3829813
  37.1503923  83.3650575 120.8741426  36.9049965  82.4612905 121.0721636
  37.3199838  83.3667725 119.9320904  36.4199571  79.0978932 118.3727588
  35.7268816  79.1723287 117.7167623  36.1751322  78.3339276 118.8949104
  45.0913227  70.6574534 125.7767078  45.3714981  69.9897723 126.4027505
  45.8763834  70.8503629 125.2641742  42.8946696  89.8333527 117.3392105
  42.3220663  90.4523715 116.8862576  43.4679489  90.3832889 117.8732027
  46.1143955  90.1170678 118.4700687  47.0474629  90.0516239 118.6733562
  46.0267168  90.9526944 118.0115220  48.7431972  89.4336548 115.4304634
  48.6645604  89.0996411 116.3240392  49.5641639  89.9258316 115.4296107
  43.2793494  81.1694340 114.6808157  44.2252599  81.0400548 114.7496575
  42.9007739  80.4309002 115.1577585  49.2515379  72.8350346 124.6435049
  49.0540200  72.5265434 125.5278381  49.8615084  73.5611985 124.7732979
  41.4636411  79.0944317 114.6163042  40.5567867  78.7977429 114.6925756
  41.7412392  78.7974135 113.7497329  43.0798477  73.6381206 120.7707284
  42.2699205  73.2928291 121.1462530  43.7682894  73.3288750 121.3594895
  45.0089025  72.7159253 122.3931580  45.5620064  73.1354706 123.0521603
  45.2459112  71.7895001 122.4354536  40.2335196  75.9531252 114.7575021
  41.0954360  76.2786150 115.0170839  40.4185540  75.1662748 114.2448087
  48.3867832  74.8259778 121.9010244  47.8066501  75.4844582 121.5188297
  48.1203765  74.0037123 121.4897662  46.8371399  74.2264836 124.1031565
  47.3371177  74.3381370 123.2945884  47.4807007  73.9225889 124.7432373
  47.1692710  76.9859869 120.9566593  46.2818565  77.2709519 120.7386788
  47.5846699  76.8253632 120.1093870  46.3135924  86.7504543 115.0514613
  47.0171774  86.9554546 115.6672268  45.5898573  87.3181305 115.3163696
  47.1433734  82.5014405 121.1716883  47.0868936  82.9582956 120.3324515
  47.6962077  81.7405089 120.9939726  50.9538540  78.2904136 121.9967002
  50.6975474  77.8900772 122.8275210  50.3291408  79.0047930 121.8717142
  48.2222621  87.1887072 117.1013073  49.0568225  86.7568271 116.9190548
  48.0606964  87.0169086 118.0289967  47.8768513  83.6919186 118.4669412
  47.8217317  83.5263457 117.5257856  47.2514569  84.3995219 118.6231602
  41.1864639  73.1927295 118.0454730  41.1743309  74.1369135 118.2023001
  42.0788061  73.0097440 117.7514192  45.0016758  69.7870071 122.3000667
  44.2349154  69.2328558 122.4457350  45.4127463  69.8591940 123.1614819
  49.5574857  93.4871847 114.8145932  48.6804323  93.3660648 114.4508179
  50.0332610  92.6957925 114.5624821  51.0728950  91.2823169 114.7575021
  51.9348114  91.6078068 115.0170839  51.2579295  90.4954665 114.2448087
  23.1587579  38.4964579 103.8822494  22.4849277  38.7996276 104.4907452
  23.5453401  39.2993660 103.5327951  27.0644464  35.7814835 102.1549941
  26.9858096  35.4474699 103.0485699  27.8854131  36.2736603 102.1541413
  24.6348416  33.0982831 101.7759919  25.3384266  33.3032833 102.3917575
  23.9111065  33.6659592 102.0409003  27.8395911  45.8597915 109.8471972
  27.2760776  45.7687852 109.0788260  27.7248306  45.0397820 110.3274464
  33.4195469  49.5268883 105.1586437  32.7683449  50.1122963 104.7720451
  34.2139832  50.0575078 105.2181474  27.3451096  46.6158020 105.5573571
  28.1181972  46.0687007 105.4186447  27.6976495  47.4802270 105.7688032
  29.6817374  42.7750686 103.1892021  29.9342895  42.2532208 102.4275484
  28.7441933  42.6116832 103.2918705  34.7260657  41.7786465 110.9966764
  35.5123746  41.3605888 110.6457181  34.9899361  42.6832557 111.1648413
  34.8970734  47.2159315 105.6955421  34.2616567  47.2893942 106.4076326
  34.5668141  47.8052914 105.0174500  40.1269084  41.7161698 111.8999743
  40.8594256  41.1460915 112.1337572  39.3708440  41.3283298 112.3406248
  29.4013663  44.6778792 105.3916396  29.2849921  44.0023696 106.0597480
  29.5115923  44.1911166 104.5748549  31.7445204  44.1388939 109.0963085
  31.3803411  43.6119560 109.8076007  32.6012320  43.7487408 108.9229571
  31.3850691  39.1678839 104.0924434  31.5525093  40.0359075 104.4594905
  31.1947860  39.3306121 103.1685723  31.3639912  41.6236497 105.0771101
  31.2439537  42.0693547 105.9156581  30.6692500  41.9721814 104.5184639
  29.1246804  54.3940138 108.7261232  29.0470834  55.3447963 108.8049712
  28.5208447  54.0486011 109.3836158  37.0624978  42.0957970 105.9051435
  37.9742834  42.3285357 105.7299132  36.5534625  42.6795014 105.3426513
  35.6694560  47.0783788 113.2965016  35.0403423  47.2429502 112.5941084
  35.2820222  47.4925398 114.0675980  39.5483792  48.0138226 110.6509380
  38.8634830  48.3937127 110.1006413  39.6327641  48.6233553 111.3841328
  31.2222522  46.8158196 110.5615101  31.6860868  47.0945899 109.7719724
  30.9579320  45.9141641 110.3788192  30.1591408  42.9381349 107.3704666
  30.8615452  43.3902392 107.8378593  29.8272037  42.2965168 107.9984559
  37.9180552  48.5370141 115.4227081  38.7397995  48.1350328 115.1409762
  37.9142955  48.4338375 116.3743196  46.0086545  44.8808889 111.7712052
  45.2550253  44.3116287 111.6156057  46.1434086  44.8471553 112.7182687
  31.3985173  49.7522291 107.4466771  31.2630848  50.5973827 107.8751619
  31.9394985  49.9541569 106.6832705  24.8514570  47.2697729 108.0194697
  25.3639091  48.0640980 108.1700261  25.5037283  46.5724020 107.9528298
  26.6609455  50.3863486 110.1017450  26.8376083  51.3081450 109.9138434
  27.4566288  50.0721905 110.5311830  34.7127919  43.2661464 104.4838100
  34.1974543  44.0366069 104.7226487  34.4405228  42.5926600 105.1071162
  39.6862193  46.0193819 106.4191274  38.9091636  45.6804978 105.9746436
  40.3653674  46.0246442 105.7446239  34.5014222  41.1388556 106.3097881
  34.1964358  41.4534706 107.1608024  35.4544664  41.2169976 106.3525214
  32.9460654  47.2978780 107.9590835  32.4182016  46.5631539 107.6464073
  32.4448157  48.0753456 107.7130804  37.9253500  45.4927800 113.0757882
  37.2677175  46.1827062 113.1638010  38.7293899  45.8824232 113.4191868
  36.7358959  43.8472173 111.1261823  37.2490841  44.4802165 111.6283533
  37.3860183  43.2473368 110.7605183  28.0048969  39.9902907 104.3393332
  27.1686281  40.3277594 104.6602607  27.8653738  39.8551887 103.4020469
  31.0913254  45.1158990 100.9625808  30.1840316  44.8848243 101.1616957
  31.5884286  44.3196609 101.1499790  33.9981333  53.8256497 103.8822494
  33.3243032  54.1288194 104.4907452  34.3847155  54.6285577 103.5327951
  33.9974838  42.7213044 108.5022844  34.7446657  43.2334441 108.1929966
  34.2666427  42.3997097 109.3627238  32.2701488  45.2171585 105.4849798
  31.3612707  44.9330618 105.5822268  32.2996572  45.6370663 104.6253105
  37.5020755  48.8278174 109.2540966  37.0483082  47.9869084 109.3106156
  36.8714722  49.4639573 109.5915746  35.9453694  50.6654671 110.1890784
  36.2376669  51.2259728 109.4703150  36.4552315  50.9583232 110.9443943
  31.9677576  46.7580328 102.8237877  31.5297005  46.0416187 102.3643514
  32.7088016  46.9856443 102.2622968  30.9087320  51.4435022 111.2784237
  30.8663498  51.6695868 110.3492769  31.8250018  51.2098397 111.4270038
  40.0850690  45.0337526 108.8814195  39.9468589  45.2239122 107.9535385
  39.7286909  45.7956908 109.3382247  40.1120070  47.1014053 113.8925467
  40.5456577  47.0089342 114.7408521  40.8251651  47.0771553 113.2545483
  29.0253120  48.3198051 111.0746200  29.8193719  47.8248371 110.8728775
  28.3144813  47.7915914 110.7113906  33.8447965  50.7016147 115.4258568
  33.8984987  51.2707083 116.1936283  32.9762746  50.8718032 115.0612605
  25.3335884  42.4641133 107.1505953  24.4033472  42.4025588 107.3675915
  25.4293356  41.9417086 106.3542594  32.1972548  53.9936170 106.0969574
  32.3724304  53.5224213 106.9115196  31.5105336  54.6201936 106.3250834
  33.1529612  48.2708676 112.1432875  32.8179444  48.2309446 113.0390525
  32.6533557  47.6053392 111.6703285  36.0888803  45.6164710 102.4169935
  35.4717974  44.8911538 102.3202987  35.6205292  46.3774070 102.0737009
  26.7633634  57.1425532 112.8709434  27.0030232  57.7744056 113.5488452
  25.9202830  56.7913572 113.1574793  27.8787349  39.8350134 101.5391239
  27.0016815  39.7138935 101.1753485  28.3545102  39.0436213 101.2870127
  31.2761495  52.9504655 115.2750938  31.2031667  53.7559626 115.7870242
  30.8338889  53.1496621 114.4498959  31.0651275  52.1876425 108.7853759
  30.2818797  52.7298105 108.8791984  31.7644020  52.7050404 109.1848000
  42.2277683  43.7011420 113.0706256  42.2167559  44.5836135 112.7000189
  41.3595062  43.3482971 112.8760793  35.4577706  46.7542741 109.0026388
  34.5233985  46.8744204 108.8331092  35.6354374  45.8515208 108.7386398
  38.8450257  42.5960061 109.5376422  39.3110709  43.4288052 109.4636725
  39.2957758  42.1305042 110.2421681  36.9126488  48.9403882 106.5362574
  37.1886332  48.8260477 107.4456448  36.0430987  48.5421367 106.4974747
  33.5480552  53.1890233 110.1795388  33.7302947  52.3711889 110.6423140
  34.3713538  53.4057925 109.7420278  33.8822718  52.1158418 107.4410436
  34.4110484  51.6050873 106.8280598  34.1450937  51.8000948 108.3055969
  27.2378466  53.1673535 110.2008212  26.5688841  53.6519662 109.7172252
  27.0991336  53.4142755 111.1151591  31.3783734  55.2017278 116.7990871
  31.9302042  55.3648900 117.5639956  31.7189928  55.7921716 116.1270895
  34.5152122  53.1499254 113.7854553  34.3903261  52.3488994 113.2765498
  35.1731213  53.6445447 113.2968523  36.5787030  50.9508274 115.4134103
  35.6317366  50.8313625 115.3412430  36.9269803  50.0630772 115.4960364
  33.5833463  50.7460990 111.6138455  33.4358426  49.8177697 111.7946025
  34.4086957  50.7681081 111.1295530  37.1867585  51.5689549 112.7003328
  38.1114133  51.3632410 112.5627779  37.0182889  51.3205950 113.6092669
  29.4363855  37.8953679 105.6712240  30.1572217  38.2734932 105.1675957
  28.8129159  38.6142556 105.7747218  33.5794978  38.5998828 106.6070572
  33.7958592  39.4823466 106.3059401  33.0989045  38.2085041 105.8776214
  36.9762901  52.0875216 108.0565419  37.1499779  51.5221639 107.3039272
  37.4691793  52.8876111 107.8744909  42.8302293  44.8511639 109.6755719
  43.2733439  44.1018964 109.2774842  41.9528803  44.8421776 109.2929451
  37.9638074  51.4041981 105.1562318  38.6588979  52.0248673 105.3749632
  38.3061224  50.5537332 105.4314695  39.8629497  48.8541686 106.6849648
  40.3880821  49.1928959 105.9598968  39.7751850  47.9188701 106.5012783
  31.5470158  54.9213669 111.0444902  31.1075148  54.4290048 111.7377758
  32.2978275  54.3786637 110.8036977  24.0262497  51.1125210 111.0469530
  24.8520517  50.8128982 110.6668173  23.6756549  50.3432833 111.4959318
  28.9944030  50.4651679 113.1167203  28.3724039  49.8022384 112.8169431
  29.6648897  50.4912810 112.4340851  28.5557537  49.0155602 106.5925664
  28.7045657  49.6991066 105.9392337  29.3623980  48.9960692 107.1075120
  42.3735157  46.3216877 112.0678167  43.2082049  46.7606682 112.2315727
  42.5094286  45.8455531 111.2486412  26.3110170  45.0420780 107.5986733
  26.0656212  44.1383110 107.7966943  26.4806084  45.0437930 106.6566211
  25.5805817  40.7749137 105.0972894  24.8875062  40.8493492 104.4412930
  25.3357569  40.0109481 105.6194411  32.0552942  51.5103732 104.0637411
  31.4826909  52.1293919 103.6107883  32.6285736  52.0603094 104.5977333
  35.2750202  51.7940882 105.1945993  36.2080875  51.7286444 105.3978869
  35.1873415  52.6297149 104.7360526  37.9038219  51.1106753 102.1549941
  37.8251850  50.7766616 103.0485699  38.7247886  51.6028521 102.1541413
  32.4399741  42.8464545 101.4053464  33.3858846  42.7170753 101.4741882
  32.0613986  42.1079207 101.8822892  46.4192960  45.0384499 114.5032296
  47.1496348  44.7769787 115.0640000  45.8099905  44.3013221 114.5434364
  44.5008257  43.1792362 115.1006748  43.7741421  43.0448326 114.4923239
  44.0855544  43.4869190 115.9063466  30.6242658  40.7714521 101.3408349
  29.7174113  40.4747634 101.4171063  30.9018639  40.4744340 100.4742635
  29.3941443  37.6301457 101.4820328  30.2560607  37.9556355 101.7416145
  29.5791787  36.8432953 100.9693394  37.5474079  36.5029983 108.6255551
  36.9672748  37.1614787 108.2433604  37.2810012  35.6807328 108.2142969
  36.3298957  38.6630074 107.6811899  35.4424812  38.9479724 107.4632094
  36.7452946  38.5023837 106.8339176  24.3383208  53.2437825 112.7683344
  24.2037676  52.4838226 112.2021342  23.9215270  53.9678725 112.3012133
  35.4742171  48.4274748 101.7759919  36.1778021  48.6324751 102.3917575
  34.7504819  48.9951510 102.0409003  36.3039981  44.1784609 107.8962190
  36.2475182  44.6353161 107.0569822  36.8568323  43.4175294 107.7185032
  40.1144787  39.9674341 108.7212309  39.8581721  39.5670977 109.5520517
  39.4897655  40.6818135 108.5962448  44.4257125  42.7070415 111.2283600
  43.8656683  42.7763604 112.0015162  43.8200628  42.5311399 110.5083097
  27.4952333  54.1407142 112.9801787  27.3784718  55.0852574 112.8780477
  26.6744780  53.8380703 113.3687586  37.3828868  48.8657277 103.8258379
  38.2174472  48.4338476 103.6435854  37.2213211  48.6939291 104.7535274
  37.0374760  45.3689391 105.1914719  36.9823564  45.2033662 104.2503163
  36.4120815  46.0765424 105.3476908  30.3470886  34.8697500 104.7700037
  30.3349555  35.8139340 104.9268308  31.2394308  34.6867645 104.4759498
  30.2760450  53.5466390 112.8567794  29.3256081  53.5468252 112.7432166
  30.5792936  52.7999125 112.3403828  46.0113143  59.3826929 113.9213556
  46.6491553  59.2633676 113.2176896  45.8933986  60.3307772 113.9801508
  42.8202849  59.3354357 113.8575081  42.4821361  59.2195421 112.9695616
  43.6892618  58.9345522 113.8376087  38.6789665  61.1889833 109.8471972
  38.1154530  61.0979770 109.0788260  38.5642060  60.3689737 110.3274464
  43.3022632  60.4889208 119.8161286  43.2911273  60.0942007 118.9441790
  43.4643272  59.7555281 120.4095058  36.2254097  62.6841025 112.6856192
  37.0175389  62.3431849 112.2702492  36.4650747  62.7936000 113.6058346
  44.2589224  64.8560801 105.1586437  43.6077204  65.4414881 104.7720451
  45.0533587  65.3866996 105.2181474  38.1844851  61.9449938 105.5573571
  38.9575727  61.3978925 105.4186447  38.5370250  62.8094187 105.7688032
  40.0229894  63.2726320 118.7640470  39.7319759  64.1771951 118.6487137
  40.6586878  63.3142848 119.4784540  40.9486100  60.6503169 115.3541830
  41.5449673  60.4259191 114.6398793  41.0061072  59.9087914 115.9567278
  40.5211129  58.1042604 103.1892021  40.7736649  57.5824125 102.4275484
  39.5835688  57.9408749 103.2918705  45.5654412  57.1078382 110.9966764
  46.3517501  56.6897806 110.6457181  45.8293116  58.0124475 111.1648413
  45.7364489  62.5451233 105.6955421  45.1010322  62.6185859 106.4076326
  45.4061895  63.1344832 105.0174500  50.9662839  57.0453616 111.8999743
  51.6988011  56.4752832 112.1337572  50.2102194  56.6575216 112.3406248
  40.2407418  60.0070710 105.3916396  40.1243676  59.3315613 106.0597480
  40.3509677  59.5203084 104.5748549  42.5838958  59.4680857 109.0963085
  42.2197166  58.9411478 109.8076007  43.4406074  59.0779326 108.9229571
  48.4888259  50.7575190 116.3594351  48.1571584  51.6270601 116.1355566
  47.8933872  50.4411474 117.0388382  42.2244445  54.4970757 104.0924434
  42.3918848  55.3650993 104.4594905  42.0341614  54.6598038 103.1685723
  44.9819779  62.9587736 115.7590264  44.6820502  63.8612774 115.6506071
  44.6370838  62.6919919 116.6111417  38.4332260  59.4101533 111.7926968
  37.5082757  59.2777747 112.0004660  38.6816673  60.1895752 112.2896911
  48.3816922  55.4770276 113.4387701  47.4733800  55.4085684 113.1446462
  48.3304518  55.9542221 114.2669527  42.2033666  56.9528414 105.0771101
  42.0833291  57.3985465 105.9156581  41.5086255  57.3013732 104.5184639
  35.7941071  59.0534806 112.6270758  35.9233452  59.3069285 113.5410169
  35.1138522  59.6462514 112.3075413  39.9640558  69.7232056 108.7261232
  39.8864588  70.6739881 108.8049712  39.3602202  69.3777929 109.3836158
  42.4557788  56.8959921 121.3822599  41.6791122  57.4553842 121.3725463
  43.0948351  57.3816704 121.9037469  50.2478569  53.6786714 115.2165575
  49.6052949  53.9719247 114.5705370  49.7433497  53.5639635 116.0218772
  47.9018732  57.4249887 105.9051435  48.8136589  57.6577274 105.7299132
  47.3928380  58.0086932 105.3426513  40.7104160  59.7045375 120.9440566
  41.4518845  60.2430419 120.6675389  40.0041146  60.3311664 121.1012117
  46.1859500  61.8474515 119.5412727  46.5942856  61.4056926 118.7967359
  45.4636762  61.2727143 119.7946920  42.5390570  56.7847122 116.9146284
  43.3851765  57.2086536 117.0580933  42.4789208  56.1280746 117.6084847
  46.5088315  62.4075706 113.2965016  45.8797177  62.5721420 112.5941084
  46.1213977  62.8217315 114.0675980  50.3877547  63.3430144 110.6509380
  49.7028585  63.7229045 110.1006413  50.4721396  63.9525470 111.3841328
  45.6890015  54.4451490 118.5727458  45.4450947  55.1993551 118.0361733
  45.9649946  54.8236838 119.4074705  47.6428478  60.9890103 117.2504723
  47.8545373  61.6321863 116.5739104  47.5958227  60.1552419 116.7826653
  45.2454707  53.6007923 114.1541295  44.3839186  53.8989177 114.4458033
  45.2717142  53.8178322 113.2222328  42.0616277  62.1450114 110.5615101
  42.5254622  62.4237817 109.7719724  41.7973075  61.2433559 110.3788192
  38.9540358  61.6921596 113.4994864  39.5241715  62.1208864 112.8612349
  39.5448470  61.4104180 114.1979050  40.9985163  58.2673266 107.3704666
  41.7009206  58.7194310 107.8378593  40.6665791  57.6257085 107.9984559
  39.4465524  56.8585023 121.7455876  38.8164185  57.5401304 121.9791272
  39.3401612  56.7468105 120.8009014  34.7410497  56.5256819 112.6721800
  33.9509551  56.7814348 112.1961910  35.2321744  57.3405157 112.7773840
  48.7574306  63.8662058 115.4227081  49.5791750  63.4642245 115.1409762
  48.7536709  63.7630292 116.3743196  36.6925242  56.8901398 109.6305277
  35.8956405  57.0020093 110.1488772  36.4650834  57.2288050 108.7646167
  42.5230910  63.4146101 117.5787791  42.5875342  63.8766509 118.4145963
  41.8141834  62.7843466 117.7070101  33.0248200  56.7787309 115.1036791
  33.2756238  57.6634319 115.3694367  33.5607748  56.5991911 114.3311882
  56.8480299  60.2100807 111.7712052  56.0944008  59.6408205 111.6156057
  56.9827840  60.1763471 112.7182687  42.2378927  65.0814209 107.4466771
  42.1024602  65.9265745 107.8751619  42.7788740  65.2833487 106.6832705
  35.6908325  62.5989647 108.0194697  36.2032845  63.3932897 108.1700261
  36.3431038  61.9015937 107.9528298  37.5003209  65.7155403 110.1017450
  37.6769838  66.6373368 109.9138434  38.2960043  65.4013822 110.5311830
  36.7855566  57.7620035 119.9779613  36.6709081  56.8605292 120.2786712
  35.9300084  58.0083732 119.6264429  43.8647404  65.7037775 121.5767114
  43.4211258  64.9174154 121.2588018  44.5264617  65.8916926 120.9111004
  38.6234525  67.2333577 116.1027792  39.1741950  67.1050640 115.3304786
  37.7846001  67.5328466 115.7522685  45.9628642  65.9840575 119.6048515
  45.9447117  66.8049456 119.1128784  46.8848562  65.8594651 119.8298656
  42.4201696  63.4984705 120.4472023  42.9530033  62.7372993 120.2171331
  41.8915777  63.2058357 121.1896178  45.5871391  48.6044771 115.9765665
  45.2435660  49.4946413 115.9004776  45.9550353  48.4146428 115.1135250
  33.6557241  60.9278301 108.7954267  34.4932463  61.3375310 108.5787975
  33.8335509  59.9877743 108.7654461  45.5521674  58.5953382 104.4838100
  45.0368297  59.3657987 104.7226487  45.2798982  57.9218518 105.1071162
  43.1368785  53.4403083 109.5423338  42.2810381  53.0509933 109.3628977
  43.5495736  53.5195044 108.6823124  44.6667931  50.9749426 113.9414898
  44.1632727  50.9379561 113.1282703  44.9598538  51.8842169 114.0011555
  40.9110817  51.0588156 112.9481080  41.7763814  50.8630964 112.5886969
  40.9788326  50.8298507 113.8750437  50.5255948  61.3485737 106.4191274
  49.7485390  61.0096896 105.9746436  51.2047429  61.3538360 105.7446239
  45.3407977  56.4680474 106.3097881  45.0358112  56.7826623 107.1608024
  46.2938419  56.5461894 106.3525214  43.7854409  62.6270697 107.9590835
  43.2575770  61.8923457 107.6464073  43.2841911  63.4045374 107.7130804
  48.7647255  60.8219718 113.0757882  48.1070929  61.5118979 113.1638010
  49.5687654  61.2116150 113.4191868  38.5173136  53.2890364 110.3197447
  39.0916888  53.0665545 109.5870640  39.1044119  53.3579058 111.0726048
  47.5752713  59.1764091 111.1261823  48.0884595  59.8094082 111.6283533
  48.2253937  58.5765286 110.7605183  38.8442723  55.3194825 104.3393332
  38.0080036  55.6569511 104.6602607  38.7047493  55.1843804 103.4020469
  40.8195804  50.1631613 109.0472516  40.1660216  49.8480630 108.4229131
  40.7776278  49.5407353 109.7732339  41.9307009  60.4450908 100.9625808
  41.0234071  60.2140161 101.1616957  42.4278041  59.6488527 101.1499790
  44.8375088  69.1548415 103.8822494  44.1636786  69.4580112 104.4907452
  45.2240910  69.9577495 103.5327951  44.0533544  56.6513546 113.3720164
  43.1356106  56.8728493 113.2141852  44.4693688  56.7259857 112.5131871
  44.8368592  58.0504962 108.5022844  45.5840411  58.5626359 108.1929966
  45.1060182  57.7289015 109.3627238  43.1095242  60.5463503 105.4849798
  42.2006461  60.2622535 105.5822268  43.1390326  60.9662581 104.6253105
  48.3414510  64.1570092 109.2540966  47.8876837  63.3161002 109.3106156
  47.7108476  64.7931490 109.5915746  47.2847429  55.0862078 110.4841633
  46.5470186  54.5739464 110.8151876  47.5374203  54.6462460 109.6724910
  46.7847449  65.9946589 110.1890784  47.0770423  66.5551646 109.4703150
  47.2946069  66.2875150 110.9443943  47.3859057  47.8638330 111.0783403
  47.6917933  47.0035693 110.7909318  48.1111661  48.4555950 110.8782397
  33.6783413  58.2669017 109.4665001  33.4807812  57.6738377 108.7416067
  33.1230077  57.9621227 110.1840939  41.6580136  58.1592123 111.5859594
  41.7128746  57.2065960 111.5102070  40.8471338  58.3151562 112.0700892
  42.8071330  62.0872246 102.8237877  42.3690760  61.3708105 102.3643514
  43.5481771  62.3148361 102.2622968  39.5972496  56.7769183 109.3449973
  38.7840362  57.0763353 109.7515165  40.0931490  56.3824872 110.0624455
  41.7481074  66.7726940 111.2784237  41.7057253  66.9987786 110.3492769
  42.6643773  66.5390314 111.4270038  45.1946708  57.2411007 118.1764866
  45.5496096  57.4682480 119.0359332  45.8418839  57.5729384 117.5542122
  50.9244445  60.3629443 108.8814195  50.7862343  60.5531039 107.9535385
  50.5680664  61.1248826 109.3382247  39.0886571  54.3487538 114.9611208
  39.7285950  54.2076297 114.2634171  38.2564101  54.0622052 114.5849810
  50.9513824  62.4305970 113.8925467  51.3850331  62.3381259 114.7408521
  51.6645405  62.4063471 113.2545483  39.8646875  63.6489969 111.0746200
  40.6587473  63.1540289 110.8728775  39.1538567  63.1207832 110.7113906
  44.6841719  66.0308064 115.4258568  44.7378742  66.5999001 116.1936283
  43.8156501  66.2009949 115.0612605  36.1729638  57.7933051 107.1505953
  35.2427226  57.7317506 107.3675915  36.2687110  57.2709003 106.3542594
  36.0915187  54.3187863 109.7384194  36.3522005  55.2333197 109.6293355
  36.9132360  53.8512306 109.8880807  37.5640113  55.7325621 116.9083019
  38.2363166  55.5242983 116.2595668  36.7369899  55.5347707 116.4688251
  51.8129374  62.4729671 116.4258352  52.0065264  63.3775481 116.6717627
  51.7129992  62.0137090 117.2596937  43.4665685  52.3587561 118.9248680
  42.8193600  53.0577511 118.8313156  44.2366700  52.7923705 119.2924928
  46.8744483  62.6236414 121.9999233  46.7229989  62.3946965 121.0829317
  46.8649162  63.5807015 122.0130578  43.6429819  60.1968326 116.9845499
  44.5721879  60.3479486 116.8114467  43.2220849  60.2852347 116.1294146
  42.4418151  64.2218991 114.7544037  42.3029237  63.8537775 115.6269975
  41.6532747  64.7366630 114.5827995  43.0366303  69.3228087 106.0969574
  43.2118059  68.8516130 106.9115196  42.3499091  69.9493853 106.3250834
  43.9923366  63.6000593 112.1432875  43.6573199  63.5601363 113.0390525
  43.4927312  62.9345309 111.6703285  37.9667610  59.0068223 117.6685456
  37.8287408  58.2748462 118.2696995  38.8772533  58.9177124 117.3869644
  46.9282558  60.9456628 102.4169935  46.3111728  60.2203456 102.3202987
  46.4599046  61.7065988 102.0737009  40.5949911  58.7188183 117.1569136
  41.3049529  58.0781375 117.1155754  40.5519219  58.9701078 118.0795316
  48.5836689  65.6555536 120.0775715  48.5249235  64.9714756 119.4106298
  48.9856208  66.3974526 119.6256341  39.3078845  55.7053401 118.9764775
  38.7716202  55.2544139 119.6286371  38.7195553  55.8399310 118.2335239
  37.6027388  72.4717450 112.8709434  37.8423986  73.1035974 113.5488452
  36.7596585  72.1205490 113.1574793  38.7181104  55.1642052 101.5391239
  37.8410570  55.0430853 101.1753485  39.1938857  54.3728130 101.2870127
  48.5854097  63.6195120 118.3089695  47.6980875  63.2821042 118.4316093
  49.1552648  62.8878151 118.5458460  30.2383244  59.9519212 111.6332746
  30.9254284  59.6380942 111.0453761  30.0831372  60.8560576 111.3599997
  35.0417966  54.8409408 116.0617770  34.9576155  54.2335078 115.3268180
  34.2200672  55.3318427 116.0627266  42.1155250  68.2796572 115.2750938
  42.0425421  69.0851544 115.7870242  41.6732643  68.4788538 114.4498959
  41.9045030  67.5168342 108.7853759  41.1212551  68.0590023 108.8791984
  42.6037775  68.0342322 109.1848000  45.2141680  53.3262972 111.4287965
  45.7110379  52.5732934 111.1089035  44.4428661  53.3627289 110.8631174
  53.0671437  59.0303337 113.0706256  53.0561313  59.9128053 112.7000189
  52.1988817  58.6774888 112.8760793  44.5753933  68.1783406 117.4309096
  45.2881906  68.8130871 117.3584998  44.0843962  68.2747272 116.6149098
  46.2971460  62.0834659 109.0026388  45.3627739  62.2036122 108.8331092
  46.4748129  61.1807126 108.7386398  41.7976648  55.4680355 111.1559649
  41.4274436  54.9151395 111.8440555  42.2935741  54.8638488 110.6034649
  49.6844012  57.9251978 109.5376422  50.1504464  58.7579970 109.4636725
  50.1351512  57.4596960 110.2421681  39.6265847  65.9277850 118.2514667
  40.3275307  66.5614333 118.4044061  39.1560962  66.2692581 117.4910306
  47.7520243  64.2695800 106.5362574  48.0280087  64.1552394 107.4456448
  46.8824742  63.8713285 106.4974747  47.6560674  50.2932565 113.5767324
  46.7423754  50.5236792 113.7449530  48.0853776  50.3771009 114.4281356
  47.4267133  58.4822457 116.0767218  46.7738583  58.7298365 115.4219670
  47.8047513  57.6686596 115.7429695  44.3874307  68.5182151 110.1795388
  44.5696701  67.7003807 110.6423140  45.2107293  68.7349843 109.7420278
  44.7216472  67.4450336 107.4410436  45.2504239  66.9342790 106.8280598
  44.9844692  67.1292866 108.3055969  43.4754706  59.2242268 122.5633255
  42.7995343  59.1236398 123.2335630  44.2982340  59.0681482 123.0269252
  35.2233565  65.4614205 115.1845770  35.8087002  64.7157893 115.3173674
  35.0258404  65.7718162 116.0682434  38.0772220  68.4965452 110.2008212
  37.4082596  68.9811580 109.7172252  37.9385090  68.7434673 111.1151591
  29.8151220  58.0319805 113.9050213  29.8535319  57.4983396 114.6987331
  29.3091513  57.5055011 113.2861190  42.2177489  70.5309196 116.7990871
  42.7695797  70.6940817 117.5639956  42.5583682  71.1213634 116.1270895
  37.1941982  52.8784346 117.4012755  37.2583309  53.7399177 116.9890153
  37.1309102  52.2658347 116.6685114  47.0688363  65.3570453 122.6539525
  47.6128267  65.9700412 122.1594480  46.4875208  65.9150032 123.1706538
  33.4459797  56.7583907 106.9804144  33.7413238  55.8494586 106.9271198
  32.5447833  56.7371647 106.6585147  45.3545876  68.4791171 113.7854553
  45.2297016  67.6780911 113.2765498  46.0124967  68.9737365 113.2968523
  36.9754044  54.8339904 112.9631693  36.2540630  55.4475872 112.8239166
  37.7647300  55.3697669 112.8848339  47.4180785  66.2800192 115.4134103
  46.4711120  66.1605543 115.3412430  47.7663558  65.3922690 115.4960364
  35.1747639  54.4398005 107.1043470  34.8460345  53.5595384 106.9218576
  35.5287010  54.3845674 107.9919859  44.4227218  66.0752908 111.6138455
  44.2752180  65.1469615 111.7946025  45.2480711  66.0972998 111.1295530
  38.2889462  54.7270975 107.4718947  38.6285535  55.2556896 106.7497556
  38.7361583  55.0651381 108.2477514  48.0261340  66.8981466 112.7003328
  48.9507887  66.6924328 112.5627779  47.8576643  66.6497868 113.6092669
  40.9832903  53.1108026 116.9222015  40.6429723  52.3115839 117.3242695
  40.2771909  53.4109736 116.3498849  41.6349375  50.1957338 115.3749338
  42.4575444  49.7217816 115.2528229  41.8787438  50.9747822 115.8748025
  40.2757609  53.2245596 105.6712240  40.9965972  53.6026849 105.1675957
  39.6522913  53.9434473 105.7747218  44.4188732  53.9290745 106.6070572
  44.6352347  54.8115383 106.3059401  43.9382799  53.5376959 105.8776214
  39.1587954  56.8876459 113.1841317  39.0132534  57.2016762 114.0765598
  38.6813157  57.5061359 112.6312216  41.0184336  53.8779007 113.2322207
  41.0045905  52.9820100 112.8954504  41.7356765  53.8849670 113.8660493
  42.8710467  54.3116347 115.2775334  42.6128245  55.2333417 115.2759664
  42.3395508  53.9146781 115.9675798  47.8156656  67.4167134 108.0565419
  47.9893533  66.8513556 107.3039272  48.3085547  68.2168029 107.8744909
  33.6333616  59.4281803 116.1228978  33.0887084  60.2041611 116.2549252
  34.5112966  59.7752607 115.9648100  40.4221232  52.7593387 108.5009777
  40.5437144  51.8310033 108.7000664  40.1323275  52.7732073 107.5888092
  43.2912423  50.4448297 111.6376496  43.3134120  50.5087630 110.6828476
  43.7080482  49.6052806 111.8317003  53.6696047  60.1803557 109.6755719
  54.1127193  59.4310882 109.2774842  52.7922557  60.1713693 109.2929451
  48.8031828  66.7333898 105.1562318  49.4982733  67.3540591 105.3749632
  49.1454979  65.8829250 105.4314695  34.4199638  58.5551699 119.0159135
  33.6781374  58.7034335 119.6023765  34.0992382  58.8159965 118.1525884
  50.7023252  64.1833604 106.6849648  51.2274576  64.5220877 105.9598968
  50.6145604  63.2480619 106.5012783  42.3643300  68.0967677 118.8139525
  42.6730427  67.8516824 119.6862225  43.1618782  68.3014316 118.3258395
  42.3863912  70.2505587 111.0444902  41.9468903  69.7581966 111.7377758
  43.1372029  69.7078555 110.8036977  34.8656251  66.4417128 111.0469530
  35.6914271  66.1420900 110.6668173  34.5150303  65.6724750 111.4959318
  39.8337784  65.7943596 113.1167203  39.2117794  65.1314301 112.8169431
  40.5042651  65.8204728 112.4340851  33.0664856  64.3603454 112.0058463
  32.2296765  63.9325629 111.8242464  33.0388502  64.5535898 112.9429254
  50.3917158  64.8166507 121.9900846  49.6012701  64.7990646 121.4505346
  50.1550512  65.3554801 122.7449883  50.5115033  61.6658974 119.3033575
  50.5613038  61.5008981 120.2449098  50.4028956  60.7986233 118.9131456
  39.3951291  64.3447520 106.5925664  39.5439412  65.0282984 105.9392337
  40.2017735  64.3252610 107.1075120  47.8018795  57.6489902 120.6192882
  48.7028658  57.5096367 120.3276879  47.8766770  57.8144357 121.5591059
  42.1361600  55.0256757 119.4646068  41.2664910  55.3190323 119.1928656
  42.3721081  55.6097202 120.1853332  52.0133229  64.0855915 119.5475596
  51.7218038  64.4485896 120.3839057  51.4005361  63.3722924 119.3688928
  53.2128912  61.6508795 112.0678167  54.0475803  62.0898599 112.2315727
  53.3488041  61.1747448 111.2486412  50.2620418  59.2088530 118.0155654
  50.7374539  59.4016176 117.2074506  49.3385983  59.2647716 117.7699038
  37.1503924  60.3712697 107.5986733  36.9049966  59.4675027 107.7966943
  37.3199839  60.3729848 106.6566211  44.8400634  51.2436374 116.9811488
  45.3582578  51.9797400 116.6557977  44.4855767  51.5500367 117.8158247
  36.4199572  56.1041055 105.0972894  35.7268817  56.1785410 104.4412930
  36.1751324  55.3401398 105.6194411  45.0913228  47.6636656 112.5012385
  45.3714982  46.9959845 113.1272811  45.8763835  47.8565752 111.9887049
  42.8946697  66.8395650 104.0637411  42.3220664  67.4585837 103.6107883
  43.4679491  67.3895012 104.5977333  48.9622087  56.0854290 116.2483960
  49.9139510  56.1852388 116.2696184  48.7925537  55.2932559 116.7582044
  46.9836466  53.1709873 116.4343361  46.3886398  53.4514886 115.7389850
  46.6986163  53.6603774 117.2060102  46.1143957  67.1232800 105.1945993
  47.0474630  67.0578362 105.3978869  46.0267169  67.9589067 104.7360526
  48.7431973  66.4398670 102.1549941  48.6645605  66.1058534 103.0485699
  49.5641640  66.9320438 102.1541413  51.4410164  59.3060410 115.3626260
  51.4086485  58.3676411 115.5485943  52.0510788  59.3844446 114.6292085
  43.2793495  58.1756463 101.4053464  44.2252600  58.0462671 101.4741882
  42.9007740  57.4371125 101.8822892  51.5904653  56.0971453 115.4084543
  51.0743702  55.3129910 115.2214472  52.4744601  55.7690170 115.5731062
  49.2515380  49.8412469 111.3680356  49.0540201  49.5327557 112.2523687
  49.8615085  50.5674108 111.4978285  57.2586714  60.3676417 114.5032296
  57.9890103  60.1061705 115.0640000  56.6493660  59.6305139 114.5434364
  55.3402011  58.5084279 115.1006748  54.6135175  58.3740244 114.4923239
  54.9249298  58.8161108 115.9063466  43.1632188  62.2274209 122.8654121
  44.0835197  62.4052808 123.0594167  43.1281771  61.2830254 122.7133820
  41.4636412  56.1006439 101.3408349  40.5567868  55.8039552 101.4171063
  41.7412394  55.8036257 100.4742635  32.3814353  57.4212803 111.7907395
  32.0617137  56.5678111 111.4981769  31.8347781  57.6361381 112.5465363
  36.1594260  60.1375244 115.5076902  36.3780270  61.0692351 115.5264936
  36.5720034  59.7783218 116.2931706  43.0798478  50.6443329 107.4952590
  42.2699207  50.2990414 107.8707836  43.7682895  50.3350873 108.0840202
  45.0089027  49.7221376 109.1176887  45.5620065  50.1416829 109.7766910
  45.2459113  48.7957124 109.1599843  40.2335197  52.9593374 101.4820328
  41.0954361  53.2848273 101.7416145  40.4185541  52.1724870 100.9693394
  32.2502613  61.0415714 113.7600517  31.5566084  60.6269667 113.2470471
  32.9975604  61.0836251 113.1633936  48.3867834  51.8321901 108.6255551
  47.8066503  52.4906705 108.2433604  48.1203766  51.0099245 108.2142969
  46.8371400  51.2326959 110.8276871  47.3371178  51.3443493 110.0191190
  47.4807008  50.9288011 111.4677680  40.8953396  59.1405588 123.7144712
  40.4120478  59.9405948 123.9208601  40.9814335  59.1513533 122.7612156
  34.1639355  60.9733968 111.6366532  34.1410044  61.0721655 110.6848415
  34.4739992  61.8199119 111.9583698  36.8226733  63.0310123 115.7513146
  37.7769987  62.9994065 115.6843078  36.6239257  62.5700747 116.5663372
  37.4126115  61.6011239 118.3183944  38.2319004  62.0955318 118.3418781
  37.6862923  60.6843207 118.2901511  47.1692712  53.9921991 107.6811899
  46.2818567  54.2771642 107.4632094  47.5846701  53.8315755 106.8339176
  50.5207248  54.0168512 111.3966239  51.2967638  54.5064965 111.6690855
  49.7955382  54.4426566 111.8538108  52.9579806  54.7296131 112.4540179
  53.5524297  54.4891867 111.7433487  53.0306390  54.0103262 113.0813716
  35.1776962  68.5729742 112.7683344  35.0431430  67.8130143 112.2021342
  34.7609024  69.2970642 112.3012133  46.3135925  63.7566666 101.7759919
  47.0171775  63.9616668 102.3917575  45.5898574  64.3243428 102.0409003
  47.1433735  59.5076527 107.8962190  47.0868937  59.9645079 107.0569822
  47.6962078  58.7467212 107.7185032  50.9538541  55.2966259 108.7212309
  50.6975476  54.8962895 109.5520517  50.3291409  56.0110053 108.5962448
  55.2650879  58.0362332 111.2283600  54.7050437  58.1055522 112.0015162
  54.6594382  57.8603317 110.5083097  38.3346088  69.4699059 112.9801787
  38.2178472  70.4144492 112.8780477  37.5138534  69.1672621 113.3687586
  48.2222622  64.1949195 103.8258379  49.0568226  63.7630394 103.6435854
  48.0606965  64.0231209 104.7535274  47.8768515  60.6981308 105.1914719
  47.8217318  60.5325580 104.2503163  47.2514570  61.4057341 105.3476908
  45.1914422  63.0030220 124.5168281  46.0605581  63.1770873 124.1554916
  44.7121173  63.8224637 124.3944011  41.1864640  50.1989417 104.7700037
  41.1743310  51.1431257 104.9268308  42.0788062  50.0159563 104.4759498
  39.3600602  70.1227321 116.1957715  40.2627849  70.1550932 116.5124210
  39.1337972  69.1927772 116.2104051  41.1154204  68.8758308 112.8567794
  40.1649835  68.8760169 112.7432166  41.4186690  68.1291042 112.3403828
  45.0016760  46.7932194 109.0245974  44.2349155  46.2390681 109.1702656
  45.4127465  46.8654063 109.8860126  56.8506898  74.7118846 113.9213556
  57.4885308  74.5925594 113.2176896  56.7327740  75.6599690 113.9801508
  53.6596604  74.6646274 113.8575081  53.3215115  74.5487339 112.9695616
  54.5286372  74.2637439 113.8376087  49.5183420  76.5181751 109.8471972
  48.9548285  76.4271688 109.0788260  49.4035815  75.6981655 110.3274464
  54.1416387  75.8181126 119.8161286  54.1305028  75.4233924 118.9441790
  54.3037026  75.0847199 120.4095058  47.0647851  78.0132942 112.6856192
  47.8569143  77.6723767 112.2702492  47.3044502  78.1227917 113.6058346
  55.0982978  80.1852718 105.1586437  54.4470958  80.7706799 104.7720451
  55.8927341  80.7158913 105.2181474  49.0238605  77.2741856 105.5573571
  49.7969481  76.7270843 105.4186447  49.3764004  78.1386105 105.7688032
  50.8623648  78.6018238 118.7640470  50.5713514  79.5063869 118.6487137
  51.4980632  78.6434765 119.4784540  51.7879855  75.9795086 115.3541830
  52.3843427  75.7551109 114.6398793  51.8454826  75.2379832 115.9567278
  51.3604883  73.4334522 103.1892021  51.6130404  72.9116043 102.4275484
  50.4229442  73.2700667 103.2918705  56.4048166  72.4370300 110.9966764
  57.1911255  72.0189723 110.6457181  56.6686870  73.3416392 111.1648413
  56.5758243  77.8743150 105.6955421  55.9404076  77.9477777 106.4076326
  56.2455650  78.4636749 105.0174500  61.8056593  72.3745533 111.8999743
  62.5381765  71.8044750 112.1337572  61.0495949  71.9867134 112.3406248
  51.0801172  75.3362628 105.3916396  50.9637430  74.6607531 106.0597480
  51.1903432  74.8495002 104.5748549  53.4232713  74.7972775 109.0963085
  53.0590920  74.2703396 109.8076007  54.2799829  74.4071244 108.9229571
  59.3282014  66.0867107 116.3594351  58.9965338  66.9562518 116.1355566
  58.7327627  65.7703391 117.0388382  53.0638200  69.8262674 104.0924434
  53.2312602  70.6942911 104.4594905  52.8735369  69.9889956 103.1685723
  55.8213533  78.2879653 115.7590264  55.5214256  79.1904692 115.6506071
  55.4764593  78.0211837 116.6111417  49.2726015  74.7393450 111.7926968
  48.3476511  74.6069664 112.0004660  49.5210428  75.5187669 112.2896911
  59.2210677  70.8062194 113.4387701  58.3127554  70.7377602 113.1446462
  59.1698273  71.2834138 114.2669527  53.0427421  72.2820332 105.0771101
  52.9227046  72.7277383 105.9156581  52.3480009  72.6305650 104.5184639
  46.6334826  74.3826724 112.6270758  46.7627207  74.6361203 113.5410169
  45.9532277  74.9754432 112.3075413  50.8034313  85.0523974 108.7261232
  50.7258343  86.0031799 108.8049712  50.1995956  84.7069846 109.3836158
  53.2951543  72.2251839 121.3822599  52.5184877  72.7845759 121.3725463
  53.9342106  72.7108622 121.9037469  61.0872323  69.0078632 115.2165575
  60.4446704  69.3011165 114.5705370  60.5827252  68.8931552 116.0218772
  58.7412487  72.7541805 105.9051435  59.6530343  72.9869192 105.7299132
  58.2322134  73.3378849 105.3426513  51.5497915  75.0337292 120.9440566
  52.2912599  75.5722336 120.6675389  50.8434900  75.6603581 121.1012117
  57.0253255  77.1766433 119.5412727  57.4336611  76.7348843 118.7967359
  56.3030516  76.6019060 119.7946920  53.3784325  72.1139040 116.9146284
  54.2245520  72.5378453 117.0580933  53.3182962  71.4572664 117.6084847
  57.3482069  77.7367624 113.2965016  56.7190932  77.9013338 112.5941084
  56.9607731  78.1509233 114.0675980  61.2271301  78.6722061 110.6509380
  60.5422339  79.0520963 110.1006413  61.3115150  79.2817388 111.3841328
  56.5283770  69.7743408 118.5727458  56.2844702  70.5285469 118.0361733
  56.8043700  70.1528756 119.4074705  58.4822233  76.3182020 117.2504723
  58.6939128  76.9613780 116.5739104  58.4351981  75.4844337 116.7826653
  56.0848462  68.9299841 114.1541295  55.2232941  69.2281095 114.4458033
  56.1110896  69.1470240 113.2222328  52.9010031  77.4742032 110.5615101
  53.3648377  77.7529735 109.7719724  52.6366829  76.5725476 110.3788192
  49.7934112  77.0213513 113.4994864  50.3635469  77.4500782 112.8612349
  50.3842224  76.7396098 114.1979050  51.8378917  73.5965184 107.3704666
  52.5402961  74.0486228 107.8378593  51.5059546  72.9549003 107.9984559
  50.2859279  72.1876941 121.7455876  49.6557939  72.8693222 121.9791272
  50.1795367  72.0760022 120.8009014  45.5804251  71.8548737 112.6721800
  44.7903305  72.1106265 112.1961910  46.0715499  72.6697075 112.7773840
  59.5968061  79.1953976 115.4227081  60.4185504  78.7934163 115.1409762
  59.5930464  79.0922210 116.3743196  47.5318997  72.2193316 109.6305277
  46.7350160  72.3312010 110.1488772  47.3044589  72.5579968 108.7646167
  53.3624664  78.7438019 117.5787791  53.4269097  79.2058426 118.4145963
  52.6535588  78.1135384 117.7070101  43.8641954  72.1079227 115.1036791
  44.1149993  72.9926237 115.3694367  44.4001503  71.9283829 114.3311882
  67.6874054  75.5392724 111.7712052  66.9337762  74.9700122 111.6156057
  67.8221595  75.5055389 112.7182687  53.0772682  80.4106127 107.4466771
  52.9418357  81.2557662 107.8751619  53.6182494  80.6125404 106.6832705
  49.5640021  66.4897706 124.1081127  49.1706967  65.9363905 124.7828771
  50.3806162  66.8008285 124.4987644  46.5302079  77.9281565 108.0194697
  47.0426600  78.7224815 108.1700261  47.1824792  77.2307855 107.9528298
  48.3396964  81.0447321 110.1017450  48.5163592  81.9665286 109.9138434
  49.1353797  80.7305740 110.5311830  52.4807982  67.9055586 121.7001383
  53.2217696  68.5062739 121.6205846  52.7125905  67.1633223 121.1419426
  47.6249320  73.0911953 119.9779613  47.5102836  72.1897210 120.2786712
  46.7693838  73.3375650 119.6264429  49.4628279  82.5625495 116.1027792
  50.0135704  82.4342558 115.3304786  48.6239755  82.8620384 115.7522685
  56.8022396  81.3132493 119.6048515  56.7840872  82.1341374 119.1128784
  57.7242316  81.1886568 119.8298656  53.2595450  78.8276623 120.4472023
  53.7923787  78.0664911 120.2171331  52.7309531  78.5350274 121.1896178
  56.4265145  63.9336689 115.9765665  56.0829415  64.8238330 115.9004776
  56.7944108  63.7438346 115.1135250  44.4950996  76.2570219 108.7954267
  45.3326218  76.6667227 108.5787975  44.6729264  75.3169661 108.7654461
  56.3915428  73.9245300 104.4838100  55.8762052  74.6949904 104.7226487
  56.1192737  73.2510436 105.1071162  53.9762539  68.7695000 109.5423338
  53.1204135  68.3801851 109.3628977  54.3889491  68.8486961 108.6823124
  55.5061686  66.3041344 113.9414898  55.0026481  66.2671479 113.1282703
  55.7992293  67.2134086 114.0011555  51.7504572  66.3880073 112.9481080
  52.6157568  66.1922882 112.5886969  51.8182081  66.1590425 113.8750437
  61.3649702  76.6777654 106.4191274  60.5879145  76.3388814 105.9746436
  62.0441183  76.6830277 105.7446239  56.1801731  71.7972392 106.3097881
  55.8751867  72.1118541 107.1608024  57.1332173  71.8753812 106.3525214
  54.6248163  77.9562615 107.9590835  54.0969525  77.2215375 107.6464073
  54.1235666  78.7337291 107.7130804  59.6041009  76.1511636 113.0757882
  58.9464684  76.8410897 113.1638010  60.4081408  76.5408067 113.4191868
  49.3566891  68.6182281 110.3197447  49.9310643  68.3957463 109.5870640
  49.9437873  68.6870976 111.0726048  58.4146468  74.5056008 111.1261823
  58.9278350  75.1386000 111.6283533  59.0647692  73.9057204 110.7605183
  49.6836478  70.6486742 104.3393332  48.8473790  70.9861429 104.6602607
  49.5441247  70.5135722 103.4020469  51.6589558  65.4923530 109.0472516
  51.0053971  65.1772547 108.4229131  51.6170033  64.8699271 109.7732339
  52.7700763  75.7742825 100.9625808  51.8627825  75.5432079 101.1616957
  53.2671795  74.9780445 101.1499790  55.6768842  84.4840332 103.8822494
  55.0030541  84.7872029 104.4907452  56.0634664  85.2869413 103.5327951
  54.8927299  71.9805464 113.3720164  53.9749860  72.2020411 113.2141852
  55.3087442  72.0551774 112.5131871  55.6762347  73.3796879 108.5022844
  56.4234165  73.8918277 108.1929966  55.9453936  73.0580932 109.3627238
  53.9488997  75.8755420 105.4849798  53.0400216  75.5914453 105.5822268
  53.9784081  76.2954499 104.6253105  59.1808264  79.4862010 109.2540966
  58.7270591  78.6452920 109.3106156  58.5502231  80.1223408 109.5915746
  58.1241184  70.4153996 110.4841633  57.3863940  69.9031382 110.8151876
  58.3767957  69.9754377 109.6724910  57.6241203  81.3238506 110.1890784
  57.9164178  81.8843563 109.4703150  58.1339824  81.6167067 110.9443943
  58.2252811  63.1930248 111.0783403  58.5311688  62.3327611 110.7909318
  58.9505416  63.7847868 110.8782397  44.5177167  73.5960934 109.4665001
  44.3201567  73.0030295 108.7416067  43.9623831  73.2913144 110.1840939
  52.4973891  73.4884041 111.5859594  52.5522501  72.5357877 111.5102070
  51.6865093  73.6443480 112.0700892  53.6465085  77.4164164 102.8237877
  53.2084514  76.7000023 102.3643514  54.3875525  77.6440279 102.2622968
  50.4366251  72.1061101 109.3449973  49.6234116  72.4055271 109.7515165
  50.9325245  71.7116789 110.0624455  52.5874829  82.1018857 111.2784237
  52.5451007  82.3279704 110.3492769  53.5037527  81.8682232 111.4270038
  56.0340462  72.5702925 118.1764866  56.3889850  72.7974398 119.0359332
  56.6812594  72.9021302 117.5542122  61.7638199  75.6921361 108.8814195
  61.6256098  75.8822957 107.9535385  61.4074418  76.4540744 109.3382247
  49.9280325  69.6779456 114.9611208  50.5679705  69.5368215 114.2634171
  49.0957856  69.3913969 114.5849810  61.7907579  77.7597888 113.8925467
  62.2244086  77.6673177 114.7408521  62.5039160  77.7355388 113.2545483
  50.7040629  78.9781886 111.0746200  51.4981228  78.4832207 110.8728775
  49.9932322  78.4499750 110.7113906  55.5235474  81.3599982 115.4258568
  55.5772496  81.9290918 116.1936283  54.6550255  81.5301867 115.0612605
  47.0123393  73.1224968 107.1505953  46.0820981  73.0609424 107.3675915
  47.1080865  72.6000921 106.3542594  46.9308942  69.6479781 109.7384194
  47.1915759  70.5625114 109.6293355  47.7526114  69.1804224 109.8880807
  48.4033867  71.0617538 116.9083019  49.0756921  70.8534900 116.2595668
  47.5763654  70.8639624 116.4688251  62.6523128  77.8021589 116.4258352
  62.8459019  78.7067399 116.6717627  62.5523747  77.3429008 117.2596937
  54.3059439  67.6879479 118.9248680  53.6587354  68.3869429 118.8313156
  55.0760455  68.1215623 119.2924928  54.4823574  75.5260244 116.9845499
  55.4115634  75.6771404 116.8114467  54.0614604  75.6144265 116.1294146
  53.2811905  79.5510908 114.7544037  53.1422991  79.1829693 115.6269975
  52.4926502  80.0658548 114.5827995  53.8760057  84.6520005 106.0969574
  54.0511813  84.1808048 106.9115196  53.1892845  85.2785771 106.3250834
  54.8317120  78.9292511 112.1432875  54.4966953  78.8893281 113.0390525
  54.3321066  78.2637227 111.6703285  48.8061364  74.3360141 117.6685456
  48.6681162  73.6040380 118.2696995  49.7166288  74.2469041 117.3869644
  57.7676312  76.2748545 102.4169935  57.1505483  75.5495374 102.3202987
  57.2992801  77.0357906 102.0737009  51.4343665  74.0480101 117.1569136
  52.1443284  73.4073293 117.1155754  51.3912973  74.2992995 118.0795316
  50.1472599  71.0345318 118.9764775  49.6109956  70.5836057 119.6286371
  49.5589308  71.1691227 118.2335239  48.4421143  87.8009368 112.8709434
  48.6817741  88.4327892 113.5488452  47.5990339  87.4497408 113.1574793
  49.5574858  70.4933970 101.5391239  48.6804324  70.3722771 101.1753485
  50.0332611  69.7020048 101.2870127  59.4247851  78.9487038 118.3089695
  58.5374630  78.6112960 118.4316093  59.9946402  78.2170069 118.5458460
  41.0776998  75.2811130 111.6332746  41.7648038  74.9672860 111.0453761
  40.9225127  76.1852494 111.3599997  45.8811720  70.1701326 116.0617770
  45.7969909  69.5626996 115.3268180  45.0594427  70.6610344 116.0627266
  52.9549004  83.6088490 115.2750938  52.8819176  84.4143462 115.7870242
  52.5126398  83.8080456 114.4498959  52.7438784  82.8460260 108.7853759
  51.9606306  83.3881940 108.8791984  53.4431529  83.3634240 109.1848000
  56.0535434  68.6554890 111.4287965  56.5504134  67.9024852 111.1089035
  55.2822416  68.6919206 110.8631174  63.9065192  74.3595255 113.0706256
  63.8955068  75.2419971 112.7000189  63.0382571  74.0066806 112.8760793
  55.4147688  83.5075324 117.4309096  56.1275660  84.1422789 117.3584998
  54.9237717  83.6039190 116.6149098  57.1365215  77.4126577 109.0026388
  56.2021494  77.5328039 108.8331092  57.3141883  76.5099044 108.7386398
  52.6370403  70.7972273 111.1559649  52.2668190  70.2443313 111.8440555
  53.1329495  70.1930406 110.6034649  60.5237766  73.2543896 109.5376422
  60.9898218  74.0871888 109.4636725  60.9745267  72.7888878 110.2421681
  50.4659602  81.2569768 118.2514667  51.1669061  81.8906251 118.4044061
  49.9954717  81.5984499 117.4910306  58.5913997  79.5987717 106.5362574
  58.8673841  79.4844312 107.4456448  57.7218496  79.2005202 106.4974747
  58.4954429  65.6224483 113.5767324  57.5817509  65.8528710 113.7449530
  58.9247530  65.7062927 114.4281356  58.2660887  73.8114375 116.0767218
  57.6132338  74.0590283 115.4219670  58.6441267  72.9978513 115.7429695
  55.2268061  83.8474068 110.1795388  55.4090456  83.0295724 110.6423140
  56.0501047  84.0641761 109.7420278  55.5610227  82.7742253 107.4410436
  56.0897993  82.2634708 106.8280598  55.8238446  82.4584784 108.3055969
  54.3148460  74.5534186 122.5633255  53.6389098  74.4528315 123.2335630
  55.1376094  74.3973400 123.0269252  46.0627320  80.7906123 115.1845770
  46.6480756  80.0449811 115.3173674  45.8652158  81.1010079 116.0682434
  48.9165975  83.8257370 110.2008212  48.2476350  84.3103498 109.7172252
  48.7778844  84.0726591 111.1151591  40.6544974  73.3611723 113.9050213
  40.6929074  72.8275314 114.6987331  40.1485267  72.8346928 113.2861190
  53.0571243  85.8601114 116.7990871  53.6089551  86.0232735 117.5639956
  53.3977437  86.4505551 116.1270895  48.0335737  68.2076263 117.4012755
  48.0977063  69.0691094 116.9890153  47.9702857  67.5950265 116.6685114
  47.5088009  70.2799396 121.0485790  48.1360048  69.8976473 121.6623314
  46.6515928  70.0613598 121.4141482  44.2853552  72.0875825 106.9804144
  44.5806993  71.1786503 106.9271198  43.3841588  72.0663564 106.6585147
  56.1939631  83.8083089 113.7854553  56.0690770  83.0072829 113.2765498
  56.8518722  84.3029282 113.2968523  47.8147799  70.1631822 112.9631693
  47.0934385  70.7767789 112.8239166  48.6041055  70.6989586 112.8848339
  58.2574539  81.6092109 115.4134103  57.3104875  81.4897460 115.3412430
  58.6057312  80.7214607 115.4960364  50.6174112  67.4986248 119.2372345
  51.1408514  67.7448545 119.9998654  50.3986446  68.3306283 118.8175482
  46.0141393  69.7689923 107.1043470  45.6854100  68.8887302 106.9218576
  46.3680764  69.7137591 107.9919859  55.2620972  81.4044825 111.6138455
  55.1145935  80.4761533 111.7946025  56.0874466  81.4264916 111.1295530
  49.1283217  70.0562892 107.4718947  49.4679289  70.5848814 106.7497556
  49.5755337  70.3943299 108.2477514  58.8655094  82.2273384 112.7003328
  59.7901642  82.0216245 112.5627779  58.6970398  81.9789785 113.6092669
  51.8226657  68.4399943 116.9222015  51.4823478  67.6407756 117.3242695
  51.1165664  68.7401654 116.3498849  52.4743129  65.5249256 115.3749338
  53.2969199  65.0509734 115.2528229  52.7181193  66.3039739 115.8748025
  51.1151364  68.5537514 105.6712240  51.8359726  68.9318767 105.1675957
  50.4916668  69.2726391 105.7747218  55.2582487  69.2582663 106.6070572
  55.4746101  70.1407301 106.3059401  54.7776554  68.8668876 105.8776214
  49.9981708  72.2168376 113.1841317  49.8526289  72.5308679 114.0765598
  49.5206912  72.8353277 112.6312216  51.8578091  69.2070924 113.2322207
  51.8439660  68.3112018 112.8954504  52.5750519  69.2141588 113.8660493
  53.7104222  69.6408264 115.2775334  53.4521999  70.5625335 115.2759664
  53.1789262  69.2438699 115.9675798  58.6550410  82.7459052 108.0565419
  58.8287288  82.1805474 107.3039272  59.1479302  83.5459946 107.8744909
  44.4727370  74.7573721 116.1228978  43.9280838  75.5333529 116.2549252
  45.3506720  75.1044525 115.9648100  51.2614987  68.0885305 108.5009777
  51.3830898  67.1601951 108.7000664  50.9717029  68.1023991 107.5888092
  54.1306177  65.7740215 111.6376496  54.1527874  65.8379548 110.6828476
  54.5474236  64.9344724 111.8317003  64.5089802  75.5095475 109.6755719
  64.9520948  74.7602800 109.2774842  63.6316312  75.5005611 109.2929451
  59.6425583  82.0625816 105.1562318  60.3376488  82.6832509 105.3749632
  59.9848733  81.2121167 105.4314695  45.2593392  73.8843617 119.0159135
  44.5175128  74.0326252 119.6023765  44.9386136  74.1451883 118.1525884
  61.5417006  79.5125522 106.6849648  62.0668330  79.8512794 105.9598968
  61.4539359  78.5772537 106.5012783  53.2037055  83.4259595 118.8139525
  53.5124181  83.1808742 119.6862225  54.0012537  83.6306234 118.3258395
  53.2257667  85.5797505 111.0444902  52.7862657  85.0873883 111.7377758
  53.9765784  85.0370472 110.8036977  45.7050006  81.7709046 111.0469530
  46.5308026  81.4712818 110.6668173  45.3544058  81.0016668 111.4959318
  50.6731539  81.1235514 113.1167203  50.0511548  80.4606219 112.8169431
  51.3436406  81.1496646 112.4340851  43.9058611  79.6895372 112.0058463
  43.0690519  79.2617546 111.8242464  43.8782256  79.8827815 112.9429254
  50.7456066  69.6017302 122.7099709  50.7944222  70.4779425 122.3277479
  51.2878581  69.0594695 122.1371352  61.3508787  76.9950892 119.3033575
  61.4006792  76.8300899 120.2449098  61.2422710  76.1278151 118.9131456
  50.2345046  79.6739437 106.5925664  50.3833166  80.3574902 105.9392337
  51.0411489  79.6544527 107.1075120  58.6412550  72.9781820 120.6192882
  59.5422412  72.8388284 120.3276879  58.7160524  73.1436274 121.5591059
  52.9755355  70.3548674 119.4646068  52.1058664  70.6482240 119.1928656
  53.2114835  70.9389119 120.1853332  64.0522666  76.9800713 112.0678167
  64.8869558  77.4190517 112.2315727  64.1881795  76.5039366 111.2486412
  61.1014172  74.5380448 118.0155654  61.5768294  74.7308094 117.2074506
  60.1779738  74.5939634 117.7699038  47.9897679  75.7004615 107.5986733
  47.7443721  74.7966945 107.7966943  48.1593593  75.7021765 106.6566211
  55.6794389  66.5728291 116.9811488  56.1976333  67.3089318 116.6557977
  55.3249521  66.8792285 117.8158247  47.2593326  71.4332972 105.0972894
  46.5662571  71.5077327 104.4412930  47.0145078  70.6693316 105.6194411
  55.9306983  62.9928574 112.5012385  56.2108737  62.3251763 113.1272811
  56.7157590  63.1857669 111.9887049  53.7340451  82.1687568 104.0637411
  53.1614418  82.7877755 103.6107883  54.3073245  82.7186929 104.5977333
  59.8015841  71.4146208 116.2483960  60.7533264  71.5144305 116.2696184
  59.6319292  70.6224476 116.7582044  57.8230221  68.5001791 116.4343361
  57.2280153  68.7806804 115.7389850  57.5379917  68.9895692 117.2060102
  56.9537711  82.4524718 105.1945993  57.8868384  82.3870279 105.3978869
  56.8660924  83.2880985 104.7360526  59.5825728  81.7690588 102.1549941
  59.5039359  81.4350452 103.0485699  60.4035395  82.2612356 102.1541413
  62.2803919  74.6352327 115.3626260  62.2480239  73.6968328 115.5485943
  62.8904543  74.7136364 114.6292085  54.1187250  73.5048380 101.4053464
  55.0646355  73.3754589 101.4741882  53.7401495  72.7663042 101.8822892
  62.4298407  71.4263371 115.4084543  61.9137456  70.6421828 115.2214472
  63.3138356  71.0982088 115.5731062  60.0909134  65.1704386 111.3680356
  59.8933956  64.8619475 112.2523687  60.7008840  65.8966025 111.4978285
  68.0980469  75.6968334 114.5032296  68.8283857  75.4353622 115.0640000
  67.4887414  74.9597056 114.5434364  66.1795766  73.8376197 115.1006748
  65.4528930  73.7032162 114.4923239  65.7643053  74.1453025 115.9063466
  52.3030167  71.4298357 101.3408349  51.3961622  71.1331470 101.4171063
  52.5806148  71.1328175 100.4742635  43.2208107  72.7504720 111.7907395
  42.9010892  71.8970028 111.4981769  42.6741536  72.9653298 112.5465363
  46.9988015  75.4667161 115.5076902  47.2174025  76.3984269 115.5264936
  47.4113789  75.1075136 116.2931706  53.9192233  65.9735247 107.4952590
  53.1092961  65.6282332 107.8707836  54.6076650  65.6642790 108.0840202
  55.8482781  65.0513293 109.1176887  56.4013820  65.4708747 109.7766910
  56.0852867  64.1249041 109.1599843  51.8715880  71.0400367 124.8979651
  51.7712607  71.9894724 124.8291742  51.6537422  70.7118606 124.0255721
  51.0728952  68.2885292 101.4820328  51.9348116  68.6140190 101.7416145
  51.2579296  67.5016788 100.9693394  43.0896367  76.3707632 113.7600517
  42.3959839  75.9561585 113.2470471  43.8369358  76.4128168 113.1633936
  59.2261588  67.1613818 108.6255551  58.6460257  67.8198623 108.2433604
  58.9597521  66.3391163 108.2142969  57.6765154  66.5618876 110.8276871
  58.1764933  66.6735411 110.0191190  58.3200762  66.2579929 111.4677680
  51.7347150  74.4697506 123.7144712  51.2514232  75.2697866 123.9208601
  51.8208089  74.4805451 122.7612156  45.0033110  76.3025886 111.6366532
  44.9803798  76.4013573 110.6848415  45.3133746  77.1491036 111.9583698
  47.6620488  78.3602041 115.7513146  48.6163741  78.3285983 115.6843078
  47.4633011  77.8992664 116.5663372  48.2519870  76.9303157 118.3183944
  49.0712759  77.4247235 118.3418781  48.5256678  76.0135125 118.2901511
  58.0086466  69.3213909 107.6811899  57.1212321  69.6063560 107.4632094
  58.4240455  69.1607672 106.8339176  61.3601002  69.3460430 111.3966239
  62.1361392  69.8356882 111.6690855  60.6349136  69.7718484 111.8538108
  63.7973561  70.0588049 112.4540179  64.3918052  69.8183785 111.7433487
  63.8700145  69.3395180 113.0813716  46.0170717  83.9021660 112.7683344
  45.8825184  83.1422061 112.2021342  45.6002779  84.6262560 112.3012133
  57.1529680  79.0858584 101.7759919  57.8565530  79.2908586 102.3917575
  56.4292328  79.6535345 102.0409003  57.9827490  74.8368445 107.8962190
  57.9262691  75.2936996 107.0569822  58.5355832  74.0759129 107.7185032
  61.7932296  70.6258177 108.7212309  61.5369230  70.2254812 109.5520517
  61.1685164  71.3401971 108.5962448  66.1044634  73.3654250 111.2283600
  65.5444192  73.4347439 112.0015162  65.4988137  73.1895235 110.5083097
  49.1739842  84.7990977 112.9801787  49.0572227  85.7436410 112.8780477
  48.3532289  84.4964539 113.3687586  59.0616377  79.5241113 103.8258379
  59.8961981  79.0922311 103.6435854  58.9000720  79.3523126 104.7535274
  58.7162269  76.0273226 105.1914719  58.6611073  75.8617497 104.2503163
  58.0908324  76.7349259 105.3476908  43.5054784  71.2641290 119.0176141
  44.1513648  70.7540244 119.5063366  43.2971935  72.0009972 119.5919566
  52.0258395  65.5281335 104.7700037  52.0137064  66.4723175 104.9268308
  52.9181816  65.3451480 104.4759498  50.1994357  85.4519239 116.1957715
  51.1021603  85.4842849 116.5124210  49.9731727  84.5219690 116.2104051
  51.9547959  84.2050225 112.8567794  51.0043590  84.2052087 112.7432166
  52.2580445  83.4582960 112.3403828  55.8410514  62.1224112 109.0245974
  55.0742910  61.5682598 109.1702656  56.2521219  62.1945980 109.8860126
  47.8452275  68.4108908 123.1151155  48.7083737  68.0545712 123.3254480
  47.2717686  68.0722802 123.8026559  60.3577174  91.8473668 109.8471972
  59.7942039  91.7563605 109.0788260  60.2429569  91.0273573 110.3274464
  65.9376733  95.5144636 105.1586437  65.2864713  96.0998716 104.7720451
  66.7321096  96.0450831 105.2181474  59.8632360  92.6033773 105.5573571
  60.6363236  92.0562760 105.4186447  60.2157759  93.4678023 105.7688032
  62.1998638  88.7626439 103.1892021  62.4524158  88.2407961 102.4275484
  61.2623197  88.5992585 103.2918705  67.2441921  87.7662218 110.9966764
  68.0305010  87.3481641 110.6457181  67.5080625  88.6708310 111.1648413
  67.4151998  93.2035068 105.6955421  66.7797831  93.2769695 106.4076326
  67.0849404  93.7928667 105.0174500  61.9194926  90.6654545 105.3916396
  61.8031185  89.9899449 106.0597480  62.0297186  90.1786919 104.5748549
  64.2626467  90.1264692 109.0963085  63.8984675  89.5995313 109.8076007
  65.1193583  89.7363161 108.9229571  63.9031954  85.1554592 104.0924434
  64.0706357  86.0234829 104.4594905  63.7129123  85.3181874 103.1685723
  60.1119769  90.0685368 111.7926968  59.1870266  89.9361582 112.0004660
  60.3604182  90.8479587 112.2896911  63.8821175  87.6112250 105.0771101
  63.7620800  88.0569300 105.9156581  63.1873764  87.9597567 104.5184639
  57.4728580  89.7118641 112.6270758  57.6020961  89.9653120 113.5410169
  56.7926031  90.3046349 112.3075413  69.5806241  88.0833723 105.9051435
  70.4924098  88.3161110 105.7299132  69.0715888  88.6670767 105.3426513
  66.9242216  84.2591759 114.1541295  66.0626695  84.5573012 114.4458033
  66.9504651  84.4762158 113.2222328  63.7403786  92.8033949 110.5615101
  64.2042131  93.0821652 109.7719724  63.4760584  91.9017394 110.3788192
  62.6772672  88.9257102 107.3704666  63.3796715  89.3778145 107.8378593
  62.3453300  88.2840921 107.9984559  56.4198006  87.1840654 112.6721800
  55.6297060  87.4398183 112.1961910  56.9109253  87.9988992 112.7773840
  58.3712751  87.5485234 109.6305277  57.5743914  87.6603928 110.1488772
  58.1438343  87.8871886 108.7646167  54.7035709  87.4371145 115.1036791
  54.9543747  88.3218155 115.3694367  55.2395257  87.2575746 114.3311882
  63.9166436  95.7398044 107.4466771  63.7812111  96.5849580 107.8751619
  64.4576249  95.9417322 106.6832705  57.3695834  93.2573482 108.0194697
  57.8820354  94.0516733 108.1700261  58.0218547  92.5599773 107.9528298
  67.2658900  79.2628606 115.9765665  66.9223169  80.1530248 115.9004776
  67.6337862  79.0730264 115.1135250  55.3344750  91.5862137 108.7954267
  56.1719972  91.9959145 108.5787975  55.5123018  90.6461579 108.7654461
  67.2309183  89.2537217 104.4838100  66.7155806  90.0241822 104.7226487
  66.9586491  88.5802353 105.1071162  64.8156294  84.0986918 109.5423338
  63.9597890  83.7093768 109.3628977  65.2283245  84.1778879 108.6823124
  66.3455440  81.6333261 113.9414898  65.8420236  81.5963397 113.1282703
  66.6386047  82.5426004 114.0011555  62.5898326  81.7171991 112.9481080
  63.4551323  81.5214800 112.5886969  62.6575835  81.4882343 113.8750437
  72.2043457  92.0069572 106.4191274  71.4272899  91.6680731 105.9746436
  72.8834938  92.0122195 105.7446239  67.0195486  87.1264309 106.3097881
  66.7145621  87.4410459 107.1608024  67.9725928  87.2045729 106.3525214
  65.4641918  93.2854533 107.9590835  64.9363279  92.5507292 107.6464073
  64.9629420  94.0629209 107.7130804  60.1960645  83.9474199 110.3197447
  60.7704397  83.7249380 109.5870640  60.7831628  84.0162894 111.0726048
  60.5230232  85.9778660 104.3393332  59.6867545  86.3153347 104.6602607
  60.3835002  85.8427640 103.4020469  62.4983313  80.8215448 109.0472516
  61.8447725  80.5064465 108.4229131  62.4563787  80.1991188 109.7732339
  63.6094518  91.1034743 100.9625808  62.7021580  90.8723996 101.1616957
  64.1065550  90.3072362 101.1499790  66.5162597  99.8132250 103.8822494
  65.8424295 100.1163947 104.4907452  66.9028419 100.6161331 103.5327951
  66.5156101  88.7088797 108.5022844  67.2627920  89.2210194 108.1929966
  66.7847691  88.3872850 109.3627238  64.7882751  91.2047338 105.4849798
  63.8793970  90.9206371 105.5822268  64.8177835  91.6246416 104.6253105
  68.9634938  85.7445913 110.4841633  68.2257695  85.2323300 110.8151876
  69.2161712  85.3046295 109.6724910  69.0646566  78.5222165 111.0783403
  69.3705442  77.6619529 110.7909318  69.7899170  79.1139786 110.8782397
  55.3570922  88.9252852 109.4665001  55.1595321  88.3322213 108.7416067
  54.8017586  88.6205062 110.1840939  63.3367645  88.8175958 111.5859594
  63.3916255  87.8649795 111.5102070  62.5258847  88.9735398 112.0700892
  64.4858839  92.7456082 102.8237877  64.0478269  92.0291940 102.3643514
  65.2269280  92.9732196 102.2622968  61.2760005  87.4353018 109.3449973
  60.4627871  87.7347189 109.7515165  61.7718999  87.0408707 110.0624455
  60.7674080  85.0071374 114.9611208  61.4073459  84.8660133 114.2634171
  59.9351610  84.7205887 114.5849810  57.8517147  88.4516886 107.1505953
  56.9214735  88.3901341 107.3675915  57.9474619  87.9292839 106.3542594
  57.7702696  84.9771699 109.7384194  58.0309514  85.8917032 109.6293355
  58.5919869  84.5096141 109.8880807  68.6070067  91.6040463 102.4169935
  67.9899237  90.8787291 102.3202987  68.1386555  92.3649823 102.0737009
  60.3968613  85.8225887 101.5391239  59.5198079  85.7014688 101.1753485
  60.8726366  85.0311966 101.2870127  51.9170753  90.6103047 111.6332746
  52.6041793  90.2964777 111.0453761  51.7618881  91.5144412 111.3599997
  56.7205475  85.4993244 116.0617770  56.6363664  84.8918913 115.3268180
  55.8988181  85.9902262 116.0627266  66.8929189  83.9846807 111.4287965
  67.3897888  83.2316770 111.1089035  66.1216170  84.0211124 110.8631174
  63.4764157  86.1264190 111.1559649  63.1061945  85.5735231 111.8440555
  63.9723250  85.5222324 110.6034649  69.3348183  80.9516401 113.5767324
  68.4211263  81.1820628 113.7449530  69.7641285  81.0354845 114.4281356
  51.4938729  88.6903641 113.9050213  51.5322828  88.1567231 114.6987331
  50.9879022  88.1638846 113.2861190  58.8729491  83.5368181 117.4012755
  58.9370818  84.3983012 116.9890153  58.8096611  82.9242183 116.6685114
  55.1247306  87.4167743 106.9804144  55.4200747  86.5078421 106.9271198
  54.2235342  87.3955482 106.6585147  58.6541553  85.4923739 112.9631693
  57.9328139  86.1059707 112.8239166  59.4434809  86.0281504 112.8848339
  56.8535148  85.0981840 107.1043470  56.5247854  84.2179219 106.9218576
  57.2074519  85.0429509 107.9919859  59.9676971  85.3854810 107.4718947
  60.3073044  85.9140731 106.7497556  60.4149092  85.7235216 108.2477514
  63.3136884  80.8541173 115.3749338  64.1362953  80.3801652 115.2528229
  63.5574947  81.6331657 115.8748025  61.9545118  83.8829432 105.6712240
  62.6753481  84.2610685 105.1675957  61.3310422  84.6018309 105.7747218
  66.0976241  84.5874581 106.6070572  66.3139856  85.4699219 106.3059401
  65.6170308  84.1960794 105.8776214  60.8375463  87.5460294 113.1841317
  60.6920043  87.8600597 114.0765598  60.3600666  88.1645194 112.6312216
  62.6971845  84.5362842 113.2322207  62.6833414  83.6403935 112.8954504
  63.4144274  84.5433506 113.8660493  62.1008741  83.4177222 108.5009777
  62.2224653  82.4893868 108.7000664  61.8110784  83.4315908 107.5888092
  64.9699932  81.1032133 111.6376496  64.9921629  81.1671466 110.6828476
  65.3867991  80.2636641 111.8317003  56.5443760  97.1000963 111.0469530
  57.3701780  96.8004735 110.6668173  56.1937812  96.3308586 111.4959318
  54.7452365  95.0187290 112.0058463  53.9084274  94.5909464 111.8242464
  54.7176011  95.2119733 112.9429254  61.0738800  95.0031355 106.5925664
  61.2226921  95.6866819 105.9392337  61.8805244  94.9836445 107.1075120
  58.8291433  91.0296533 107.5986733  58.5837475  90.1258863 107.7966943
  58.9987348  91.0313683 106.6566211  58.0987081  86.7624890 105.0972894
  57.4056326  86.8369245 104.4412930  57.8538833  85.9985234 105.6194411
  66.7700737  78.3220491 112.5012385  67.0502491  77.6543681 113.1272811
  67.5551344  78.5149587 111.9887049  64.5734206  97.4979485 104.0637411
  64.0008173  98.1169672 103.6107883  65.1466999  98.0478847 104.5977333
  67.7931466  97.7816635 105.1945993  68.7262139  97.7162197 105.3978869
  67.7054678  98.6172902 104.7360526  70.4219482  97.0982506 102.1549941
  70.3433114  96.7642369 103.0485699  71.2429149  97.5904274 102.1541413
  64.9581004  88.8340298 101.4053464  65.9040109  88.7046506 101.4741882
  64.5795249  88.0954960 101.8822892  70.9302889  80.4996304 111.3680356
  70.7327710  80.1911392 112.2523687  71.5402594  81.2257943 111.4978285
  63.1423921  86.7590274 101.3408349  62.2355377  86.4623387 101.4171063
  63.4199902  86.4620093 100.4742635  54.0601862  88.0796638 111.7907395
  53.7404646  87.2261946 111.4981769  53.5135290  88.2945216 112.5465363
  64.7585987  81.3027164 107.4952590  63.9486716  80.9574249 107.8707836
  65.4470404  80.9934708 108.0840202  66.6876535  80.3805211 109.1176887
  67.2407574  80.8000664 109.7766910  66.9246622  79.4540959 109.1599843
  61.9122706  83.6177210 101.4820328  62.7741870  83.9432108 101.7416145
  62.0973050  82.8308706 100.9693394  53.9290122  91.6999549 113.7600517
  53.2353593  91.2853502 113.2470471  54.6763113  91.7420086 113.1633936
  70.0655343  82.4905736 108.6255551  69.4854012  83.1490540 108.2433604
  69.7991275  81.6683081 108.2142969  68.5158909  81.8910794 110.8276871
  69.0158687  82.0027328 110.0191190  69.1594517  81.5871847 111.4677680
  55.8426864  91.6317803 111.6366532  55.8197552  91.7305490 110.6848415
  56.1527501  92.4782954 111.9583698  68.8480221  84.6505827 107.6811899
  67.9606076  84.9355477 107.4632094  69.2634210  84.4899590 106.8339176
  67.9923434  94.4150501 101.7759919  68.6959284  94.6200504 102.3917575
  67.2686083  94.9827263 102.0409003  68.8221244  90.1660362 107.8962190
  68.7656446  90.6228914 107.0569822  69.3749587  89.4051047 107.7185032
  72.6326050  85.9550094 108.7212309  72.3762984  85.5546730 109.5520517
  72.0078918  86.6693888 108.5962448  69.9010131  94.8533030 103.8258379
  70.7355735  94.4214229 103.6435854  69.7394474  94.6815044 104.7535274
  69.5556024  91.3565144 105.1914719  69.5004827  91.1909415 104.2503163
  68.9302079  92.0641177 105.3476908  62.8652149  80.8573253 104.7700037
  62.8530819  81.8015093 104.9268308  63.7575571  80.6743398 104.4759498
  66.6804269  77.4516029 109.0245974  65.9136664  76.8974516 109.1702656
  67.0914974  77.5237898 109.8860126  71.2362367 101.1517805 101.5391239
  70.3591833 101.0306606 101.1753485  71.7120120 100.3603883 101.2870127
  72.7516461  98.9469127 101.4820328  73.6135625  99.2724026 101.7416145
  72.9366805  98.1600623 100.9693394  23.1587580  15.5026702  90.6067801
  22.4849279  15.8058399  91.2152759  23.5453402  16.3055782  90.2573258
  27.0644466  12.7876958  88.8795248  26.9858097  12.4536821  89.7731006
  27.8854132  13.2798726  88.8786720  24.6348417  10.1044953  88.5005226
  25.3384267  10.3094956  89.1162882  23.9111066  10.6721715  88.7654310
  27.8395912  22.8660038  96.5717278  27.2760777  22.7749975  95.8033566
  27.7248307  22.0459942  97.0519771  33.4195471  26.5331006  91.8831743
  32.7683450  27.1185086  91.4965757  34.2139833  27.0637201  91.9426781
  27.3451098  23.6220143  92.2818878  28.1181974  23.0749130  92.1431754
  27.6976497  24.4864392  92.4933339  29.6817376  19.7812809  89.9137328
  29.9342896  19.2594330  89.1520791  28.7441935  19.6178954  90.0164011
  34.7260658  18.7848587  97.7212071  35.5123748  18.3668010  97.3702488
  34.9899363  19.6894679  97.8893719  34.8970736  24.2221438  92.4200728
  34.2616569  24.2956064  93.1321632  34.5668142  24.8115036  91.7419807
  40.1269085  18.7223820  98.6245049  40.8594257  18.1523037  98.8582879
  39.3708441  18.3345421  99.0651555  29.4013664  21.6840915  92.1161703
  29.2849922  21.0085818  92.7842787  29.5115924  21.1973289  91.2993856
  31.7445205  21.1451062  95.8208392  31.3803412  20.6181683  96.5321313
  32.6012321  20.7549531  95.6474877  31.3850692  16.1740962  90.8169740
  31.5525095  17.0421198  91.1840211  31.1947861  16.3368243  89.8931030
  31.3639913  18.6298619  91.8016407  31.2439538  19.0755670  92.6401887
  30.6692501  18.9783937  91.2429945  29.1246805  31.4002261  95.4506538
  29.0470835  32.3510086  95.5295019  28.5208449  31.0548133  96.1081465
  37.0624979  19.1020092  92.6296741  37.9742835  19.3347479  92.4544439
  36.5534626  19.6857137  92.0671820  35.6694562  24.0845911 100.0210323
  35.0403424  24.2491625  99.3186391  35.2820224  24.4987520 100.7921287
  39.5483793  25.0200349  97.3754686  38.8634832  25.3999250  96.8251720
  39.6327643  25.6295675  98.1086634  31.2222523  23.8220319  97.2860408
  31.6860869  24.1008022  96.4965030  30.9579322  22.9203763  97.1033498
  30.1591409  19.9443471  94.0949973  30.8615453  20.3964515  94.5623899
  29.8272038  19.3027290  94.7229866  37.9180553  25.5432263 102.1472387
  38.7397997  25.1412450 101.8655069  37.9142956  25.4400497 103.0988503
  46.0086546  21.8871012  98.4957359  45.2550254  21.3178410  98.3401363
  46.1434087  21.8533676  99.4427993  31.3985174  26.7584414  94.1712078
  31.2630849  27.6035950  94.5996926  31.9394987  26.9603692  93.4078012
  24.8514571  24.2759852  94.7440003  25.3639092  25.0703102  94.8945568
  25.5037284  23.5786142  94.6773605  26.6609456  27.3925608  96.8262756
  26.8376084  28.3143573  96.6383740  27.4566290  27.0784027  97.2557136
  34.7127920  20.2723587  91.2083407  34.1974544  21.0428192  91.4471794
  34.4405229  19.5988723  91.8316468  39.6862194  23.0255942  93.1436580
  38.9091637  22.6867101  92.6991742  40.3653675  23.0308565  92.4691545
  34.5014224  18.1450679  93.0343188  34.1964359  18.4596828  93.8853331
  35.4544666  18.2232099  93.0770521  32.9460655  24.3040902  94.6836142
  32.4182017  23.5693662  94.3709379  32.4448158  25.0815579  94.4376110
  37.9253501  22.4989923  99.8003188  37.2677176  23.1889184  99.8883317
  38.7293901  22.8886355 100.1437175  36.7358960  20.8534295  97.8507130
  37.2490842  21.4864287  98.3528840  37.3860184  20.2535491  97.4850490
  28.0048970  16.9965030  91.0638639  27.1686282  17.3339716  91.3847913
  27.8653740  16.8614009  90.1265776  31.0913256  22.1221113  87.6871115
  30.1840317  21.8910366  87.8862264  31.5884288  21.3258732  87.8745096
  33.9981334  30.8318620  90.6067801  33.3243033  31.1350316  91.2152759
  34.3847156  31.6347700  90.2573258  33.9974839  19.7275167  95.2268151
  34.7446658  20.2396564  94.9175273  34.2666428  19.4059219  96.0872544
  32.2701489  22.2233707  92.2095105  31.3612708  21.9392740  92.3067575
  32.2996573  22.6432786  91.3498412  37.5020756  25.8340297  95.9786273
  37.0483084  24.9931207  96.0351463  36.8714723  26.4701695  96.3161053
  35.9453696  27.6716794  96.9136091  36.2376670  28.2321851  96.1948456
  36.4552316  27.9645355  97.6689250  31.9677577  23.7642451  89.5483184
  31.5297007  23.0478310  89.0888821  32.7088018  23.9918566  88.9868275
  30.9087321  28.4497145  98.0029544  30.8663500  28.6757991  97.0738076
  31.8250020  28.2160519  98.1515345  40.0850692  22.0399648  95.6059502
  39.9468590  22.2301244  94.6780691  39.7286910  22.8019031  96.0627553
  40.1120071  24.1076175 100.6170774  40.5456578  24.0151464 101.4653828
  40.8251652  24.0833676  99.9790790  29.0253122  25.3260174  97.7991507
  29.8193720  24.8310494  97.5974082  28.3144814  24.7978037  97.4359212
  33.8447966  27.7078269 102.1503874  33.8984988  28.2769206 102.9181590
  32.9762747  27.8780154 101.7857911  25.3335885  19.4703255  93.8751259
  24.4033473  19.4087711  94.0921221  25.4293357  18.9479208  93.0787901
  32.1972550  30.9998292  92.8214880  32.3724305  30.5286335  93.6360503
  31.5105338  31.6264058  93.0496141  33.1529613  25.2770798  98.8678181
  32.8179445  25.2371568  99.7635831  32.6533558  24.6115514  98.3948592
  36.0888804  22.6226833  89.1415241  35.4717975  21.8973661  89.0448294
  35.6205293  23.3836193  88.7982315  26.7633635  34.1487655  99.5954740
  27.0030233  34.7806179 100.2733759  25.9202831  33.7975695  99.8820100
  27.8787350  16.8412257  88.2636545  27.0016817  16.7201058  87.8998792
  28.3545103  16.0498335  88.0115434  31.2761497  29.9566777 101.9996244
  31.2031668  30.7621749 102.5115549  30.8338890  30.1558743 101.1744266
  31.0651276  29.1938547  95.5099066  30.2818798  29.7360228  95.6037290
  31.7644022  29.7112527  95.9093307  42.2277684  20.7073542  99.7951563
  42.2167560  21.5898258  99.4245496  41.3595063  20.3545093  99.6006100
  35.4577707  23.7604864  95.7271695  34.5233986  23.8806327  95.5576399
  35.6354376  22.8577331  95.4631705  38.8450259  19.6022183  96.2621729
  39.3110711  20.4350175  96.1882032  39.2957759  19.1367165  96.9666987
  36.9126490  25.9466005  93.2607881  37.1886334  25.8322599  94.1701755
  36.0430988  25.5483490  93.2220054  33.5480554  30.1952355  96.9040695
  33.7302948  29.3774011  97.3668447  34.3713540  30.4120048  96.4665585
  33.8822719  29.1220541  94.1655743  34.4110486  28.6112995  93.5525905
  34.1450939  28.8063071  95.0301276  27.2378467  30.1735657  96.9253519
  26.5688842  30.6581785  96.4417559  27.0991337  30.4204878  97.8396897
  31.3783736  32.2079401 103.5236177  31.9302044  32.3711022 104.2885263
  31.7189929  32.7983839 102.8516202  34.5152123  30.1561376 100.5099859
  34.3903262  29.3551116 100.0010805  35.1731214  30.6507570 100.0213829
  36.5787031  27.9570396 102.1379410  35.6317367  27.8375748 102.0657736
  36.9269804  27.0692894 102.2205671  33.5833465  27.7523113  98.3383762
  33.4358427  26.8239820  98.5191332  34.4086958  27.7743203  97.8540837
  37.1867586  28.5751671  99.4248635  38.1114134  28.3694533  99.2873086
  37.0182890  28.3268073 100.3337976  29.4363856  14.9015801  92.3957547
  30.1572219  15.2797054  91.8921264  28.8129160  15.6204678  92.4992525
  33.5794979  15.6060950  93.3315879  33.7958593  16.4885588  93.0304707
  33.0989046  15.2147164  92.6021521  36.9762903  29.0937339  94.7810726
  37.1499780  28.5283761  94.0284578  37.4691794  29.8938234  94.5990216
  42.8302294  21.8573762  96.4001026  43.2733440  21.1081087  96.0020149
  41.9528804  21.8483898  96.0174758  37.9638075  28.4104103  91.8807624
  38.6588980  29.0310796  92.0994939  38.3061225  27.5599454  92.1560002
  39.8629498  25.8603809  93.4094955  40.3880822  26.1991082  92.6844275
  39.7751851  24.9250824  93.2258090  31.5470159  31.9275792  97.7690208
  31.1075149  31.4352171  98.4623065  32.2978276  31.3848760  97.5282283
  24.0262498  28.1187333  97.7714836  24.8520518  27.8191105  97.3913480
  23.6756550  27.3494955  98.2204625  28.9944031  27.4713801  99.8412510
  28.3724040  26.8084506  99.5414738  29.6648898  27.4974933  99.1586158
  28.5557538  26.0217724  93.3170970  28.7045658  26.7053189  92.6637643
  29.3623982  26.0022815  93.8320426  42.3735159  23.3279000  98.7923473
  43.2082050  23.7668804  98.9561034  42.5094287  22.8517653  97.9731719
  26.3110171  22.0482902  94.3232039  26.0656213  21.1445232  94.5212249
  26.4806086  22.0500053  93.3811517  25.5805819  17.7811260  91.8218201
  24.8875064  17.8555615  91.1658237  25.3357571  17.0171603  92.3439718
  32.0552944  28.5165855  90.7882718  31.4826911  29.1356042  90.3353190
  32.6285737  29.0665217  91.3222640  35.2750203  28.8003005  91.9191300
  36.2080877  28.7348567  92.1224176  35.1873416  29.6359272  91.4605833
  37.9038220  28.1168875  88.8795248  37.8251852  27.7828739  89.7731006
  38.7247887  28.6090643  88.8786720  32.4399742  19.8526668  88.1298770
  33.3858847  19.7232876  88.1987188  32.0613987  19.1141330  88.6068199
  46.4192961  22.0446622 101.2277603  47.1496350  21.7831910 101.7885306
  45.8099907  21.3075343 101.2679671  44.5008258  20.1854484 101.8252054
  43.7741422  20.0510449 101.2168546  44.0855545  20.4931313 102.6308772
  30.6242659  17.7776644  88.0653656  29.7174115  17.4809757  88.1416369
  30.9018640  17.4806462  87.1987942  29.3941444  14.6363579  88.2065635
  30.2560608  14.9618478  88.4661452  29.5791788  13.8495075  87.6938701
  37.5474080  13.5092106  95.3500858  36.9672749  14.1676910  94.9678910
  37.2810013  12.6869450  94.9388275  36.3298958  15.6692196  94.4057206
  35.4424813  15.9541847  94.1877401  36.7452947  15.5085960  93.5584483
  24.3383209  30.2499947  99.4928651  24.2037677  29.4900348  98.9266649
  23.9215271  30.9740847  99.0257440  35.4742172  25.4336871  88.5005226
  36.1778022  25.6386873  89.1162882  34.7504821  26.0013633  88.7654310
  36.3039982  21.1846732  94.6207496  36.2475184  21.6415283  93.7815129
  36.8568325  20.4237417  94.4430339  40.1144788  16.9736464  95.4457616
  39.8581722  16.5733100  96.2765823  39.4897656  17.6880258  95.3207755
  44.4257126  19.7132537  97.9528907  43.8656684  19.7825726  98.7260469
  43.8200629  19.5373522  97.2328403  27.4952335  31.1469264  99.7047093
  27.3784719  32.0914697  99.6025784  26.6744781  30.8442826 100.0932893
  37.3828869  25.8719400  90.5503686  38.2174473  25.4400598  90.3681161
  37.2213212  25.7001414  91.4780581  37.0374761  22.3751513  91.9160025
  36.9823565  22.2095785  90.9748469  36.4120817  23.0827546  92.0722215
  30.3470887  11.8759622  91.4945344  30.3349557  12.8201462  91.6513615
  31.2394309  11.6929768  91.2004805  30.2760451  30.5528513  99.5813100
  29.3256082  30.5530374  99.4677473  30.5792937  29.8061247  99.0649135
  46.0113144  36.3889051 100.6458863  46.6491554  36.2695798  99.9422203
  45.8933987  37.3369895 100.7046815  42.8202851  36.3416479 100.5820388
  42.4821362  36.2257544  99.6940922  43.6892619  35.9407644 100.5621394
  38.6789666  38.1951956  96.5717278  38.1154531  38.1041893  95.8033566
  38.5642061  37.3751860  97.0519771  43.3022634  37.4951331 106.5406593
  43.2911274  37.1004129 105.6687097  43.4643273  36.7617404 107.1340364
  36.2254098  39.6903147  99.4101499  37.0175390  39.3493972  98.9947798
  36.4650748  39.7998122 100.3303652  44.2589225  41.8622923  91.8831743
  43.6077205  42.4477004  91.4965757  45.0533588  42.3929118  91.9426781
  38.1844852  38.9512060  92.2818878  38.9575728  38.4041048  92.1431754
  38.5370251  39.8156310  92.4933339  40.0229895  40.2788443 105.4885777
  39.7319761  41.1834074 105.3732443  40.6586879  40.3204970 106.2029847
  40.9486102  37.6565291 102.0787137  41.5449674  37.4321314 101.3644100
  41.0061073  36.9150037 102.6812585  40.5211130  35.1104727  89.9137328
  40.7736651  34.5886248  89.1520791  39.5835689  34.9470872  90.0164011
  45.5654413  34.1140505  97.7212071  46.3517502  33.6959928  97.3702488
  45.8293117  35.0186597  97.8893719  45.7364490  39.5513355  92.4200728
  45.1010323  39.6247982  93.1321632  45.4061897  40.1406954  91.7419807
  50.9662840  34.0515738  98.6245049  51.6988012  33.4814955  98.8582879
  50.2102196  33.6637339  99.0651555  40.2407419  37.0132833  92.1161703
  40.1243677  36.3377736  92.7842787  40.3509679  36.5265206  91.2993856
  42.5838960  36.4742980  95.8208392  42.2197167  35.9473601  96.5321313
  43.4406076  36.0841449  95.6474877  48.4888260  27.7637312 103.0839658
  48.1571585  28.6332723 102.8600873  47.8933874  27.4473596 103.7633688
  42.2244447  31.5032879  90.8169740  42.3918849  32.3713116  91.1840211
  42.0341616  31.6660161  89.8931030  44.9819780  39.9649858 102.4835571
  44.6820503  40.8674897 102.3751378  44.6370839  39.6982041 103.3356724
  38.4332261  36.4163655  98.5172275  37.5082758  36.2839869  98.7249967
  38.6816675  37.1957874  99.0142218  48.3816924  32.4832398 100.1633008
  47.4733801  32.4147807  99.8691769  48.3304519  32.9604343 100.9914834
  42.2033668  33.9590537  91.8016407  42.0833293  34.4047588  92.6401887
  41.5086256  34.3075855  91.2429945  35.7941072  36.0596929  99.3516064
  35.9233454  36.3131408 100.2655476  35.1138524  36.6524637  99.0320719
  39.9640560  46.7294179  95.4506538  39.8864589  47.6802004  95.5295019
  39.3602203  46.3840051  96.1081465  42.4557789  33.9022044 108.1067905
  41.6791123  34.4615964 108.0970770  43.0948352  34.3878827 108.6282775
  50.2478570  30.6848837 101.9410882  49.6052950  30.9781370 101.2950677
  49.7433499  30.5701757 102.7464079  47.9018734  34.4312010  92.6296741
  48.8136590  34.6639397  92.4544439  47.3928381  35.0149054  92.0671820
  40.7104162  36.7107497 107.6685872  41.4518846  37.2492541 107.3920696
  40.0041147  37.3373786 107.8257424  46.1859501  38.8536638 106.2658034
  46.5942857  38.4119048 105.5212666  45.4636763  38.2789265 106.5192227
  42.5390571  33.7909245 103.6391591  43.3851767  34.2148658 103.7826240
  42.4789209  33.1342869 104.3330154  46.5088316  39.4137828 100.0210323
  45.8797178  39.5783543  99.3186391  46.1213978  39.8279438 100.7921287
  50.3877548  40.3492266  97.3754686  49.7028586  40.7291168  96.8251720
  50.4721397  40.9587593  98.1086634  45.6890017  31.4513613 105.2972764
  45.4450949  32.2055674 104.7607040  45.9649947  31.8298961 106.1320011
  47.6428480  37.9952225 103.9750030  47.8545375  38.6383985 103.2984411
  47.5958228  37.1614542 103.5071960  45.2454708  30.6070046 100.8786602
  44.3839188  30.9051300 101.1703340  45.2717143  30.8240445  99.9467635
  42.0616278  39.1512237  97.2860408  42.5254623  39.4299940  96.4965030
  41.7973076  38.2495681  97.1033498  38.9540359  38.6983718 100.2240171
  39.5241716  39.1270986  99.5857656  39.5448471  38.4166303 100.9224357
  40.9985164  35.2735389  94.0949973  41.7009207  35.7256433  94.5623899
  40.6665792  34.6319208  94.7229866  39.4465525  33.8647146 108.4701182
  38.8164186  34.5463426 108.7036579  39.3401613  33.7530227 107.5254321
  34.7410498  33.5318942  99.3967106  33.9509552  33.7876470  98.9207217
  35.2321745  34.3467279  99.5019147  48.7574307  40.8724181 102.1472387
  49.5791751  40.4704368 101.8655069  48.7536710  40.7692415 103.0988503
  36.6925243  33.8963521  96.3550583  35.8956407  34.0082215  96.8734079
  36.4650835  34.2350173  95.4891474  42.5230911  40.4208224 104.3033098
  42.5875343  40.8828631 105.1391270  41.8141835  39.7905589 104.4315408
  33.0248201  33.7849432 101.8282097  33.2756239  34.6696442 102.0939673
  33.5607749  33.6054034 101.0557189  56.8480301  37.2162929  98.4957359
  56.0944009  36.6470327  98.3401363  56.9827842  37.1825594  99.4427993
  42.2378929  42.0876332  94.1712078  42.1024603  42.9327867  94.5996926
  42.7788741  42.2895609  93.4078012  35.6908326  39.6051770  94.7440003
  36.2032847  40.3995020  94.8945568  36.3431039  38.9078060  94.6773605
  37.5003211  42.7217526  96.8262756  37.6769839  43.6435491  96.6383740
  38.2960044  42.4075945  97.2557136  36.7855567  34.7682158 106.7024920
  36.6709082  33.8667415 107.0032019  35.9300085  35.0145855 106.3509736
  43.8647405  42.7099898 108.3012420  43.4211259  41.9236277 107.9833325
  44.5264619  42.8979049 107.6356311  38.6234526  44.2395700 102.8273099
  39.1741951  44.1112763 102.0550093  37.7846002  44.5390589 102.4767992
  45.9628643  42.9902698 106.3293821  45.9447118  43.8111579 105.8374091
  46.8848563  42.8656773 106.5543963  42.4201697  40.5046827 107.1717330
  42.9530034  39.7435116 106.9416638  41.8915778  40.2120479 107.9141484
  45.5871392  25.6106893 102.7010972  45.2435662  26.5008535 102.6250082
  45.9550355  25.4208551 101.8380557  33.6557243  37.9340424  95.5199574
  34.4932465  38.3437432  95.3033281  33.8335510  36.9939866  95.4899768
  45.5521675  35.6015505  91.2083407  45.0368298  36.3720109  91.4471794
  45.2798983  34.9280641  91.8316468  43.1368786  30.4465205  96.2668645
  42.2810382  30.0572056  96.0874284  43.5495738  30.5257166  95.4068431
  44.6667933  27.9811549 100.6660205  44.1632728  27.9441684  99.8528010
  44.9598539  28.8904291 100.7256861  40.9110818  28.0650278  99.6726387
  41.7763815  27.8693087  99.3132276  40.9788327  27.8360630 100.5995743
  50.5255949  38.3547859  93.1436580  49.7485392  38.0159019  92.6991742
  51.2047430  38.3600482  92.4691545  45.3407978  33.4742597  93.0343188
  45.0358114  33.7888746  93.8853331  46.2938420  33.5524017  93.0770521
  43.7854410  39.6332820  94.6836142  43.2575771  38.8985580  94.3709379
  43.2841913  40.4107496  94.4376110  48.7647256  37.8281840  99.8003188
  48.1070930  38.5181102  99.8883317  49.5687655  38.2178272 100.1437175
  38.5173137  30.2952486  97.0442753  39.0916889  30.0727668  96.3115946
  39.1044120  30.3641181  97.7971355  47.5752715  36.1826213  97.8507130
  48.0884596  36.8156205  98.3528840  48.2253939  35.5827409  97.4850490
  38.8442725  32.3256947  91.0638639  38.0080037  32.6631634  91.3847913
  38.7047494  32.1905927  90.1265776  40.8195805  27.1693735  95.7717823
  40.1660218  26.8542752  95.1474438  40.7776279  26.5469476  96.4977646
  41.9307010  37.4513030  87.6871115  41.0234072  37.2202284  87.8862264
  42.4278042  36.6550649  87.8745096  44.8375089  46.1610537  90.6067801
  44.1636788  46.4642234  91.2152759  45.2240911  46.9639618  90.2573258
  44.0533546  33.6575669 100.0965470  43.1356107  33.8790616  99.9387158
  44.4693689  33.7321979  99.2377178  44.8368593  35.0567084  95.2268151
  45.5840412  35.5688482  94.9175273  45.1060183  34.7351137  96.0872544
  43.1095243  37.5525625  92.2095105  42.2006463  37.2684658  92.3067575
  43.1390327  37.9724704  91.3498412  48.3414511  41.1632215  95.9786273
  47.8876838  40.3223124  96.0351463  47.7108478  41.7993613  96.3161053
  47.2847430  32.0924201  97.2086940  46.5470187  31.5801587  97.5397183
  47.5374204  31.6524582  96.3970217  46.7847450  43.0008711  96.9136091
  47.0770425  43.5613768  96.1948456  47.2946071  43.2937272  97.6689250
  47.3859058  24.8700453  97.8028709  47.6917935  24.0097816  97.5154624
  48.1111663  25.4618073  97.6027703  33.6783414  35.2731139  96.1910307
  33.4807814  34.6800500  95.4661374  33.1230078  34.9683349  96.9086246
  41.6580138  35.1654246  98.3104900  41.7128747  34.2128082  98.2347377
  40.8471340  35.3213685  98.7946199  42.8071331  39.0934369  89.5483184
  42.3690761  38.3770228  89.0888821  43.5481772  39.3210484  88.9868275
  39.5972497  33.7831305  96.0695279  38.7840363  34.0825476  96.4760471
  40.0931492  33.3886994  96.7869761  41.7481075  43.7789062  98.0029544
  41.7057254  44.0049909  97.0738076  42.6643774  43.5452437  98.1515345
  45.1946709  34.2473130 104.9010173  45.5496097  34.4744603 105.7604639
  45.8418840  34.5791507 104.2787428  50.9244446  37.3691566  95.6059502
  50.7862345  37.5593162  94.6780691  50.5680665  38.1310949  96.0627553
  39.0886572  31.3549661 101.6856514  39.7285952  31.2138420 100.9879477
  38.2564103  31.0684174 101.3095116  50.9513826  39.4368093 100.6170774
  51.3850332  39.3443382 101.4653828  51.6645406  39.4125593  99.9790790
  39.8646876  40.6552091  97.7991507  40.6587475  40.1602412  97.5974082
  39.1538568  40.1269955  97.4359212  44.6841721  43.0370187 102.1503874
  44.7378743  43.6061123 102.9181590  43.8156502  43.2072072 101.7857911
  36.1729640  34.7995173  93.8751259  35.2427228  34.7379629  94.0921221
  36.2687112  34.2771126  93.0787901  36.0915189  31.3249986  96.4629501
  36.3522006  32.2395319  96.3538661  36.9132361  30.8574429  96.6126114
  37.5640114  32.7387743 103.6328325  38.2363167  32.5305105 102.9840974
  36.7369900  32.5409829 103.1933558  51.8129375  39.4791793 103.1503659
  52.0065265  40.3837604 103.3962934  51.7129993  39.0199213 103.9842244
  43.4665686  29.3649684 105.6493986  42.8193601  30.0639634 105.5558463
  44.2366701  29.7985828 106.0170235  46.8744484  39.6298536 108.7244540
  46.7229990  39.4009088 107.8074623  46.8649163  40.5869138 108.7375885
  43.6429820  37.2030449 103.7090806  44.5721880  37.3541609 103.5359773
  43.2220850  37.2914470 102.8539453  42.4418152  41.2281113 101.4789344
  42.3029238  40.8599898 102.3515282  41.6532748  41.7428753 101.3073302
  43.0366304  46.3290210  92.8214880  43.2118060  45.8578253  93.6360503
  42.3499092  46.9555976  93.0496141  43.9923367  40.6062716  98.8678181
  43.6573200  40.5663486  99.7635831  43.4927313  39.9407432  98.3948592
  37.9667611  36.0130346 104.3930763  37.8287409  35.2810585 104.9942302
  38.8772535  35.9239246 104.1114950  46.9282559  37.9518750  89.1415241
  46.3111730  37.2265579  89.0448294  46.4599047  38.7128111  88.7982315
  40.5949912  35.7250305 103.8814442  41.3049530  35.0843498 103.8401061
  40.5519220  35.9763200 104.8040623  48.5836691  42.6617659 106.8021021
  48.5249237  41.9776879 106.1351605  48.9856209  43.4036649 106.3501647
  39.3078846  32.7115523 105.7010082  38.7716203  32.2606262 106.3531678
  38.7195554  32.8461432 104.9580546  37.6027389  49.4779573  99.5954740
  37.8423988  50.1098097 100.2733759  36.7596586  49.1267613  99.8820100
  38.7181105  32.1704175  88.2636545  37.8410571  32.0492975  87.8998792
  39.1938858  31.3790253  88.0115434  48.5854098  40.6257243 105.0335001
  47.6980877  40.2883164 105.1561400  49.1552649  39.8940274 105.2703767
  30.2383245  36.9581334  98.3578053  30.9254285  36.6443064  97.7699068
  30.0831374  37.8622699  98.0845304  35.0417967  31.8471531 102.7863076
  34.9576156  31.2397201 102.0513486  34.2200673  32.3380549 102.7872573
  42.1155251  45.2858695 101.9996244  42.0425423  46.0913667 102.5115549
  41.6732644  45.4850661 101.1744266  41.9045031  44.5230465  95.5099066
  41.1212553  45.0652145  95.6037290  42.6037776  45.0404445  95.9093307
  45.2141681  30.3325095  98.1533271  45.7110381  29.5795057  97.8334342
  44.4428662  30.3689411  97.5876481  53.0671438  36.0365460  99.7951563
  53.0561315  36.9190175  99.4245496  52.1988818  35.6837011  99.6006100
  44.5753935  45.1845529 104.1554403  45.2881907  45.8192994 104.0830305
  44.0843963  45.2809395 103.3394405  46.2971462  39.0896782  95.7271695
  45.3627740  39.2098244  95.5576399  46.4748130  38.1869249  95.4631705
  41.7976650  32.4742478  97.8804956  41.4274437  31.9213518  98.5685861
  42.2935742  31.8700611  97.3279956  49.6844013  34.9314101  96.2621729
  50.1504465  35.7642093  96.1882032  50.1351514  34.4659083  96.9666987
  39.6265848  42.9339973 104.9759974  40.3275308  43.5676456 105.1289368
  39.1560963  43.2754704 104.2155613  47.7520244  41.2757922  93.2607881
  48.0280088  41.1614517  94.1701755  46.8824743  40.8775407  93.2220054
  47.6560676  27.2994688 100.3012630  46.7423756  27.5298915 100.4694837
  48.0853777  27.3833132 101.1526663  47.4267134  35.4884580 102.8012524
  46.7738584  35.7360487 102.1464977  47.8047514  34.6748718 102.4675002
  44.3874308  45.5244273  96.9040695  44.5696703  44.7065929  97.3668447
  45.2107294  45.7411965  96.4665585  44.7216474  44.4512458  94.1655743
  45.2504240  43.9404913  93.5525905  44.9844693  44.1354989  95.0301276
  43.4754707  36.2304391 109.2878561  42.7995344  36.1298520 109.9580937
  44.2982341  36.0743605 109.7514559  35.2233566  42.4676328 101.9091077
  35.8087003  41.7220015 102.0418981  35.0258405  42.7780284 102.7927740
  38.0772222  45.5027575  96.9253519  37.4082597  45.9873703  96.4417559
  37.9385091  45.7496795  97.8396897  29.8151221  35.0381928 100.6295520
  29.8535321  34.5045518 101.4232638  29.3091514  34.5117133 100.0106497
  42.2177490  47.5371319 103.5236177  42.7695798  47.7002940 104.2885263
  42.5583684  48.1275756 102.8516202  37.1941983  29.8846468 104.1258062
  37.2583310  30.7461299 103.7135460  37.1309104  29.2720470 103.3930421
  47.0688364  42.3632576 109.3784832  47.6128268  42.9762534 108.8839787
  46.4875209  42.9212154 109.8951845  33.4459799  33.7646030  93.7049451
  33.7413240  32.8556708  93.6516505  32.5447834  33.7433769  93.3830453
  45.3545877  45.4853294 100.5099859  45.2297017  44.6843034 100.0010805
  46.0124969  45.9799487 100.0213829  36.9754046  31.8402027  99.6877000
  36.2540631  32.4537994  99.5484473  37.7647301  32.3759791  99.6093646
  47.4180786  43.2862314 102.1379410  46.4711121  43.1667665 102.0657736
  47.7663559  42.3984812 102.2205671  35.1747640  31.4460128  93.8288776
  34.8460346  30.5657507  93.6463882  35.5287011  31.3907796  94.7165165
  44.4227219  43.0815030  98.3383762  44.2752182  42.1531738  98.5191332
  45.2480713  43.1035121  97.8540837  38.2889463  31.7333097  94.1964254
  38.6285536  32.2619019  93.4742862  38.7361584  32.0713504  94.9722820
  48.0261341  43.9043589  99.4248635  48.9507888  43.6986450  99.2873086
  47.8576644  43.6559990 100.3337976  40.9832904  30.1170148 103.6467322
  40.6429725  29.3177961 104.0488002  40.2771910  30.4171859 103.0744155
  41.6349376  27.2019461 102.0994645  42.4575445  26.7279939 101.9773535
  41.8787440  27.9809944 102.5993331  40.2757611  30.2307719  92.3957547
  40.9965973  30.6088972  91.8921264  39.6522915  30.9496596  92.4992525
  44.4188733  30.9352868  93.3315879  44.6352348  31.8177506  93.0304707
  43.9382801  30.5439081  92.6021521  39.1587955  33.8938581  99.9086624
  39.0132536  34.2078884 100.8010905  38.6813158  34.5123482  99.3557522
  41.0184338  30.8841129  99.9567513  41.0045906  29.9882222  99.6199811
  41.7356766  30.8911793 100.5905799  42.8710468  31.3178469 102.0020641
  42.6128246  32.2395540 102.0004971  42.3395509  30.9208904 102.6921105
  47.8156657  44.4229257  94.7810726  47.9893535  43.8575679  94.0284578
  48.3085548  45.2230151  94.5990216  33.6333617  36.4343926 102.8474285
  33.0887085  37.2103734 102.9794559  34.5112967  36.7814730 102.6893406
  40.4221234  29.7655509  95.2255083  40.5437145  28.8372156  95.4245971
  40.1323276  29.7794195  94.3133399  43.2912424  27.4510420  98.3621803
  43.3134121  27.5149753  97.4073783  43.7080483  26.6114929  98.5562309
  53.6696048  37.1865679  96.4001026  54.1127194  36.4373005  96.0020149
  52.7922559  37.1775816  96.0174758  48.8031830  43.7396021  91.8807624
  49.4982734  44.3602714  92.0994939  49.1454980  42.8891372  92.1560002
  34.4199639  35.5613822 105.7404442  33.6781375  35.7096457 106.3269072
  34.0992383  35.8222087 104.8771191  50.7023253  41.1895726  93.4094955
  51.2274577  41.5282999  92.6844275  50.6145605  40.2542742  93.2258090
  42.3643301  45.1029800 105.5384832  42.6730428  44.8578947 106.4107531
  43.1618783  45.3076439 105.0503702  42.3863914  47.2567710  97.7690208
  41.9468904  46.7644088  98.4623065  43.1372030  46.7140677  97.5282283
  34.8656252  43.4479251  97.7714836  35.6914272  43.1483022  97.3913480
  34.5150304  42.6786873  98.2204625  39.8337786  42.8005719  99.8412510
  39.2117795  42.1376424  99.5414738  40.5042653  42.8266851  99.1586158
  33.0664858  41.3665577  98.7303770  32.2296766  40.9387751  98.5487771
  33.0388503  41.5598020  99.6674561  50.3917159  41.8228630 108.7146153
  49.6012703  41.8052769 108.1750652  50.1550513  42.3616924 109.4695190
  50.5115034  38.6721096 106.0278882  50.5613039  38.5071104 106.9694404
  50.4028957  37.8048355 105.6376762  39.3951293  41.3509642  93.3170970
  39.5439413  42.0345107  92.6637643  40.2017736  41.3314732  93.8320426
  47.8018796  34.6552024 107.3438188  48.7028659  34.5158489 107.0522186
  47.8766771  34.8206479 108.2836366  42.1361602  32.0318879 106.1891375
  41.2664911  32.3252445 105.9173963  42.3721082  32.6159324 106.9098638
  52.0133231  41.0918038 106.2720903  51.7218039  41.4548019 107.1084364
  51.4005362  40.3785046 106.0934235  53.2128913  38.6570918  98.7923473
  54.0475804  39.0960722  98.9561034  53.3488042  38.1809571  97.9731719
  50.2620419  36.2150653 104.7400961  50.7374541  36.4078299 103.9319812
  49.3385984  36.2709838 104.4944345  37.1503926  37.3774820  94.3232039
  36.9049967  36.4737150  94.5212249  37.3199840  37.3791970  93.3811517
  44.8400635  28.2498496 103.7056795  45.3582579  28.9859523 103.3803284
  44.4855768  28.5562489 104.5403554  36.4199573  33.1103177  91.8218201
  35.7268818  33.1847532  91.1658237  36.1751325  32.3463521  92.3439718
  45.0913230  24.6698779  99.2257692  45.3714983  24.0021968  99.8518118
  45.8763837  24.8627874  98.7132355  42.8946698  43.8457773  90.7882718
  42.3220665  44.4647960  90.3353190  43.4679492  44.3957134  91.3222640
  48.9622088  33.0916413 102.9729267  49.9139511  33.1914510 102.9941491
  48.7925538  32.2994681 103.4827351  46.9836467  30.1771996 103.1588668
  46.3886400  30.4577009 102.4635156  46.6986164  30.6665897 103.9305409
  46.1143958  44.1294923  91.9191300  47.0474631  44.0640484  92.1224176
  46.0267171  44.9651190  91.4605833  48.7431975  43.4460793  88.8795248
  48.6645606  43.1120657  89.7731006  49.5641641  43.9382561  88.8786720
  51.4410166  36.3122532 102.0871566  51.4086486  35.3738533 102.2731250
  52.0510789  36.3906569 101.3537391  43.2793497  35.1818585  88.1298770
  44.2252601  35.0524793  88.1987188  42.9007742  34.4433247  88.6068199
  51.5904654  33.1033576 102.1329849  51.0743703  32.3192032 101.9459778
  52.4744603  32.7752292 102.2976369  49.2515381  26.8474591  98.0925662
  49.0540202  26.5389680  98.9768994  49.8615087  27.5736230  98.2223592
  57.2586716  37.3738539 101.2277603  57.9890104  37.1123827 101.7885306
  56.6493661  36.6367261 101.2679671  55.3402013  35.5146402 101.8252054
  54.6135176  35.3802367 101.2168546  54.9249300  35.8223230 102.6308772
  43.1632189  39.2336331 109.5899427  44.0835199  39.4114930 109.7839474
  43.1281772  38.2892377 109.4379127  41.4636414  33.1068562  88.0653656
  40.5567869  32.8101674  88.1416369  41.7412395  32.8098380  87.1987942
  32.3814354  34.4274925  98.5152702  32.0617138  33.5740233  98.2227076
  31.8347782  34.6423503  99.2710669  36.1594262  37.1437366 102.2322208
  36.3780271  38.0754474 102.2510242  36.5720036  36.7845341 103.0177012
  43.0798479  27.6505451  94.2197897  42.2699208  27.3052536  94.5953143
  43.7682896  27.3412995  94.8085508  45.0089028  26.7283498  95.8422194
  45.5620066  27.1478952  96.5012217  45.2459114  25.8019246  95.8845150
  40.2335198  29.9655497  88.2065635  41.0954362  30.2910395  88.4661452
  40.4185543  29.1786993  87.6938701  32.2502614  38.0477837 100.4845824
  31.5566086  37.6331789  99.9715778  32.9975605  38.0898373  99.8879242
  48.3867835  28.8384023  95.3500858  47.8066504  29.4968827  94.9678910
  48.1203768  28.0161368  94.9388275  46.8371401  28.2389081  97.5522178
  47.3371180  28.3505616  96.7436497  47.4807009  27.9350134  98.1922987
  40.8953397  36.1467711 110.4390019  40.4120479  36.9468071 110.6453908
  40.9814336  36.1575656 109.4857463  34.1639357  37.9796090  98.3611838
  34.1410045  38.0783778  97.4093722  34.4739993  38.8261241  98.6829005
  36.8226735  40.0372245 102.4758453  37.7769988  40.0056188 102.4088384
  36.6239258  39.5762869 103.2908679  37.4126117  38.6073361 105.0429251
  38.2319006  39.1017440 105.0664088  37.6862924  37.6905330 105.0146818
  47.1692713  30.9984114  94.4057206  46.2818568  31.2833764  94.1877401
  47.5846702  30.8377877  93.5584483  50.5207249  31.0230635  98.1211545
  51.2967639  31.5127087  98.3936162  49.7955383  31.4488689  98.5783415
  52.9579808  31.7358254  99.1785486  53.5524298  31.4953990  98.4678794
  53.0306391  31.0165385  99.8059022  35.1776963  45.5791865  99.4928651
  35.0431431  44.8192266  98.9266649  34.7609026  46.3032765  99.0257440
  46.3135926  40.7628788  88.5005226  47.0171776  40.9678791  89.1162882
  45.5898575  41.3305550  88.7654310  47.1433737  36.5138650  94.6207496
  47.0868938  36.9707201  93.7815129  47.6962079  35.7529334  94.4430339
  50.9538543  32.3028382  95.4457616  50.6975477  31.9025017  96.2765823
  50.3291411  33.0172176  95.3207755  55.2650880  35.0424455  97.9528907
  54.7050438  35.1117644  98.7260469  54.6594384  34.8665439  97.2328403
  38.3346089  46.4761182  99.7047093  38.2178473  47.4206614  99.6025784
  37.5138535  46.1734744 100.0932893  48.2222624  41.2011318  90.5503686
  49.0568228  40.7692516  90.3681161  48.0606967  41.0293331  91.4780581
  47.8768516  37.7043431  91.9160025  47.8217320  37.5387702  90.9748469
  47.2514571  38.4119464  92.0722215  45.1914423  40.0092343 111.2413588
  46.0605583  40.1832995 110.8800223  44.7121175  40.8286760 111.1189317
  41.1864641  27.2051540  91.4945344  41.1743311  28.1493380  91.6513615
  42.0788063  27.0221685  91.2004805  39.3600603  47.1289444 102.9203022
  40.2627850  47.1613054 103.2369517  39.1337973  46.1989895 102.9349358
  41.1154205  45.8820430  99.5813100  40.1649836  45.8822292  99.4677473
  41.4186691  45.1353165  99.0649135  45.0016761  23.7994317  95.7491281
  44.2349157  23.2452803  95.8947963  45.4127466  23.8716185  96.6105432
  56.8506899  51.7180969 100.6458863  57.4885309  51.5987716  99.9422203
  56.7327742  52.6661813 100.7046815  53.6596605  51.6708397 100.5820388
  53.3215117  51.5549462  99.6940922  54.5286373  51.2699562 100.5621394
  49.5183421  53.5243873  96.5717278  48.9548286  53.4333810  95.8033566
  49.4035816  52.7043778  97.0519771  54.1416388  52.8243249 106.5406593
  54.1305029  52.4296047 105.6687097  54.3037028  52.0909321 107.1340364
  47.0647853  55.0195065  99.4101499  47.8569145  54.6785890  98.9947798
  47.3044503  55.1290040 100.3303652  55.0982980  57.1914841  91.8831743
  54.4470959  57.7768921  91.4965757  55.8927342  57.7221036  91.9426781
  49.0238607  54.2803978  92.2818878  49.7969483  53.7332965  92.1431754
  49.3764006  55.1448227  92.4933339  50.8623649  55.6080360 105.4885777
  50.5713515  56.5125991 105.3732443  51.4980634  55.6496888 106.2029847
  51.7879856  52.9857209 102.0787137  52.3843428  52.7613231 101.3644100
  51.8454828  52.2441954 102.6812585  51.3604885  50.4396644  89.9137328
  51.6130405  49.9178166  89.1520791  50.4229444  50.2762790  90.0164011
  56.4048167  49.4432423  97.7212071  57.1911257  49.0251846  97.3702488
  56.6686872  50.3478515  97.8893719  56.5758245  54.8805273  92.4200728
  55.9404078  54.9539899  93.1321632  56.2455651  55.4698872  91.7419807
  61.8056594  49.3807656  98.6245049  62.5381766  48.8106873  98.8582879
  61.0495950  48.9929256  99.0651555  51.0801173  52.3424750  92.1161703
  50.9637431  51.6669654  92.7842787  51.1903433  51.8557124  91.2993856
  53.4232714  51.8034897  95.8208392  53.0590921  51.2765518  96.5321313
  54.2799830  51.4133366  95.6474877  59.3282015  43.0929230 103.0839658
  58.9965340  43.9624641 102.8600873  58.7327628  42.7765514 103.7633688
  53.0638201  46.8324797  90.8169740  53.2312604  47.7005033  91.1840211
  52.8735370  46.9952079  89.8931030  55.8213534  55.2941776 102.4835571
  55.5214257  56.1966815 102.3751378  55.4764594  55.0273959 103.3356724
  49.2726016  51.7455573  98.5172275  48.3476512  51.6131787  98.7249967
  49.5210429  52.5249792  99.0142218  59.2210678  47.8124316 100.1633008
  58.3127555  47.7439725  99.8691769  59.1698274  48.2896261 100.9914834
  53.0427422  49.2882455  91.8016407  52.9227047  49.7339505  92.6401887
  52.3480010  49.6367772  91.2429945  46.6334827  51.3888846  99.3516064
  46.7627208  51.6423325 100.2655476  45.9532278  51.9816554  99.0320719
  50.8034314  62.0586096  95.4506538  50.7258344  63.0093921  95.5295019
  50.1995958  61.7131969  96.1081465  53.2951544  49.2313962 108.1067905
  52.5184878  49.7907882 108.0970770  53.9342107  49.7170745 108.6282775
  61.0872325  46.0140755 101.9410882  60.4446705  46.3073288 101.2950677
  60.5827253  45.8993675 102.7464079  58.7412488  49.7603928  92.6296741
  59.6530344  49.9931314  92.4544439  58.2322135  50.3440972  92.0671820
  51.5497916  52.0399415 107.6685872  52.2912601  52.5784459 107.3920696
  50.8434902  52.6665704 107.8257424  57.0253256  54.1828556 106.2658034
  57.4336612  53.7410966 105.5212666  56.3030517  53.6081183 106.5192227
  53.3784326  49.1201162 103.6391591  54.2245521  49.5440576 103.7826240
  53.3182964  48.4634787 104.3330154  57.3482070  54.7429746 100.0210323
  56.7190933  54.9075460  99.3186391  56.9607733  55.1571356 100.7921287
  61.2271302  55.6784184  97.3754686  60.5422341  56.0583085  96.8251720
  61.3115152  56.2879511  98.1086634  56.5283771  46.7805531 105.2972764
  56.2844703  47.5347591 104.7607040  56.8043702  47.1590878 106.1320011
  58.4822234  53.3244143 103.9750030  58.6939129  53.9675903 103.2984411
  58.4351982  52.4906460 103.5071960  56.0848463  45.9361964 100.8786602
  55.2232942  46.2343217 101.1703340  56.1110898  46.1532363  99.9467635
  52.9010032  54.4804154  97.2860408  53.3648378  54.7591857  96.4965030
  52.6366830  53.5787599  97.1033498  49.7934113  54.0275636 100.2240171
  50.3635471  54.4562904  99.5857656  50.3842225  53.7458220 100.9224357
  51.8378918  50.6027307  94.0949973  52.5402962  51.0548350  94.5623899
  51.5059547  49.9611125  94.7229866  50.2859280  49.1939063 108.4701182
  49.6557941  49.8755344 108.7036579  50.1795368  49.0822145 107.5254321
  45.5804252  48.8610859  99.3967106  44.7903306  49.1168388  98.9207217
  46.0715500  49.6759197  99.5019147  59.5968062  56.2016098 102.1472387
  60.4185506  55.7996286 101.8655069  59.5930465  56.0984333 103.0988503
  47.5318998  49.2255439  96.3550583  46.7350161  49.3374133  96.8734079
  47.3044590  49.5642091  95.4891474  53.3624665  55.7500142 104.3033098
  53.4269098  56.2120549 105.1391270  52.6535589  55.1197507 104.4315408
  43.8641955  49.1141350 101.8282097  44.1149994  49.9988360 102.0939673
  44.4001504  48.9345951 101.0557189  67.6874055  52.5454847  98.4957359
  66.9337763  51.9762245  98.3401363  67.8221596  52.5117511  99.4427993
  53.0772683  57.4168249  94.1712078  52.9418358  58.2619785  94.5996926
  53.6182496  57.6187527  93.4078012  49.5640023  43.4959829 110.8326433
  49.1706968  42.9426028 111.5074078  50.3806163  43.8070408 111.2232951
  46.5302080  54.9343687  94.7440003  47.0426601  55.7286938  94.8945568
  47.1824793  54.2369978  94.6773605  48.3396965  58.0509444  96.8262756
  48.5163593  58.9727408  96.6383740  49.1353799  57.7367863  97.2557136
  52.4807984  44.9117708 108.4246690  53.2217697  45.5124861 108.3451152
  52.7125907  44.1695346 107.8664732  47.6249322  50.0974075 106.7024920
  47.5102837  49.1959333 107.0032019  46.7693839  50.3437772 106.3509736
  54.7041159  58.0391816 108.3012420  54.2605014  57.2528194 107.9833325
  55.3658373  58.2270966 107.6356311  49.4628281  59.5687617 102.8273099
  50.0135706  59.4404681 102.0550093  48.6239757  59.8682506 102.4767992
  56.8022397  58.3194616 106.3293821  56.7840873  59.1403497 105.8374091
  57.7242318  58.1948691 106.5543963  53.2595452  55.8338745 107.1717330
  53.7923788  55.0727033 106.9416638  52.7309533  55.5412397 107.9141484
  56.4265147  40.9398811 102.7010972  56.0829416  41.8300453 102.6250082
  56.7944109  40.7500469 101.8380557  44.4950997  53.2632342  95.5199574
  45.3326219  53.6729350  95.3033281  44.6729265  52.3231784  95.4899768
  56.3915429  50.9307422  91.2083407  55.8762053  51.7012027  91.4471794
  56.1192738  50.2572558  91.8316468  53.9762540  45.7757123  96.2668645
  53.1204137  45.3863973  96.0874284  54.3889492  45.8549084  95.4068431
  55.5061687  43.3103466 100.6660205  55.0026483  43.2733601  99.8528010
  55.7992294  44.2196209 100.7256861  51.7504573  43.3942196  99.6726387
  52.6157570  43.1985005  99.3132276  51.8182082  43.1652548 100.5995743
  61.3649703  53.6839777  93.1436580  60.5879146  53.3450936  92.6991742
  62.0441184  53.6892400  92.4691545  56.1801733  48.8034514  93.0343188
  55.8751868  49.1180664  93.8853331  57.1332175  48.8815934  93.0770521
  54.6248164  54.9624738  94.6836142  54.0969526  54.2277497  94.3709379
  54.1235667  55.7399414  94.4376110  59.6041010  53.1573758  99.8003188
  58.9464685  53.8473020  99.8883317  60.4081410  53.5470190 100.1437175
  49.3566892  45.6244404  97.0442753  49.9310644  45.4019585  96.3115946
  49.9437874  45.6933098  97.7971355  58.4146469  51.5118131  97.8507130
  58.9278351  52.1448123  98.3528840  59.0647693  50.9119326  97.4850490
  49.6836479  47.6548865  91.0638639  48.8473791  47.9923551  91.3847913
  49.5441249  47.5197845  90.1265776  51.6589560  42.4985653  95.7717823
  51.0053972  42.1834670  95.1474438  51.6170034  41.8761393  96.4977646
  52.7700765  52.7804948  87.6871115  51.8627826  52.5494201  87.8862264
  53.2671797  51.9842567  87.8745096  55.6768843  61.4902455  90.6067801
  55.0030542  61.7934152  91.2152759  56.0634665  62.2931535  90.2573258
  54.8927300  48.9867586 100.0965470  53.9749861  49.2082533  99.9387158
  55.3087444  49.0613897  99.2377178  55.6762348  50.3859002  95.2268151
  56.4234167  50.8980399  94.9175273  55.9453937  50.0643055  96.0872544
  53.9488998  52.8817543  92.2095105  53.0400217  52.5976576  92.3067575
  53.9784082  53.3016621  91.3498412  59.1808265  56.4924132  95.9786273
  58.7270592  55.6515042  96.0351463  58.5502232  57.1285531  96.3161053
  58.1241185  47.4216118  97.2086940  57.3863942  46.9093505  97.5397183
  58.3767958  46.9816500  96.3970217  57.6241205  58.3300629  96.9136091
  57.9164179  58.8905686  96.1948456  58.1339825  58.6229190  97.6689250
  58.2252812  40.1992370  97.8028709  58.5311689  39.3389734  97.5154624
  58.9505417  40.7909991  97.6027703  44.5177168  50.6023057  96.1910307
  44.3201568  50.0092418  95.4661374  43.9623832  50.2975267  96.9086246
  52.4973892  50.4946163  98.3104900  52.5522502  49.5420000  98.2347377
  51.6865094  50.6505602  98.7946199  53.6465086  54.4226286  89.5483184
  53.2084516  53.7062145  89.0888821  54.3875527  54.6502401  88.9868275
  50.4366252  49.1123223  96.0695279  49.6234117  49.4117394  96.4760471
  50.9325246  48.7178912  96.7869761  52.5874830  59.1080980  98.0029544
  52.5451009  59.3341826  97.0738076  53.5037529  58.8744355  98.1515345
  56.0340464  49.5765048 104.9010173  56.3889851  49.8036521 105.7604639
  56.6812595  49.9083424 104.2787428  61.7638201  52.6983483  95.6059502
  61.6256099  52.8885079  94.6780691  61.4074419  53.4602866  96.0627553
  49.9280327  46.6841579 101.6856514  50.5679706  46.5430338 100.9879477
  49.0957857  46.3976092 101.3095116  61.7907580  54.7660010 100.6170774
  62.2244087  54.6735300 101.4653828  62.5039161  54.7417511  99.9790790
  50.7040631  55.9844009  97.7991507  51.4981229  55.4894329  97.5974082
  49.9932323  55.4561872  97.4359212  55.5235475  58.3662105 102.1503874
  55.5772497  58.9353041 102.9181590  54.6550256  58.5363990 101.7857911
  47.0123394  50.1287091  93.8751259  46.0820982  50.0671546  94.0921221
  47.1080866  49.6063044  93.0787901  46.9308943  46.6541904  96.4629501
  47.1915760  47.5687237  96.3538661  47.7526115  46.1866346  96.6126114
  48.4033868  48.0679661 103.6328325  49.0756922  47.8597023 102.9840974
  47.5763655  47.8701747 103.1933558  62.6523130  54.8083711 103.1503659
  62.8459020  55.7129522 103.3962934  62.5523748  54.3491130 103.9842244
  54.3059440  44.6941602 105.6493986  53.6587356  45.3931551 105.5558463
  55.0760456  45.1277746 106.0170235  57.7138238  54.9590454 108.7244540
  57.5623745  54.7301006 107.8074623  57.7042918  55.9161055 108.7375885
  54.4823575  52.5322367 103.7090806  55.4115635  52.6833526 103.5359773
  54.0614605  52.6206387 102.8539453  53.2811907  56.5573031 101.4789344
  53.1422992  56.1891815 102.3515282  52.4926503  57.0720670 101.3073302
  53.8760059  61.6582128  92.8214880  54.0511814  61.1870171  93.6360503
  53.1892847  62.2847894  93.0496141  54.8317122  55.9354634  98.8678181
  54.4966954  55.8955404  99.7635831  54.3321067  55.2699350  98.3948592
  48.8061366  51.3422264 104.3930763  48.6681164  50.6102503 104.9942302
  49.7166289  51.2531164 104.1114950  57.7676313  53.2810668  89.1415241
  57.1505484  52.5557496  89.0448294  57.2992802  54.0420028  88.7982315
  51.4343666  51.0542223 103.8814442  52.1443285  50.4135415 103.8401061
  51.3912975  51.3055118 104.8040623  59.4230445  57.9909576 106.8021021
  59.3642991  57.3068797 106.1351605  59.8249963  58.7328566 106.3501647
  50.1472600  48.0407441 105.7010082  49.6109957  47.5898179 106.3531678
  49.5589309  48.1753350 104.9580546  48.4421144  64.8071490  99.5954740
  48.6817742  65.4390014 100.2733759  47.5990340  64.4559530  99.8820100
  49.5574859  47.4996092  88.2636545  48.6804326  47.3784893  87.8998792
  50.0332612  46.7082171  88.0115434  59.4247852  55.9549160 105.0335001
  58.5374631  55.6175082 105.1561400  59.9946403  55.2232192 105.2703767
  41.0776999  52.2873252  98.3578053  41.7648039  51.9734982  97.7699068
  40.9225128  53.1914617  98.0845304  45.8811722  47.1763449 102.7863076
  45.7969910  46.5689118 102.0513486  45.0594428  47.6672467 102.7872573
  52.9549006  60.6150613 101.9996244  52.8819177  61.4205584 102.5115549
  52.5126399  60.8142579 101.1744266  52.7438785  59.8522383  95.5099066
  51.9606307  60.3944063  95.6037290  53.4431531  60.3696362  95.9093307
  56.0535435  45.6617012  98.1533271  56.5504135  44.9086975  97.8334342
  55.2822417  45.6981329  97.5876481  63.9065193  51.3657378  99.7951563
  63.8955069  52.2482093  99.4245496  63.0382572  51.0128929  99.6006100
  55.4147689  60.5137447 104.1554403  56.1275661  61.1484912 104.0830305
  54.9237718  60.6101313 103.3394405  57.1365216  54.4188699  95.7271695
  56.2021495  54.5390162  95.5576399  57.3141885  53.5161166  95.4631705
  52.6370404  47.8034395  97.8804956  52.2668192  47.2505436  98.5685861
  53.1329497  47.1992529  97.3279956  60.5237767  50.2606019  96.2621729
  60.9898220  51.0934010  96.1882032  60.9745268  49.7951000  96.9666987
  50.4659603  58.2631890 104.9759974  51.1669062  58.8968373 105.1289368
  49.9954718  58.6046622 104.2155613  58.5913999  56.6049840  93.2607881
  58.8673842  56.4906435  94.1701755  57.7218497  56.2067325  93.2220054
  58.4954430  42.6286606 100.3012630  57.5817510  42.8590833 100.4694837
  58.9247532  42.7125050 101.1526663  58.2660889  50.8176498 102.8012524
  57.6132339  51.0652405 102.1464977  58.6441269  50.0040636 102.4675002
  55.2268063  60.8536191  96.9040695  55.4090457  60.0357847  97.3668447
  56.0501049  61.0703883  96.4665585  55.5610228  59.7804376  94.1655743
  56.0897995  59.2696831  93.5525905  55.8238448  59.4646906  95.0301276
  54.3148462  51.5596309 109.2878561  53.6389099  51.4590438 109.9580937
  55.1376096  51.4035522 109.7514559  46.0627321  57.7968245 101.9091077
  46.6480758  57.0511933 102.0418981  45.8652159  58.1072202 102.7927740
  48.9165976  60.8319493  96.9253519  48.2476351  61.3165620  96.4417559
  48.7778846  61.0788713  97.8396897  40.6544976  50.3673845 100.6295520
  40.6929075  49.8337436 101.4232638  40.1485268  49.8409051 100.0106497
  53.0571245  62.8663236 103.5236177  53.6089553  63.0294858 104.2885263
  53.3977438  63.4567674 102.8516202  48.0335738  45.2138386 104.1258062
  48.0977064  46.0753217 103.7135460  47.9702858  44.6012388 103.3930421
  47.5088010  47.2861519 107.7731096  48.1360049  46.9038596 108.3868621
  46.6515929  47.0675720 108.1386789  57.9082119  57.6924494 109.3784832
  58.4522023  58.3054452 108.8839787  57.3268964  58.2504072 109.8951845
  44.2853553  49.0937948  93.7049451  44.5806994  48.1848626  93.6516505
  43.3841589  49.0725687  93.3830453  56.1939632  60.8145212 100.5099859
  56.0690771  60.0134952 100.0010805  56.8518723  61.3091405 100.0213829
  47.8147800  47.1693944  99.6877000  47.0934386  47.7829912  99.5484473
  48.6041056  47.7051709  99.6093646  58.2574540  58.6154232 102.1379410
  57.3104876  58.4959583 102.0657736  58.6057313  57.7276730 102.2205671
  50.6174114  44.5048371 105.9617651  51.1408515  44.7510667 106.7243961
  50.3986447  45.3368406 105.5420789  46.0141395  46.7752045  93.8288776
  45.6854101  45.8949424  93.6463882  46.3680765  46.7199714  94.7165165
  55.2620974  58.4106948  98.3383762  55.1145936  57.4823655  98.5191332
  56.0874467  58.4327039  97.8540837  49.1283218  47.0625015  94.1964254
  49.4679290  47.5910936  93.4742862  49.5755338  47.4005421  94.9722820
  58.8655095  59.2335507  99.4248635  59.7901643  59.0278368  99.2873086
  58.6970399  58.9851908 100.3337976  51.8226659  45.4462066 103.6467322
  51.4823479  44.6469879 104.0488002  51.1165665  45.7463777 103.0744155
  52.4743131  42.5311378 102.0994645  53.2969200  42.0571856 101.9773535
  52.7181194  43.3101862 102.5993331  51.1151365  45.5599637  92.3957547
  51.8359728  45.9380889  91.8921264  50.4916669  46.2788513  92.4992525
  55.2582488  46.2644786  93.3315879  55.4746102  47.1469424  93.0304707
  54.7776555  45.8730999  92.6021521  49.9981709  49.2230499  99.9086624
  49.8526290  49.5370802 100.8010905  49.5206913  49.8415399  99.3557522
  51.8578092  46.2133047  99.9567513  51.8439661  45.3174140  99.6199811
  52.5750520  46.2203711 100.5905799  53.7104223  46.6470387 102.0020641
  53.4522001  47.5687458 102.0004971  53.1789263  46.2500822 102.6921105
  58.6550412  59.7521174  94.7810726  58.8287289  59.1867597  94.0284578
  59.1479303  60.5522069  94.5990216  44.4727371  51.7635843 102.8474285
  43.9280840  52.5395651 102.9794559  45.3506721  52.1106648 102.6893406
  51.2614988  45.0947427  95.2255083  51.3830899  44.1664073  95.4245971
  50.9717030  45.1086113  94.3133399  54.1306178  42.7802338  98.3621803
  54.1527875  42.8441671  97.4073783  54.5474238  41.9406846  98.5562309
  64.5089803  52.5157597  96.4001026  64.9520949  51.7664922  96.0020149
  63.6316313  52.5067733  96.0174758  59.6425584  59.0687939  91.8807624
  60.3376489  59.6894631  92.0994939  59.9848734  58.2183290  92.1560002
  45.2593393  50.8905740 105.7404442  44.5175129  51.0388375 106.3269072
  44.9386138  51.1514005 104.8771191  61.5417007  56.5187644  93.4094955
  62.0668331  56.8574917  92.6844275  61.4539360  55.5834659  93.2258090
  53.2037056  60.4321718 105.5384832  53.5124182  60.1870865 106.4107531
  54.0012538  60.6368356 105.0503702  53.2257668  62.5859627  97.7690208
  52.7862658  62.0936006  98.4623065  53.9765785  62.0432595  97.5282283
  45.7050007  58.7771168  97.7714836  46.5308027  58.4774940  97.3913480
  45.3544059  58.0078791  98.2204625  50.6731540  58.1297636  99.8412510
  50.0511549  57.4668342  99.5414738  51.3436407  58.1558768  99.1586158
  43.9058612  56.6957495  98.7303770  43.0690520  56.2679669  98.5487771
  43.8782257  56.8889938  99.6674561  50.7456068  46.6079425 109.4345016
  50.7944223  47.4841547 109.0522786  51.2878582  46.0656818 108.8616659
  61.2310913  57.1520548 108.7146153  60.4406457  57.1344687 108.1750652
  60.9944268  57.6908841 109.4695190  61.3508788  54.0013014 106.0278882
  61.4006793  53.8363022 106.9694404  61.2422712  53.1340273 105.6376762
  50.2345047  56.6801560  93.3170970  50.3833167  57.3637024  92.6637643
  51.0411491  56.6606650  93.8320426  58.6412551  49.9843942 107.3438188
  59.5422414  49.8450407 107.0522186  58.7160525  50.1498397 108.2836366
  52.9755356  47.3610797 106.1891375  52.1058665  47.6544363 105.9173963
  53.2114836  47.9451242 106.9098638  62.8526985  56.4209956 106.2720903
  62.5611794  56.7839936 107.1084364  62.2399116  55.7076964 106.0934235
  64.0522668  53.9862835  98.7923473  64.8869559  54.4252639  98.9561034
  64.1881796  53.5101489  97.9731719  61.1014173  51.5442570 104.7400961
  61.5768295  51.7370217 103.9319812  60.1779739  51.6001756 104.4944345
  47.9897680  52.7066737  94.3232039  47.7443722  51.8029067  94.5212249
  48.1593595  52.7083888  93.3811517  55.6794390  43.5790414 103.7056795
  56.1976334  44.3151441 103.3803284  55.3249523  43.8854407 104.5403554
  47.2593328  48.4395095  91.8218201  46.5662573  48.5139450  91.1658237
  47.0145079  47.6755439  92.3439718  55.9306984  39.9990696  99.2257692
  56.2108738  39.3313885  99.8518118  56.7157591  40.1919792  98.7132355
  53.7340453  59.1749690  90.7882718  53.1614420  59.7939877  90.3353190
  54.3073246  59.7249052  91.3222640  59.8015842  48.4208330 102.9729267
  60.7533265  48.5206428 102.9941491  59.6319293  47.6286599 103.4827351
  57.8230222  45.5063914 103.1588668  57.2280154  45.7868926 102.4635156
  57.5379919  45.9957815 103.9305409  56.9537712  59.4586840  91.9191300
  57.8868386  59.3932402  92.1224176  56.8660925  60.2943107  91.4605833
  59.5825729  58.7752711  88.8795248  59.5039361  58.4412574  89.7731006
  60.4035396  59.2674479  88.8786720  62.2803920  51.6414450 102.0871566
  62.2480240  50.7030451 102.2731250  62.8904544  51.7198487 101.3537391
  54.1187251  50.5110503  88.1298770  55.0646356  50.3816711  88.1987188
  53.7401496  49.7725165  88.6068199  62.4298409  48.4325493 102.1329849
  61.9137457  47.6483950 101.9459778  63.3138357  48.1044210 102.2976369
  60.0909136  42.1766509  98.0925662  59.8933957  41.8681597  98.9768994
  60.7008841  42.9028148  98.2223592  68.0980470  52.7030457 101.2277603
  68.8283859  52.4415745 101.7885306  67.4887416  51.9659179 101.2679671
  66.1795767  50.8438319 101.8252054  65.4528931  50.7094284 101.2168546
  65.7643054  51.1515148 102.6308772  54.0025944  54.5628249 109.5899427
  54.9228953  54.7406848 109.7839474  53.9675527  53.6184295 109.4379127
  52.3030168  48.4360479  88.0653656  51.3961624  48.1393592  88.1416369
  52.5806149  48.1390298  87.1987942  43.2208109  49.7566843  98.5152702
  42.9010893  48.9032151  98.2227076  42.6741537  49.9715421  99.2710669
  46.9988016  52.4729284 102.2322208  47.2174026  53.4046392 102.2510242
  47.4113790  52.1137258 103.0177012  53.9192234  42.9797369  94.2197897
  53.1092962  42.6344454  94.5953143  54.6076651  42.6704913  94.8085508
  55.8482782  42.0575416  95.8422194  56.4013821  42.4770869  96.5012217
  56.0852869  41.1311164  95.8845150  51.8715881  48.0462490 111.6224957
  51.7712608  48.9956847 111.5537049  51.6537424  47.7180728 110.7501028
  51.0728953  45.2947415  88.2065635  51.9348117  45.6202313  88.4661452
  51.2579297  44.5078911  87.6938701  43.0896369  53.3769754 100.4845824
  42.3959840  52.9623707  99.9715778  43.8369360  53.4190291  99.8879242
  59.2261589  44.1675941  95.3500858  58.6460258  44.8260745  94.9678910
  58.9597522  43.3453286  94.9388275  57.6765156  43.5680999  97.5522178
  58.1764934  43.6797533  96.7436497  58.3200764  43.2642052  98.1922987
  51.7347152  51.4759628 110.4390019  51.2514233  52.2759989 110.6453908
  51.8208091  51.4867573 109.4857463  45.0033111  53.3088008  98.3611838
  44.9803799  53.4075695  97.4093722  45.3133748  54.1553159  98.6829005
  47.6620489  55.3664163 102.4758453  48.6163743  55.3348105 102.4088384
  47.4633013  54.9054787 103.2908679  48.2519871  53.9365279 105.0429251
  49.0712760  54.4309358 105.0664088  48.5256679  53.0197247 105.0146818
  58.0086467  46.3276031  94.4057206  57.1212322  46.6125682  94.1877401
  58.4240456  46.1669795  93.5584483  61.3601004  46.3522552  98.1211545
  62.1361394  46.8419005  98.3936162  60.6349138  46.7780607  98.5783415
  63.7973562  47.0650172  99.1785486  64.3918053  46.8245908  98.4678794
  63.8700146  46.3457302  99.8059022  46.0170718  60.9083783  99.4928651
  45.8825186  60.1484183  98.9266649  45.6002780  61.6324682  99.0257440
  57.1529681  56.0920706  88.5005226  57.8565531  56.2970709  89.1162882
  56.4292330  56.6597468  88.7654310  57.9827491  51.8430567  94.6207496
  57.9262693  52.2999119  93.7815129  58.5355834  51.0821252  94.4430339
  61.7932297  47.6320299  95.4457616  61.5369231  47.2316935  96.2765823
  61.1685165  48.3464093  95.3207755  66.1044635  50.3716373  97.9528907
  65.5444193  50.4409562  98.7260469  65.4988138  50.1957357  97.2328403
  49.1739844  61.8053100  99.7047093  49.0572228  62.7498532  99.6025784
  48.3532290  61.5026661 100.0932893  59.0616378  56.5303235  90.5503686
  59.8961982  56.0984434  90.3681161  58.9000721  56.3585249  91.4780581
  58.7162270  53.0335349  91.9160025  58.6611074  52.8679620  90.9748469
  58.0908326  53.7411382  92.0722215  43.5054785  48.2703413 105.7421448
  44.1513649  47.7602367 106.2308673  43.2971937  49.0072095 106.3164873
  56.0308178  55.3384261 111.2413588  56.8999337  55.5124913 110.8800223
  55.5514929  56.1578677 111.1189317  52.0258396  42.5343458  91.4945344
  52.0137066  43.4785298  91.6513615  52.9181818  42.3513603  91.2004805
  50.1994358  62.4581362 102.9203022  51.1021605  62.4904972 103.2369517
  49.9731728  61.5281812 102.9349358  51.9547960  61.2112348  99.5813100
  51.0043591  61.2114210  99.4677473  52.2580446  60.4645083  99.0649135
  55.8410515  39.1286234  95.7491281  55.0742911  38.5744721  95.8947963
  56.2521220  39.2008103  96.6105432  47.8452276  45.4171030 109.8396462
  48.7083738  45.0607835 110.0499786  47.2717687  45.0784925 110.5271866
  67.6900653  67.0472886 100.6458863  68.3279063  66.9279634  99.9422203
  67.5721496  67.9953730 100.7046815  64.4990360  67.0000315 100.5820388
  64.1608871  66.8841379  99.6940922  65.3680128  66.5991480 100.5621394
  60.3577175  68.8535791  96.5717278  59.7942040  68.7625728  95.8033566
  60.2429570  68.0335695  97.0519771  64.9810143  68.1535166 106.5406593
  64.9698783  67.7587965 105.6687097  65.1430782  67.4201239 107.1340364
  57.9041607  70.3486983  99.4101499  58.6962899  70.0077807  98.9947798
  58.1438257  70.4581958 100.3303652  65.9376734  72.5206759  91.8831743
  65.2864714  73.1060839  91.4965757  66.7321097  73.0512954  91.9426781
  59.8632361  69.6095896  92.2818878  60.6363237  69.0624883  92.1431754
  60.2157760  70.4740145  92.4933339  61.7017404  70.9372278 105.4885777
  61.4107270  71.8417909 105.3732443  62.3374388  70.9788806 106.2029847
  62.6273611  68.3149127 102.0787137  63.2237183  68.0905149 101.3644100
  62.6848582  67.5733872 102.6812585  62.1998639  65.7688562  89.9137328
  62.4524160  65.2470083  89.1520791  61.2623198  65.6054707  90.0164011
  67.2441922  64.7724340  97.7212071  68.0305011  64.3543763  97.3702488
  67.5080626  65.6770432  97.8893719  67.4151999  70.2097191  92.4200728
  66.7797832  70.2831817  93.1321632  67.0849406  70.7990789  91.7419807
  72.6450349  64.7099574  98.6245049  73.3775521  64.1398790  98.8582879
  71.8889705  64.3221174  99.0651555  61.9194928  67.6716668  92.1161703
  61.8031186  66.9961571  92.7842787  62.0297188  67.1849042  91.2993856
  64.2626469  67.1326815  95.8208392  63.8984676  66.6057436  96.5321313
  65.1193585  66.7425284  95.6474877  70.1675769  58.4221148 103.0839658
  69.8359094  59.2916559 102.8600873  69.5721383  58.1057432 103.7633688
  63.9031956  62.1616715  90.8169740  64.0706358  63.0296951  91.1840211
  63.7129125  62.3243996  89.8931030  66.6607289  70.6233694 102.4835571
  66.3608012  71.5258732 102.3751378  66.3158348  70.3565877 103.3356724
  60.1119770  67.0747490  98.5172275  59.1870267  66.9423705  98.7249967
  60.3604184  67.8541710  99.0142218  70.0604433  63.1416234 100.1633008
  69.1521310  63.0731642  99.8691769  70.0092028  63.6188179 100.9914834
  63.8821177  64.6174372  91.8016407  63.7620802  65.0631423  92.6401887
  63.1873765  64.9659690  91.2429945  57.4728581  66.7180764  99.3516064
  57.6020963  66.9715243 100.2655476  56.7926033  67.3108472  99.0320719
  61.6428069  77.3878014  95.4506538  61.5652098  78.3385839  95.5295019
  61.0389712  77.0423886  96.1081465  64.1345298  64.5605879 108.1067905
  63.3578632  65.1199800 108.0970770  64.7735861  65.0462662 108.6282775
  71.9266079  61.3432672 101.9410882  71.2840459  61.6365205 101.2950677
  71.4221008  61.2285593 102.7464079  69.5806243  65.0895845  92.6296741
  70.4924099  65.3223232  92.4544439  69.0715890  65.6732890  92.0671820
  62.3891671  67.3691333 107.6685872  63.1306355  67.9076377 107.3920696
  61.6828656  67.9957621 107.8257424  67.8647010  69.5120473 106.2658034
  68.2730366  69.0702884 105.5212666  67.1424272  68.9373101 106.5192227
  64.2178080  64.4493080 103.6391591  65.0639276  64.8732494 103.7826240
  64.1576718  63.7926704 104.3330154  68.1875825  70.0721664 100.0210323
  67.5584687  70.2367378  99.3186391  67.8001487  70.4863273 100.7921287
  72.0665057  71.0076102  97.3754686  71.3816095  71.3875003  96.8251720
  72.1508906  71.6171428  98.1086634  67.3677526  62.1097448 105.2972764
  67.1238458  62.8639509 104.7607040  67.6437456  62.4882796 106.1320011
  69.3215988  68.6536061 103.9750030  69.5332884  69.2967821 103.2984411
  69.2745737  67.8198377 103.5071960  66.9242217  61.2653881 100.8786602
  66.0626696  61.5635135 101.1703340  66.9504652  61.4824280  99.9467635
  63.7403787  69.8096072  97.2860408  64.2042132  70.0883775  96.4965030
  63.4760585  68.9079516  97.1033498  60.6327868  69.3567553 100.2240171
  61.2029225  69.7854822  99.5857656  61.2235980  69.0750138 100.9224357
  62.6772673  65.9319224  94.0949973  63.3796716  66.3840268  94.5623899
  62.3453301  65.2903043  94.7229866  61.1253034  64.5230981 108.4701182
  60.4951695  65.2047262 108.7036579  61.0189122  64.4114063 107.5254321
  56.4198007  64.1902777  99.3967106  55.6297061  64.4460305  98.9207217
  56.9109254  65.0051115  99.5019147  70.4361816  71.5308016 102.1472387
  71.2579260  71.1288203 101.8655069  70.4324219  71.4276250 103.0988503
  58.3712752  64.5547356  96.3550583  57.5743916  64.6666050  96.8734079
  58.1438344  64.8934008  95.4891474  64.2018420  71.0792059 104.3033098
  64.2662852  71.5412467 105.1391270  63.4929344  70.4489424 104.4315408
  54.7035710  64.4433267 101.8282097  54.9543748  65.3280277 102.0939673
  55.2395258  64.2637869 101.0557189  78.5267809  67.8746765  98.4957359
  77.7731518  67.3054163  98.3401363  78.6615351  67.8409429  99.4427993
  63.9166438  72.7460167  94.1712078  63.7812112  73.5911703  94.5996926
  64.4576250  72.9479445  93.4078012  60.4033777  58.8251747 110.8326433
  60.0100723  58.2717945 111.5074078  61.2199917  59.1362325 111.2232951
  57.3695835  70.2635605  94.7440003  57.8820355  71.0578855  94.8945568
  58.0218548  69.5661895  94.6773605  59.1790720  73.3801361  96.8262756
  59.3557348  74.3019326  96.6383740  59.9747553  73.0659780  97.2557136
  63.3201738  60.2409626 108.4246690  64.0611452  60.8416779 108.3451152
  63.5519661  59.4987264 107.8664732  58.4643076  65.4265993 106.7024920
  58.3496591  64.5251250 107.0032019  57.6087594  65.6729690 106.3509736
  65.5434914  73.3683733 108.3012420  65.0998768  72.5820112 107.9833325
  66.2052127  73.5562884 107.6356311  60.3022035  74.8979535 102.8273099
  60.8529460  74.7696598 102.0550093  59.4633511  75.1974424 102.4767992
  67.6416152  73.6486533 106.3293821  67.6234627  74.4695414 105.8374091
  68.5636072  73.5240609 106.5543963  64.0989206  71.1630663 107.1717330
  64.6317543  70.4018951 106.9416638  63.5703287  70.8704315 107.9141484
  67.2658901  56.2690729 102.7010972  66.9223170  57.1592370 102.6250082
  67.6337864  56.0792386 101.8380557  55.3344752  68.5924259  95.5199574
  56.1719974  69.0021268  95.3033281  55.5123019  67.6523701  95.4899768
  67.2309184  66.2599340  91.2083407  66.7155807  67.0303945  91.4471794
  66.9586492  65.5864476  91.8316468  64.8156295  61.1049041  96.2668645
  63.9597891  60.7155891  96.0874284  65.2283247  61.1841001  95.4068431
  66.3455441  58.6395384 100.6660205  65.8420237  58.6025519  99.8528010
  66.6386048  59.5488127 100.7256861  62.5898327  58.7234114  99.6726387
  63.4551324  58.5276922  99.3132276  62.6575836  58.4944465 100.5995743
  72.2043458  69.0131695  93.1436580  71.4272901  68.6742854  92.6991742
  72.8834939  69.0184318  92.4691545  67.0195487  64.1326432  93.0343188
  66.7145623  64.4472581  93.8853331  67.9725929  64.2107852  93.0770521
  65.4641919  70.2916655  94.6836142  64.9363280  69.5569415  94.3709379
  64.9629422  71.0691332  94.4376110  70.4434765  68.4865676  99.8003188
  69.7858439  69.1764937  99.8883317  71.2475164  68.8762108 100.1437175
  60.1960646  60.9536322  97.0442753  60.7704398  60.7311503  96.3115946
  60.7831629  61.0225016  97.7971355  69.2540224  66.8410048  97.8507130
  69.7672105  67.4740040  98.3528840  69.9041448  66.2411244  97.4850490
  60.5230234  62.9840783  91.0638639  59.6867546  63.3215469  91.3847913
  60.3835003  62.8489762  90.1265776  62.4983314  57.8277570  95.7717823
  61.8447727  57.5126588  95.1474438  62.4563788  57.2053311  96.4977646
  63.6094519  68.1096866  87.6871115  62.7021581  67.8786119  87.8862264
  64.1065551  67.3134485  87.8745096  66.5162598  76.8194373  90.6067801
  65.8424297  77.1226070  91.2152759  66.9028420  77.6223453  90.2573258
  65.7321055  64.3159504 100.0965470  64.8143616  64.5374451  99.9387158
  66.1481198  64.3905815  99.2377178  66.5156102  65.7150920  95.2268151
  67.2627921  66.2272317  94.9175273  66.7847692  65.3934972  96.0872544
  64.7882752  68.2109460  92.2095105  63.8793972  67.9268493  92.3067575
  64.8177836  68.6308539  91.3498412  70.0202020  71.8216050  95.9786273
  69.5664347  70.9806960  96.0351463  69.3895987  72.4577448  96.3161053
  68.9634939  62.7508036  97.2086940  68.2257696  62.2385422  97.5397183
  69.2161713  62.3108418  96.3970217  68.4634959  73.6592547  96.9136091
  68.7557933  74.2197604  96.1948456  68.9733580  73.9521108  97.6689250
  69.0646567  55.5284288  97.8028709  69.3705444  54.6681651  97.5154624
  69.7899172  56.1201908  97.6027703  55.3570923  65.9314975  96.1910307
  55.1595323  65.3384335  95.4661374  54.8017587  65.6267185  96.9086246
  63.3367647  65.8238081  98.3104900  63.3916256  64.8711917  98.2347377
  62.5258849  65.9797520  98.7946199  64.4858840  69.7518204  89.5483184
  64.0478270  69.0354063  89.0888821  65.2269281  69.9794319  88.9868275
  61.2760006  64.4415141  96.0695279  60.4627872  64.7409311  96.4760471
  61.7719001  64.0470830  96.7869761  63.4268584  74.4372898  98.0029544
  63.3844763  74.6633744  97.0738076  64.3431283  74.2036272  98.1515345
  66.8734218  64.9056965 104.9010173  67.2283606  65.1328438 105.7604639
  67.5206349  65.2375342 104.2787428  72.6031955  68.0275401  95.6059502
  72.4649854  68.2176997  94.6780691  72.2468174  68.7894784  96.0627553
  60.7674081  62.0133496 101.6856514  61.4073461  61.8722255 100.9879477
  59.9351612  61.7268010 101.3095116  72.6301335  70.0951928 100.6170774
  73.0637841  70.0027217 101.4653828  73.3432915  70.0709429  99.9790790
  61.5434385  71.3135927  97.7991507  62.3374984  70.8186247  97.5974082
  60.8326077  70.7853790  97.4359212  66.3629230  73.6954022 102.1503874
  66.4166252  74.2644959 102.9181590  65.4944011  73.8655907 101.7857911
  57.8517149  65.4579008  93.8751259  56.9214737  65.3963464  94.0921221
  57.9474621  64.9354961  93.0787901  57.7702698  61.9833821  96.4629501
  58.0309515  62.8979155  96.3538661  58.5919870  61.5158264  96.6126114
  59.2427623  63.3971578 103.6328325  59.9150676  63.1888941 102.9840974
  58.4157409  63.1993664 103.1933558  73.4916884  70.1375629 103.1503659
  73.6852774  71.0421439 103.3962934  73.3917502  69.6783048 103.9842244
  65.1453195  60.0233519 105.6493986  64.4981110  60.7223469 105.5558463
  65.9154210  60.4569663 106.0170235  68.5531993  70.2882372 108.7244540
  68.4017499  70.0592923 107.8074623  68.5436672  71.2452973 108.7375885
  65.3217329  67.8614284 103.7090806  66.2509389  68.0125444 103.5359773
  64.9008359  67.9498305 102.8539453  64.1205661  71.8864949 101.4789344
  63.9816747  71.5183733 102.3515282  63.3320257  72.4012588 101.3073302
  64.7153813  76.9874045  92.8214880  64.8905569  76.5162088  93.6360503
  64.0286601  77.6139811  93.0496141  65.6710876  71.2646551  98.8678181
  65.3360709  71.2247321  99.7635831  65.1714822  70.5991267  98.3948592
  59.6455120  66.6714181 104.3930763  59.5074918  65.9394420 104.9942302
  60.5560044  66.5823082 104.1114950  68.6070068  68.6102586  89.1415241
  67.9899239  67.8849414  89.0448294  68.1386556  69.3711946  88.7982315
  62.2737421  66.3834141 103.8814442  62.9837039  65.7427333 103.8401061
  62.2306729  66.6347036 104.8040623  70.2624200  73.3201494 106.8021021
  70.2036746  72.6360714 106.1351605  70.6643718  74.0620484 106.3501647
  60.9866355  63.3699359 105.7010082  60.4503712  62.9190097 106.3531678
  60.3983063  63.5045267 104.9580546  59.2814898  80.1363408  99.5954740
  59.5211497  80.7681932 100.2733759  58.4384095  79.7851448  99.8820100
  60.3968614  62.8288010  88.2636545  59.5198080  62.7076811  87.8998792
  60.8726367  62.0374088  88.0115434  70.2641607  71.2841078 105.0335001
  69.3768386  70.9467000 105.1561400  70.8340158  70.5524109 105.2703767
  51.9170754  67.6165170  98.3578053  52.6041794  67.3026900  97.7699068
  51.7618883  68.5206534  98.0845304  56.7205476  62.5055366 102.7863076
  56.6363665  61.8981036 102.0513486  55.8988182  62.9964385 102.7872573
  63.7942760  75.9442530 101.9996244  63.7212932  76.7497502 102.5115549
  63.3520153  76.1434496 101.1744266  63.5832540  75.1814300  95.5099066
  62.8000062  75.7235981  95.6037290  64.2825285  75.6988280  95.9093307
  66.8929190  60.9908930  98.1533271  67.3897889  60.2378892  97.8334342
  66.1216171  61.0273247  97.5876481  74.7458947  66.6949295  99.7951563
  74.7348824  67.5774011  99.4245496  73.8776327  66.3420846  99.6006100
  66.2541444  75.8429364 104.1554403  66.9669416  76.4776829 104.0830305
  65.7631472  75.9393230 103.3394405  67.9758971  69.7480617  95.7271695
  67.0415249  69.8682080  95.5576399  68.1535639  68.8453084  95.4631705
  63.4764159  63.1326313  97.8804956  63.1061946  62.5797353  98.5685861
  63.9723251  62.5284446  97.3279956  71.3631522  65.5897936  96.2621729
  71.8291974  66.4225928  96.1882032  71.8139022  65.1242918  96.9666987
  61.3053357  73.5923808 104.9759974  62.0062817  74.2260291 105.1289368
  60.8348472  73.9338539 104.2155613  69.4307753  71.9341758  93.2607881
  69.7067597  71.8198352  94.1701755  68.5612252  71.5359243  93.2220054
  69.3348185  57.9578523 100.3012630  68.4211265  58.1882750 100.4694837
  69.7641286  58.0416967 101.1526663  69.1054643  66.1468415 102.8012524
  68.4526093  66.3944323 102.1464977  69.4835023  65.3332554 102.4675002
  66.0661817  76.1828109  96.9040695  66.2484212  75.3649764  97.3668447
  66.8894803  76.3995801  96.4665585  66.4003983  75.1096294  94.1655743
  66.9291749  74.5988748  93.5525905  66.6632202  74.7938824  95.0301276
  65.1542216  66.8888226 109.2878561  64.4782853  66.7882356 109.9580937
  65.9769850  66.7327440 109.7514559  56.9021075  73.1260163 101.9091077
  57.4874512  72.3803851 102.0418981  56.7045914  73.4364120 102.7927740
  59.7559731  76.1611410  96.9253519  59.0870106  76.6457538  96.4417559
  59.6172600  76.4080631  97.8396897  51.4938730  65.6965763 100.6295520
  51.5322830  65.1629354 101.4232638  50.9879023  65.1700969 100.0106497
  63.8964999  78.1955154 103.5236177  64.4483307  78.3586775 104.2885263
  64.2371193  78.7859592 102.8516202  58.8729492  60.5430304 104.1258062
  58.9370819  61.4045135 103.7135460  58.8096613  59.9304305 103.3930421
  58.3481765  62.6153436 107.7731096  58.9753804  62.2330514 108.3868621
  57.4909684  62.3967638 108.1386789  68.7475873  73.0216411 109.3784832
  69.2915777  73.6346370 108.8839787  68.1662718  73.5795990 109.8951845
  55.1247308  64.4229865  93.7049451  55.4200749  63.5140544  93.6516505
  54.2235343  64.4017605  93.3830453  67.0333386  76.1437129 100.5099859
  66.9084526  75.3426869 100.0010805  67.6912478  76.6383323 100.0213829
  58.6541555  62.4985862  99.6877000  57.9328140  63.1121830  99.5484473
  59.4434810  63.0343627  99.6093646  69.0968295  73.9446149 102.1379410
  68.1498630  73.8251501 102.0657736  69.4451068  73.0568648 102.2205671
  61.4567868  59.8340288 105.9617651  61.9802270  60.0802585 106.7243961
  61.2380201  60.6660323 105.5420789  56.8535149  62.1043963  93.8288776
  56.5247855  61.2241342  93.6463882  57.2074520  62.0491632  94.7165165
  66.1014728  73.7398866  98.3383762  65.9539691  72.8115573  98.5191332
  66.9268222  73.7618956  97.8540837  59.9676972  62.3916933  94.1964254
  60.3073045  62.9202854  93.4742862  60.4149093  62.7297339  94.9722820
  69.7048850  74.5627424  99.4248635  70.6295397  74.3570286  99.2873086
  69.5364153  74.3143826 100.3337976  62.6620413  60.7753983 103.6467322
  62.3217234  59.9761797 104.0488002  61.9559419  61.0755694 103.0744155
  63.3136885  57.8603296 102.0994645  64.1362954  57.3863774 101.9773535
  63.5574949  58.6393780 102.5993331  61.9545120  60.8891554  92.3957547
  62.6753482  61.2672807  91.8921264  61.3310424  61.6080431  92.4992525
  66.0976242  61.5936703  93.3315879  66.3139857  62.4761341  93.0304707
  65.6170310  61.2022917  92.6021521  60.8375464  64.5522417  99.9086624
  60.6920045  64.8662720 100.8010905  60.3600667  65.1707317  99.3557522
  62.6971847  61.5424965  99.9567513  62.6833415  60.6466058  99.6199811
  63.4144275  61.5495628 100.5905799  64.5497977  61.9762305 102.0020641
  64.2915755  62.8979375 102.0004971  64.0183018  61.5792739 102.6921105
  69.4944166  75.0813092  94.7810726  69.6681044  74.5159514  94.0284578
  69.9873057  75.8813987  94.5990216  55.3121126  67.0927761 102.8474285
  54.7674594  67.8687569 102.9794559  56.1900476  67.4398565 102.6893406
  62.1008743  60.4239345  95.2255083  62.2224654  59.4955991  95.4245971
  61.8110785  60.4378031  94.3133399  64.9699933  58.1094255  98.3621803
  64.9921630  58.1733588  97.4073783  65.3867992  57.2698764  98.5562309
  75.3483557  67.8449515  96.4001026  75.7914703  67.0956840  96.0020149
  74.4710068  67.8359651  96.0174758  70.4819339  74.3979856  91.8807624
  71.1770243  75.0186549  92.0994939  70.8242489  73.5475207  92.1560002
  56.0987148  66.2197657 105.7404442  55.3568884  66.3680293 106.3269072
  55.7779892  66.4805923 104.8771191  72.3810762  71.8479562  93.4094955
  72.9062086  72.1866835  92.6844275  72.2933114  70.9126577  93.2258090
  64.0430810  75.7613635 105.5384832  64.3517937  75.5162782 106.4107531
  64.8406292  75.9660274 105.0503702  64.0651422  77.9151545  97.7690208
  63.6256413  77.4227924  98.4623065  64.8159539  77.3724513  97.5282283
  56.5443761  74.1063086  97.7714836  57.3701781  73.8066858  97.3913480
  56.1937813  73.3370708  98.2204625  61.5125295  73.4589554  99.8412510
  60.8905304  72.7960259  99.5414738  62.1830162  73.4850686  99.1586158
  54.7452367  72.0249412  98.7303770  53.9084275  71.5971587  98.5487771
  54.7176012  72.2181856  99.6674561  61.5849822  61.9371342 109.4345016
  61.6337978  62.8133465 109.0522786  62.1272336  61.3948735 108.8616659
  72.0704668  72.4812465 108.7146153  71.2800212  72.4636604 108.1750652
  71.8338022  73.0200759 109.4695190  72.1902543  69.3304932 106.0278882
  72.2400548  69.1654939 106.9694404  72.0816466  68.4632191 105.6376762
  61.0738802  72.0093478  93.3170970  61.2226922  72.6928942  92.6637643
  61.8805245  71.9898568  93.8320426  69.4806305  65.3135860 107.3438188
  70.3816168  65.1742325 107.0522186  69.5554280  65.4790315 108.2836366
  63.8149111  62.6902715 106.1891375  62.9452420  62.9836281 105.9173963
  64.0508591  63.2743160 106.9098638  73.6920740  71.7501873 106.2720903
  73.4005548  72.1131854 107.1084364  73.0792871  71.0368882 106.0934235
  74.8916422  69.3154753  98.7923473  75.7263313  69.7544557  98.9561034
  75.0275551  68.8393406  97.9731719  71.9407928  66.8734488 104.7400961
  72.4162050  67.0662134 103.9319812  71.0173493  66.9293674 104.4944345
  58.8291435  68.0358655  94.3232039  58.5837476  67.1320985  94.5212249
  58.9987349  68.0375806  93.3811517  66.5188144  58.9082332 103.7056795
  67.0370088  59.6443358 103.3803284  66.1643277  59.2146325 104.5403554
  58.0987082  63.7687013  91.8218201  57.4056327  63.8431368  91.1658237
  57.8538834  63.0047356  92.3439718  66.7700739  55.3282614  99.2257692
  67.0502492  54.6605803  99.8518118  67.5551346  55.5211710  98.7132355
  64.5734207  74.5041608  90.7882718  64.0008174  75.1231795  90.3353190
  65.1467001  75.0540970  91.3222640  70.6409597  63.7500248 102.9729267
  71.5927020  63.8498346 102.9941491  70.4713047  62.9578517 103.4827351
  68.6623976  60.8355831 103.1588668  68.0673909  61.1160844 102.4635156
  68.3773673  61.3249732 103.9305409  67.7931467  74.7878758  91.9191300
  68.7262140  74.7224320  92.1224176  67.7054680  75.6235025  91.4605833
  70.4219484  74.1044628  88.8795248  70.3433115  73.7704492  89.7731006
  71.2429150  74.5966396  88.8786720  73.1197675  66.9706368 102.0871566
  73.0873995  66.0322368 102.2731250  73.7298298  67.0490404 101.3537391
  64.9581006  65.8402421  88.1298770  65.9040110  65.7108629  88.1987188
  64.5795251  65.1017083  88.6068199  73.2692163  63.7617411 102.1329849
  72.7531212  62.9775868 101.9459778  74.1532112  63.4336128 102.2976369
  70.9302890  57.5058427  98.0925662  70.7327711  57.1973515  98.9768994
  71.5402596  58.2320066  98.2223592  78.9374225  68.0322375 101.2277603
  79.6677613  67.7707663 101.7885306  78.3281170  67.2951097 101.2679671
  77.0189522  66.1730237 101.8252054  76.2922685  66.0386202 101.2168546
  76.6036809  66.4807066 102.6308772  64.8419698  69.8920167 109.5899427
  65.7622708  70.0698766 109.7839474  64.8069281  68.9476212 109.4379127
  63.1423923  63.7652397  88.0653656  62.2355378  63.4685510  88.1416369
  63.4199904  63.4682215  87.1987942  54.0601863  65.0858761  98.5152702
  53.7404647  64.2324069  98.2227076  53.5135291  65.3007339  99.2710669
  57.8381771  67.8021202 102.2322208  58.0567780  68.7338309 102.2510242
  58.2507544  67.4429176 103.0177012  64.7585988  58.3089287  94.2197897
  63.9486717  57.9636372  94.5953143  65.4470405  57.9996831  94.8085508
  66.6876537  57.3867334  95.8422194  67.2407575  57.8062787  96.5012217
  66.9246623  56.4603082  95.8845150  62.7109636  63.3754407 111.6224957
  62.6106363  64.3248764 111.5537049  62.4931178  63.0472646 110.7501028
  61.9122707  60.6239332  88.2065635  62.7741871  60.9494231  88.4661452
  62.0973052  59.8370828  87.6938701  53.9290123  68.7061672 100.4845824
  53.2353595  68.2915625  99.9715778  54.6763114  68.7482209  99.8879242
  70.0655344  59.4967859  95.3500858  69.4854013  60.1552663  94.9678910
  69.7991277  58.6745203  94.9388275  68.5158910  58.8972916  97.5522178
  69.0158689  59.0089451  96.7436497  69.1594518  58.5933969  98.1922987
  62.5740906  66.8051546 110.4390019  62.0907988  67.6051906 110.6453908
  62.6601845  66.8159491 109.4857463  55.8426866  68.6379926  98.3611838
  55.8197554  68.7367613  97.4093722  56.1527502  69.4845077  98.6829005
  58.5014244  70.6956081 102.4758453  59.4557497  70.6640023 102.4088384
  58.3026767  70.2346705 103.2908679  59.0913626  69.2657197 105.0429251
  59.9106515  69.7601276 105.0664088  59.3650433  68.3489165 105.0146818
  68.8480222  61.6567949  94.4057206  67.9606077  61.9417600  94.1877401
  69.2634211  61.4961713  93.5584483  72.1994758  61.6814470  98.1211545
  72.9755148  62.1710923  98.3936162  71.4742892  62.1072524  98.5783415
  74.6367317  62.3942089  99.1785486  75.2311807  62.1537825  98.4678794
  74.7093900  61.6749220  99.8059022  56.8564472  76.2375700  99.4928651
  56.7218940  75.4776101  98.9266649  56.4396535  76.9616600  99.0257440
  67.9923435  71.4212624  88.5005226  68.6959285  71.6262626  89.1162882
  67.2686084  71.9889386  88.7654310  68.8221246  67.1722485  94.6207496
  68.7656447  67.6291037  93.7815129  69.3749588  66.4113170  94.4430339
  72.6326052  62.9612217  95.4457616  72.3762986  62.5608853  96.2765823
  72.0078920  63.6756011  95.3207755  76.9438389  65.7008290  97.9528907
  76.3837947  65.7701480  98.7260469  76.3381893  65.5249275  97.2328403
  60.0133598  77.1345017  99.7047093  59.8965982  78.0790450  99.6025784
  59.1926044  76.8318579 100.0932893  69.9010133  71.8595153  90.5503686
  70.7355737  71.4276352  90.3681161  69.7394476  71.6877167  91.4780581
  69.5556025  68.3627266  91.9160025  69.5004829  68.1971538  90.9748469
  68.9302080  69.0703299  92.0722215  54.3448540  63.5995331 105.7421448
  54.9907403  63.0894285 106.2308673  54.1365691  64.3364012 106.3164873
  66.8701932  70.6676178 111.2413588  67.7393092  70.8416830 110.8800223
  66.3908684  71.4870595 111.1189317  62.8652150  57.8635375  91.4945344
  62.8530820  58.8077215  91.6513615  63.7575572  57.6805521  91.2004805
  61.0388112  77.7873279 102.9203022  61.9415359  77.8196889 103.2369517
  60.8125482  76.8573730 102.9349358  62.7941714  76.5404266  99.5813100
  61.8437345  76.5406127  99.4677473  63.0974200  75.7937000  99.0649135
  66.6804270  54.4578152  95.7491281  65.9136666  53.9036639  95.8947963
  67.0914975  54.5300021  96.6105432  58.6846031  60.7462948 109.8396462
  59.5477492  60.3899753 110.0499786  58.1111442  60.4076843 110.5271866
  78.5294408  82.3764804 100.6458863  79.1672818  82.2571551  99.9422203
  78.4115251  83.3245648 100.7046815  75.3384114  82.3292232 100.5820388
  75.0002626  82.2133297  99.6940922  76.2073882  81.9283397 100.5621394
  71.1970930  84.1827709  96.5717278  70.6335795  84.0917646  95.8033566
  71.0823325  83.3627613  97.0519771  75.8203897  83.4827084 106.5406593
  75.8092538  83.0879882 105.6687097  75.9824537  82.7493157 107.1340364
  68.7435362  85.6778900  99.4101499  69.5356654  85.3369725  98.9947798
  68.9832012  85.7873875 100.3303652  76.7770489  87.8498676  91.8831743
  76.1258468  88.4352757  91.4965757  77.5714851  88.3804871  91.9426781
  70.7026116  84.9387814  92.2818878  71.4756992  84.3916801  92.1431754
  71.0551515  85.8032063  92.4933339  72.5411158  86.2664196 105.4885777
  72.2501024  87.1709827 105.3732443  73.1768143  86.3080723 106.2029847
  73.4667365  83.6441044 102.0787137  74.0630937  83.4197067 101.3644100
  73.5242337  82.9025790 102.6812585  73.0392393  81.0980480  89.9137328
  73.2917914  80.5762001  89.1520791  72.1016953  80.9346625  90.0164011
  78.0835676  80.1016258  97.7212071  78.8698766  79.6835681  97.3702488
  78.3474381  81.0062350  97.8893719  78.2545754  85.5389108  92.4200728
  77.6191587  85.6123735  93.1321632  77.9243160  86.1282707  91.7419807
  83.4844103  80.0391491  98.6245049  84.2169275  79.4690708  98.8582879
  82.7283459  79.6513092  99.0651555  72.7588682  83.0008586  92.1161703
  72.6424940  82.3253489  92.7842787  72.8690942  82.5140960  91.2993856
  75.1020223  82.4618733  95.8208392  74.7378430  81.9349354  96.5321313
  75.9587339  82.0717202  95.6474877  81.0069524  73.7513065 103.0839658
  80.6752849  74.6208476 102.8600873  80.4115137  73.4349349 103.7633688
  74.7425710  77.4908632  90.8169740  74.9100112  78.3588869  91.1840211
  74.5522879  77.6535914  89.8931030  77.5001043  85.9525611 102.4835571
  77.2001766  86.8550650 102.3751378  77.1552103  85.6857794 103.3356724
  70.9513525  82.4039408  98.5172275  70.0264021  82.2715622  98.7249967
  71.1997938  83.1833627  99.0142218  80.8998187  78.4708151 100.1633008
  79.9915064  78.4023560  99.8691769  80.8485783  78.9480096 100.9914834
  74.7214931  79.9466290  91.8016407  74.6014556  80.3923341  92.6401887
  74.0267519  80.2951608  91.2429945  68.3122336  82.0472682  99.3516064
  68.4414717  82.3007161 100.2655476  67.6319787  82.6400390  99.0320719
  72.4821823  92.7169932  95.4506538  72.4045853  93.6677757  95.5295019
  71.8783467  92.3715804  96.1081465  74.9739053  79.8897797 108.1067905
  74.1972387  80.4491717 108.0970770  75.6129616  80.3754580 108.6282775
  82.7659834  76.6724590 101.9410882  82.1234214  76.9657123 101.2950677
  82.2614762  76.5577510 102.7464079  80.4199997  80.4187763  92.6296741
  81.3317853  80.6515150  92.4544439  79.9109644  81.0024807  92.0671820
  73.2285425  82.6983250 107.6685872  73.9700110  83.2368294 107.3920696
  72.5222411  83.3249539 107.8257424  78.7040765  84.8412391 106.2658034
  79.1124121  84.3994801 105.5212666  77.9818026  84.2665018 106.5192227
  75.0571835  79.7784998 103.6391591  75.9033030  80.2024411 103.7826240
  74.9970473  79.1218622 104.3330154  79.0269579  85.4013582 100.0210323
  78.3978442  85.5659296  99.3186391  78.6395242  85.8155191 100.7921287
  82.9058811  86.3368019  97.3754686  82.2209850  86.7166921  96.8251720
  82.9902661  86.9463346  98.1086634  78.2071280  77.4389366 105.2972764
  77.9632212  78.1931427 104.7607040  78.4831211  77.8174714 106.1320011
  80.1609743  83.9827978 103.9750030  80.3726638  84.6259738 103.2984411
  80.1139491  83.1490295 103.5071960  77.7635972  76.5945799 100.8786602
  76.9020451  76.8927053 101.1703340  77.7898407  76.8116198  99.9467635
  74.5797541  85.1387990  97.2860408  75.0435887  85.4175693  96.4965030
  74.3154339  84.2371434  97.1033498  71.4721622  84.6859471 100.2240171
  72.0422979  85.1146740  99.5857656  72.0629734  84.4042056 100.9224357
  73.5166427  81.2611142  94.0949973  74.2190471  81.7132186  94.5623899
  73.1847056  80.6194961  94.7229866  71.9646789  79.8522899 108.4701182
  71.3345450  80.5339179 108.7036579  71.8582877  79.7405980 107.5254321
  67.2591761  79.5194695  99.3967106  66.4690815  79.7752223  98.9207217
  67.7503009  80.3343032  99.5019147  81.2755571  86.8599934 102.1472387
  82.0973015  86.4580121 101.8655069  81.2717974  86.7568168 103.0988503
  69.2106507  79.8839274  96.3550583  68.4137670  79.9957968  96.8734079
  68.9832099  80.2225926  95.4891474  75.0412174  86.4083977 104.3033098
  75.1056607  86.8704384 105.1391270  74.3323098  85.7781342 104.4315408
  65.5429464  79.7725185 101.8282097  65.7937503  80.6572195 102.0939673
  66.0789013  79.5929787 101.0557189  89.3661564  83.2038682  98.4957359
  88.6125272  82.6346080  98.3401363  89.5009105  83.1701347  99.4427993
  74.7560192  88.0752085  94.1712078  74.6205867  88.9203620  94.5996926
  75.2970005  88.2771362  93.4078012  71.2427532  74.1543664 110.8326433
  70.8494477  73.6009863 111.5074078  72.0593672  74.4654243 111.2232951
  68.2089589  85.5927523  94.7440003  68.7214110  86.3870773  94.8945568
  68.8612302  84.8953813  94.6773605  70.0184474  88.7093279  96.8262756
  70.1951102  89.6311244  96.6383740  70.8141308  88.3951698  97.2557136
  74.1595493  75.5701544 108.4246690  74.9005206  76.1708697 108.3451152
  74.3913415  74.8279181 107.8664732  69.3036831  80.7557911 106.7024920
  69.1890346  79.8543168 107.0032019  68.4481348  81.0021608 106.3509736
  71.1415790  90.2271453 102.8273099  71.6923215  90.0988516 102.0550093
  70.3027265  90.5266342 102.4767992  78.4809906  88.9778451 106.3293821
  78.4628382  89.7987332 105.8374091  79.4029827  88.8532526 106.5543963
  74.9382961  86.4922581 107.1717330  75.4711297  85.7310869 106.9416638
  74.4097042  86.1996232 107.9141484  78.1052656  71.5982646 102.7010972
  77.7616925  72.4884288 102.6250082  78.4731618  71.4084304 101.8380557
  66.1738506  83.9216177  95.5199574  67.0113728  84.3313185  95.3033281
  66.3516774  82.9815619  95.4899768  78.0702938  81.5891258  91.2083407
  77.5549562  82.3595862  91.4471794  77.7980247  80.9156394  91.8316468
  75.6550049  76.4340958  96.2668645  74.7991646  76.0447809  96.0874284
  76.0677001  76.5132919  95.4068431  77.1849196  73.9687302 100.6660205
  76.6813992  73.9317437  99.8528010  77.4779803  74.8780044 100.7256861
  73.4292082  74.0526031  99.6726387  74.2945079  73.8568840  99.3132276
  73.4969591  73.8236383 100.5995743  83.0437212  84.3423612  93.1436580
  82.2666655  84.0034772  92.6991742  83.7228693  84.3476235  92.4691545
  77.8589241  79.4618350  93.0343188  77.5539377  79.7764499  93.8853331
  78.8119684  79.5399770  93.0770521  76.3035673  85.6208573  94.6836142
  75.7757035  84.8861333  94.3709379  75.8023176  86.3983249  94.4376110
  81.2828519  83.8157593  99.8003188  80.6252194  84.5056855  99.8883317
  82.0868919  84.2054025 100.1437175  71.0354401  76.2828239  97.0442753
  71.6098153  76.0603421  96.3115946  71.6225383  76.3516934  97.7971355
  80.0933978  82.1701966  97.8507130  80.6065860  82.8031958  98.3528840
  80.7435202  81.5703162  97.4850490  71.3623988  78.3132700  91.0638639
  70.5261300  78.6507387  91.3847913  71.2228758  78.1781680  90.1265776
  73.3377069  73.1569488  95.7717823  72.6841481  72.8418505  95.1474438
  73.2957543  72.5345229  96.4977646  74.4488274  83.4388783  87.6871115
  73.5415335  83.2078037  87.8862264  74.9459305  82.6426403  87.8745096
  77.3556352  92.1486290  90.6067801  76.6818051  92.4517987  91.2152759
  77.7422174  92.9515371  90.2573258  76.5714809  79.6451422 100.0965470
  75.6537370  79.8666369  99.9387158  76.9874953  79.7197732  99.2377178
  77.3549857  81.0442837  95.2268151  78.1021676  81.5564235  94.9175273
  77.6241446  80.7226890  96.0872544  75.6276507  83.5401378  92.2095105
  74.7187726  83.2560411  92.3067575  75.6571591  83.9600457  91.3498412
  80.8595774  87.1507968  95.9786273  80.4058101  86.3098878  96.0351463
  80.2289741  87.7869366  96.3161053  79.8028694  78.0799954  97.2086940
  79.0651451  77.5677340  97.5397183  80.0555467  77.6400335  96.3970217
  79.3028714  88.9884464  96.9136091  79.5951688  89.5489521  96.1948456
  79.8127334  89.2813025  97.6689250  79.9040321  70.8576206  97.8028709
  80.2099198  69.9973569  97.5154624  80.6292926  71.4493826  97.6027703
  66.1964677  81.2606892  96.1910307  65.9989077  80.6676253  95.4661374
  65.6411341  80.9559102  96.9086246  74.1761401  81.1529999  98.3104900
  74.2310011  80.2003835  98.2347377  73.3652603  81.3089438  98.7946199
  75.3252595  85.0810122  89.5483184  74.8872025  84.3645981  89.0888821
  76.0663036  85.3086237  88.9868275  72.1153761  79.7707058  96.0695279
  71.3021626  80.0701229  96.4760471  72.6112755  79.3762747  96.7869761
  74.2662339  89.7664815  98.0029544  74.2238518  89.9925662  97.0738076
  75.1825038  89.5328190  98.1515345  77.7127973  80.2348883 104.9010173
  78.0677360  80.4620356 105.7604639  78.3600104  80.5667260 104.2787428
  83.4425710  83.3567319  95.6059502  83.3043608  83.5468915  94.6780691
  83.0861928  84.1186702  96.0627553  71.6067836  77.3425414 101.6856514
  72.2467215  77.2014173 100.9879477  70.7745366  77.0559927 101.3095116
  83.4695089  85.4243846 100.6170774  83.9031596  85.3319135 101.4653828
  84.1826670  85.4001346  99.9790790  72.3828140  86.6427844  97.7991507
  73.1768738  86.1478165  97.5974082  71.6719832  86.1145708  97.4359212
  77.2022984  89.0245940 102.1503874  77.2560006  89.5936876 102.9181590
  76.3337765  89.1947825 101.7857911  68.6910903  80.7870926  93.8751259
  67.7608491  80.7255382  94.0921221  68.7868375  80.2646879  93.0787901
  68.6096452  77.3125739  96.4629501  68.8703269  78.2271072  96.3538661
  69.4313624  76.8450182  96.6126114  70.0821377  78.7263496 103.6328325
  70.7544431  78.5180858 102.9840974  69.2551164  78.5285582 103.1933558
  84.3310639  85.4667546 103.1503659  84.5246529  86.3713357 103.3962934
  84.2311257  85.0074966 103.9842244  75.9846949  75.3525437 105.6493986
  75.3374864  76.0515387 105.5558463  76.7547965  75.7861581 106.0170235
  76.1611084  83.1906202 103.7090806  77.0903144  83.3417362 103.5359773
  75.7402114  83.2790223 102.8539453  74.9599416  87.2156866 101.4789344
  74.8210501  86.8475651 102.3515282  74.1714012  87.7304506 101.3073302
  75.5547568  92.3165963  92.8214880  75.7299323  91.8454006  93.6360503
  74.8680356  92.9431729  93.0496141  76.5104631  86.5938469  98.8678181
  76.1754463  86.5539239  99.7635831  76.0108576  85.9283185  98.3948592
  70.4848875  82.0006099 104.3930763  70.3468673  81.2686338 104.9942302
  71.3953798  81.9114999 104.1114950  79.4463822  83.9394503  89.1415241
  78.8292993  83.2141332  89.0448294  78.9780311  84.7003864  88.7982315
  73.1131175  81.7126058 103.8814442  73.8230794  81.0719251 103.8401061
  73.0700484  81.9638953 104.8040623  71.8260109  78.6991276 105.7010082
  71.2897466  78.2482015 106.3531678  71.2376818  78.8337185 104.9580546
  70.1208653  95.4655326  99.5954740  70.3605251  96.0973850 100.2733759
  69.2777849  95.1143366  99.8820100  71.2362368  78.1579928  88.2636545
  70.3591835  78.0368729  87.8998792  71.7120121  77.3666006  88.0115434
  81.1035361  86.6132996 105.0335001  80.2162140  86.2758918 105.1561400
  81.6733912  85.8816027 105.2703767  62.7564508  82.9457087  98.3578053
  63.4435548  82.6318818  97.7699068  62.6012637  83.8498452  98.0845304
  67.5599231  77.8347284 102.7863076  67.4757419  77.2272954 102.0513486
  66.7381937  78.3256302 102.7872573  74.6336515  91.2734448 101.9996244
  74.5606686  92.0789420 102.5115549  74.1913908  91.4726414 101.1744266
  74.4226294  90.5106218  95.5099066  73.6393816  91.0527898  95.6037290
  75.1219039  91.0280198  95.9093307  77.7322944  76.3200848  98.1533271
  78.2291644  75.5670810  97.8334342  76.9609926  76.3565164  97.5876481
  85.5852702  82.0241213  99.7951563  85.5742578  82.9065929  99.4245496
  84.7170081  81.6712764  99.6006100  77.0935198  91.1721282 104.1554403
  77.8063170  91.8068747 104.0830305  76.6025227  91.2685148 103.3394405
  78.8152725  85.0772535  95.7271695  77.8809004  85.1973997  95.5576399
  78.9929394  84.1745002  95.4631705  74.3157913  78.4618231  97.8804956
  73.9455701  77.9089271  98.5685861  74.8117006  77.8576364  97.3279956
  82.2025276  80.9189854  96.2621729  82.6685729  81.7517846  96.1882032
  82.6532777  80.4534836  96.9666987  72.1447112  88.9215726 104.9759974
  72.8456571  89.5552209 105.1289368  71.6742227  89.2630457 104.2155613
  80.2701508  87.2633675  93.2607881  80.5461351  87.1490270  94.1701755
  79.4006006  86.8651160  93.2220054  80.1741939  73.2870441 100.3012630
  79.2605019  73.5174668 100.4694837  80.6035041  73.3708885 101.1526663
  79.9448398  81.4760333 102.8012524  79.2919848  81.7236240 102.1464977
  80.3228778  80.6624471 102.4675002  76.9055572  91.5120026  96.9040695
  77.0877966  90.6941682  97.3668447  77.7288558  91.7287718  96.4665585
  77.2397737  90.4388211  94.1655743  77.7685504  89.9280666  93.5525905
  77.5025957  90.1230742  95.0301276  75.9935971  82.2180144 109.2878561
  75.3176608  82.1174273 109.9580937  76.8163605  82.0619358 109.7514559
  67.7414830  88.4552081 101.9091077  68.3268267  87.7095769 102.0418981
  67.5439668  88.7656037 102.7927740  70.5953485  91.4903328  96.9253519
  69.9263860  91.9749456  96.4417559  70.4566355  91.7372548  97.8396897
  62.3332485  81.0257681 100.6295520  62.3716584  80.4921272 101.4232638
  61.8272777  80.4992886 100.0106497  74.7358754  93.5247072 103.5236177
  75.2877062  93.6878693 104.2885263  75.0764947  94.1151509 102.8516202
  69.7123247  75.8722221 104.1258062  69.7764573  76.7337052 103.7135460
  69.6490367  75.2596223 103.3930421  69.1875519  77.9445354 107.7731096
  69.8147558  77.5622431 108.3868621  68.3303438  77.7259556 108.1386789
  65.9641062  79.7521783  93.7049451  66.2594503  78.8432461  93.6516505
  65.0629098  79.7309522  93.3830453  77.8727141  91.4729047 100.5099859
  77.7478280  90.6718787 100.0010805  78.5306232  91.9675240 100.0213829
  69.4935309  77.8277780  99.6877000  68.7721895  78.4413747  99.5484473
  70.2828565  78.3635544  99.6093646  79.9362049  89.2738067 102.1379410
  78.9892385  89.1543418 102.0657736  80.2844822  88.3860565 102.2205671
  72.2961623  75.1632206 105.9617651  72.8196024  75.4094503 106.7243961
  72.0773956  75.9952241 105.5420789  67.6928904  77.4335881  93.8288776
  67.3641610  76.5533260  93.6463882  68.0468274  77.3783549  94.7165165
  76.9408483  89.0690783  98.3383762  76.7933445  88.1407491  98.5191332
  77.7661976  89.0910874  97.8540837  70.8070727  77.7208850  94.1964254
  71.1466799  78.2494772  93.4742862  71.2542847  78.0589257  94.9722820
  80.5442604  89.8919342  99.4248635  81.4689152  89.6862203  99.2873086
  80.3757908  89.6435743 100.3337976  73.5014168  76.1045901 103.6467322
  73.1610988  75.3053714 104.0488002  72.7953174  76.4047612 103.0744155
  74.1530640  73.1895214 102.0994645  74.9756709  72.7155692 101.9773535
  74.3968703  73.9685697 102.5993331  72.7938874  76.2183472  92.3957547
  73.5147237  76.5964725  91.8921264  72.1704178  76.9372349  92.4992525
  76.9369997  76.9228621  93.3315879  77.1533611  77.8053259  93.0304707
  76.4564064  76.5314834  92.6021521  71.6769218  79.8814334  99.9086624
  71.5313799  80.1954637 100.8010905  71.1994422  80.4999235  99.3557522
  73.5365601  76.8716882  99.9567513  73.5227170  75.9757976  99.6199811
  74.2538029  76.8787546 100.5905799  75.3891732  77.3054222 102.0020641
  75.1309510  78.2271293 102.0004971  74.8576772  76.9084657 102.6921105
  80.3337921  90.4105010  94.7810726  80.5074798  89.8451432  94.0284578
  80.8266812  91.2105904  94.5990216  66.1514880  82.4219679 102.8474285
  65.6068349  83.1979487 102.9794559  67.0294230  82.7690483 102.6893406
  72.9402497  75.7531262  95.2255083  73.0618408  74.8247909  95.4245971
  72.6504539  75.7669948  94.3133399  75.8093687  73.4386173  98.3621803
  75.8315384  73.5025506  97.4073783  76.2261746  72.5990682  98.5562309
  86.1877312  83.1741432  96.4001026  86.6308458  82.4248758  96.0020149
  85.3103822  83.1651569  96.0174758  81.3213093  89.7271774  91.8807624
  82.0163998  90.3478467  92.0994939  81.6636243  88.8767125  92.1560002
  66.9380902  81.5489575 105.7404442  66.1962638  81.6972210 106.3269072
  66.6173647  81.8097841 104.8771191  83.2204516  87.1771479  93.4094955
  83.7455840  87.5158752  92.6844275  83.1326869  86.2418495  93.2258090
  74.8824565  91.0905553 105.5384832  75.1911691  90.8454700 106.4107531
  75.6800047  91.2952192 105.0503702  74.9045177  93.2443463  97.7690208
  74.4650167  92.7519841  98.4623065  75.6553294  92.7016430  97.5282283
  67.3837516  89.4355004  97.7714836  68.2095536  89.1358775  97.3913480
  67.0331568  88.6662626  98.2204625  72.3519049  88.7881472  99.8412510
  71.7299058  88.1252177  99.5414738  73.0223916  88.8142604  99.1586158
  65.5846121  87.3541330  98.7303770  64.7478029  86.9263504  98.5487771
  65.5569766  87.5473773  99.6674561  72.4243577  77.2663260 109.4345016
  72.4731732  78.1425383 109.0522786  72.9666091  76.7240653 108.8616659
  83.0296297  84.6596849 106.0278882  83.0794302  84.4946857 106.9694404
  82.9210221  83.7924109 105.6376762  71.9132556  87.3385395  93.3170970
  72.0620676  88.0220860  92.6637643  72.7199000  87.3190485  93.8320426
  80.3200060  80.6427778 107.3438188  81.2209922  80.5034242 107.0522186
  80.3948034  80.8082232 108.2836366  74.6542865  78.0194632 106.1891375
  73.7846174  78.3128198 105.9173963  74.8902345  78.6035077 106.9098638
  85.7310176  84.6446671  98.7923473  86.5657068  85.0836475  98.9561034
  85.8669305  84.1685324  97.9731719  82.7801682  82.2026406 104.7400961
  83.2555804  82.3954052 103.9319812  81.8567248  82.2585591 104.4944345
  69.6685189  83.3650573  94.3232039  69.4231231  82.4612903  94.5212249
  69.8381104  83.3667723  93.3811517  77.3581899  74.2374249 103.7056795
  77.8763843  74.9735276 103.3803284  77.0037032  74.5438242 104.5403554
  68.9380837  79.0978930  91.8218201  68.2450082  79.1723285  91.1658237
  68.6932588  78.3339274  92.3439718  77.6094493  70.6574532  99.2257692
  77.8896247  69.9897721  99.8518118  78.3945100  70.8503627  98.7132355
  75.4127962  89.8333526  90.7882718  74.8401929  90.4523713  90.3353190
  75.9860755  90.3832887  91.3222640  81.4803351  79.0792166 102.9729267
  82.4320774  79.1790263 102.9941491  81.3106802  78.2870434 103.4827351
  79.5017731  76.1647749 103.1588668  78.9067663  76.4452762 102.4635156
  79.2167428  76.6541650 103.9305409  78.6325221  90.1170676  91.9191300
  79.5655895  90.0516237  92.1224176  78.5448434  90.9526943  91.4605833
  81.2613238  89.4336546  88.8795248  81.1826870  89.0996410  89.7731006
  82.0822905  89.9258314  88.8786720  83.9591429  82.2998285 102.0871566
  83.9267749  81.3614286 102.2731250  84.5692053  82.3782322 101.3537391
  75.7974760  81.1694338  88.1298770  76.7433865  81.0400546  88.1987188
  75.4189005  80.4309000  88.6068199  84.1085918  79.0909329 102.1329849
  83.5924966  78.3067785 101.9459778  84.9925866  78.7628045 102.2976369
  81.7696645  72.8350344  98.0925662  81.5721466  72.5265433  98.9768994
  82.3796350  73.5611983  98.2223592  89.7767979  83.3614292 101.2277603
  90.5071368  83.0999580 101.7885306  89.1674925  82.6243014 101.2679671
  87.8583276  81.5022155 101.8252054  87.1316440  81.3678120 101.2168546
  87.4430563  81.8098983 102.6308772  73.9817677  79.0944315  88.0653656
  73.0749133  78.7977427  88.1416369  74.2593658  78.7974133  87.1987942
  64.8995618  80.4150678  98.5152702  64.5798402  79.5615986  98.2227076
  64.3529046  80.6299256  99.2710669  68.6775525  83.1313119 102.2322208
  68.8961535  84.0630227 102.2510242  69.0901299  82.7721094 103.0177012
  75.5979743  73.6381204  94.2197897  74.7880471  73.2928289  94.5953143
  76.2864160  73.3288748  94.8085508  77.5270291  72.7159251  95.8422194
  78.0801330  73.1354705  96.5012217  77.7640378  71.7894999  95.8845150
  73.5503390  78.7046325 111.6224957  73.4500117  79.6540682 111.5537049
  73.3324933  78.3764564 110.7501028  72.7516462  75.9531250  88.2065635
  73.6135626  76.2786148  88.4661452  72.9366806  75.1662746  87.6938701
  64.7683878  84.0353590 100.4845824  64.0747349  83.6207542  99.9715778
  65.5156869  84.0774126  99.8879242  80.9049098  74.8259776  95.3500858
  80.3247767  75.4844580  94.9678910  80.6385031  74.0037121  94.9388275
  79.3552665  74.2264834  97.5522178  79.8552443  74.3381369  96.7436497
  79.9988273  73.9225887  98.1922987  73.4134661  82.1343464 110.4390019
  72.9301742  82.9343824 110.6453908  73.4995600  82.1451409 109.4857463
  66.6820620  83.9671843  98.3611838  66.6591308  84.0659531  97.4093722
  66.9921257  84.8136994  98.6829005  69.3407998  86.0247998 102.4758453
  70.2951252  85.9931941 102.4088384  69.1420522  85.5638622 103.2908679
  69.9307380  84.5949115 105.0429251  70.7500269  85.0893193 105.0664088
  70.2044188  83.6781083 105.0146818  79.6873976  76.9859867  94.4057206
  78.7999831  77.2709517  94.1877401  80.1027965  76.8253630  93.5584483
  83.0388512  77.0106388  98.1211545  83.8148903  77.5002840  98.3936162
  82.3136647  77.4364442  98.5783415  85.4761071  77.7234007  99.1785486
  86.0705562  77.4829743  98.4678794  85.5487655  77.0041138  99.8059022
  67.6958227  91.5667618  99.4928651  67.5612695  90.8068019  98.9266649
  67.2790289  92.2908518  99.0257440  78.8317190  86.7504541  88.5005226
  79.5353040  86.9554544  89.1162882  78.1079839  87.3181303  88.7654310
  79.6615000  82.5014403  94.6207496  79.6050201  82.9582954  93.7815129
  80.2143343  81.7405087  94.4430339  83.4719806  78.2904135  95.4457616
  83.2156740  77.8900770  96.2765823  82.8472674  79.0047929  95.3207755
  87.7832144  81.0300208  97.9528907  87.2231702  81.0993397  98.7260469
  87.1775647  80.8541193  97.2328403  70.8527353  92.4636935  99.7047093
  70.7359737  93.4082367  99.6025784  70.0319799  92.1610497 100.0932893
  80.7403887  87.1887071  90.5503686  81.5749491  86.7568269  90.3681161
  80.5788230  87.0169084  91.4780581  80.3949779  83.6919184  91.9160025
  80.3398583  83.5263455  90.9748469  79.7695835  84.3995217  92.0722215
  65.1842294  78.9287248 105.7421448  65.8301158  78.4186202 106.2308673
  64.9759445  79.6655930 106.3164873  73.7045905  73.1927293  91.4945344
  73.6924575  74.1369133  91.6513615  74.5969327  73.0097438  91.2004805
  71.8781867  93.1165197 102.9203022  72.7809114  93.1488807 103.2369517
  71.6519237  92.1865648 102.9349358  73.6335469  91.8696183  99.5813100
  72.6831100  91.8698045  99.4677473  73.9367955  91.1228918  99.0649135
  77.5198024  69.7870070  95.7491281  76.7530420  69.2328556  95.8947963
  77.9308729  69.8591938  96.6105432  69.5239785  76.0754865 109.8396462
  70.3871247  75.7191670 110.0499786  68.9505196  75.7368760 110.5271866
  82.0364684  99.5119626  96.5717278  81.4729549  99.4209563  95.8033566
  81.9217079  98.6919531  97.0519771  87.6164243 103.1790594  91.8831743
  86.9652223 103.7644674  91.4965757  88.4108606 103.7096789  91.9426781
  81.5419870 100.2679731  92.2818878  82.3150746  99.7208718  92.1431754
  81.8945269 101.1323981  92.4933339  83.8786148  96.4272397  89.9137328
  84.1311669  95.9053919  89.1520791  82.9410707  96.2638543  90.0164011
  88.9229431  95.4308176  97.7212071  89.7092520  95.0127599  97.3702488
  89.1868135  96.3354268  97.8893719  89.0939508 100.8681026  92.4200728
  88.4585341 100.9415652  93.1321632  88.7636915 101.4574625  91.7419807
  83.5982437  98.3300503  92.1161703  83.4818695  97.6545407  92.7842787
  83.7084697  97.8432877  91.2993856  85.9413978  97.7910650  95.8208392
  85.5772185  97.2641271  96.5321313  86.7981094  97.4009119  95.6474877
  85.5819465  92.8200550  90.8169740  85.7493867  93.6880786  91.1840211
  85.3916634  92.9827832  89.8931030  81.7907279  97.7331326  98.5172275
  80.8657776  97.6007540  98.7249967  82.0391692  98.5125545  99.0142218
  85.5608686  95.2758208  91.8016407  85.4408311  95.7215258  92.6401887
  84.8661274  95.6243525  91.2429945  79.1516090  97.3764599  99.3516064
  79.2808471  97.6299078 100.2655476  78.4713542  97.9692307  99.0320719
  91.2593752  95.7479681  92.6296741  92.1711608  95.9807067  92.4544439
  90.7503399  96.3316725  92.0671820  88.6029726  91.9237717 100.8786602
  87.7414205  92.2218970 101.1703340  88.6292161  92.1408116  99.9467635
  85.4191296 100.4679907  97.2860408  85.8829641 100.7467610  96.4965030
  85.1548094  99.5663352  97.1033498  84.3560182  96.5903060  94.0949973
  85.0584225  97.0424103  94.5623899  84.0240810  95.9486879  94.7229866
  78.0985516  94.8486612  99.3967106  77.3084570  95.1044141  98.9207217
  78.5896763  95.6634950  99.5019147  80.0500261  95.2131192  96.3550583
  79.2531425  95.3249886  96.8734079  79.8225853  95.5517844  95.4891474
  76.3823219  95.1017103 101.8282097  76.6331257  95.9864113 102.0939673
  76.9182767  94.9221704 101.0557189  85.5953947 103.4044002  94.1712078
  85.4599621 104.2495538  94.5996926  86.1363759 103.6063280  93.4078012
  79.0483344 100.9219440  94.7440003  79.5607864 101.7162691  94.8945568
  79.7006057 100.2245731  94.6773605  88.9446410  86.9274564 102.7010972
  88.6010679  87.8176206 102.6250082  89.3125373  86.7376222 101.8380557
  77.0132261  99.2508095  95.5199574  77.8507483  99.6605103  95.3033281
  77.1910528  98.3107537  95.4899768  88.9096693  96.9183175  91.2083407
  88.3943316  97.6887780  91.4471794  88.6374001  96.2448311  91.8316468
  86.4943804  91.7632876  96.2668645  85.6385400  91.3739726  96.0874284
  86.9070756  91.8424837  95.4068431  88.0242950  89.2979219 100.6660205
  87.5207746  89.2609354  99.8528010  88.3173557  90.2071962 100.7256861
  84.2685836  89.3817949  99.6726387  85.1338833  89.1860758  99.3132276
  84.3363345  89.1528301 100.5995743  93.8830967  99.6715530  93.1436580
  93.1060410  99.3326689  92.6991742  94.5622448  99.6768153  92.4691545
  88.6982996  94.7910267  93.0343188  88.3933132  95.1056417  93.8853331
  89.6513438  94.8691687  93.0770521  87.1429428 100.9500491  94.6836142
  86.6150789 100.2153250  94.3709379  86.6416931 101.7275167  94.4376110
  81.8748155  91.6120157  97.0442753  82.4491907  91.3895338  96.3115946
  82.4619138  91.6808851  97.7971355  82.2017743  93.6424618  91.0638639
  81.3655055  93.9799305  91.3847913  82.0622512  93.5073598  90.1265776
  84.1770823  88.4861406  95.7717823  83.5235235  88.1710423  95.1474438
  84.1351297  87.8637146  96.4977646  85.2882028  98.7680701  87.6871115
  84.3809090  98.5369954  87.8862264  85.7853060  97.9718320  87.8745096
  88.1950107 107.4778208  90.6067801  87.5211806 107.7809905  91.2152759
  88.5815929 108.2807288  90.2573258  88.1943611  96.3734755  95.2268151
  88.9415430  96.8856152  94.9175273  88.4635201  96.0518808  96.0872544
  86.4670261  98.8693296  92.2095105  85.5581481  98.5852329  92.3067575
  86.4965345  99.2892374  91.3498412  90.6422448  93.4091871  97.2086940
  89.9045205  92.8969258  97.5397183  90.8949222  92.9692253  96.3970217
  90.7434076  86.1868123  97.8028709  91.0492953  85.3265487  97.5154624
  91.4686681  86.7785744  97.6027703  77.0358432  96.5898810  96.1910307
  76.8382832  95.9968171  95.4661374  76.4805096  96.2851020  96.9086246
  85.0155155  96.4821916  98.3104900  85.0703765  95.5295753  98.2347377
  84.2046358  96.6381355  98.7946199  86.1646349 100.4102039  89.5483184
  85.7265779  99.6937898  89.0888821  86.9056790 100.6378154  88.9868275
  82.9547515  95.0998976  96.0695279  82.1415381  95.3993147  96.4760471
  83.4506510  94.7054665  96.7869761  82.4461590  92.6717332 101.6856514
  83.0860969  92.5306091 100.9879477  81.6139121  92.3851845 101.3095116
  79.5304658  96.1162844  93.8751259  78.6002246  96.0547299  94.0921221
  79.6262130  95.5938797  93.0787901  79.4490207  92.6417657  96.4629501
  79.7097024  93.5562990  96.3538661  80.2707379  92.1742099  96.6126114
  90.2857577  99.2686421  89.1415241  89.6686747  98.5433249  89.0448294
  89.8174065 100.0295781  88.7982315  82.0756123  93.4871845  88.2636545
  81.1985589  93.3660646  87.8998792  82.5513876  92.6957924  88.0115434
  73.5958263  98.2749005  98.3578053  74.2829303  97.9610735  97.7699068
  73.4406392  99.1790370  98.0845304  78.3992985  93.1639202 102.7863076
  78.3151174  92.5564871 102.0513486  77.5775691  93.6548220 102.7872573
  88.5716699  91.6492765  98.1533271  89.0685398  90.8962728  97.8334342
  87.8003680  91.6857082  97.5876481  85.1551668  93.7910148  97.8804956
  84.7849455  93.2381189  98.5685861  85.6510760  93.1868282  97.3279956
  91.0135694  88.6162359 100.3012630  90.0998774  88.8466586 100.4694837
  91.4428795  88.7000803 101.1526663  73.1726239  96.3549599 100.6295520
  73.2110339  95.8213189 101.4232638  72.6666532  95.8284804 100.0106497
  80.5517001  91.2014139 104.1258062  80.6158328  92.0628970 103.7135460
  80.4884122  90.5888141 103.3930421  76.8034817  95.0813701  93.7049451
  77.0988258  94.1724379  93.6516505  75.9022852  95.0601440  93.3830453
  80.3329064  93.1569697  99.6877000  79.6115649  93.7705665  99.5484473
  81.1222319  93.6927462  99.6093646  78.5322658  92.7627798  93.8288776
  78.2035364  91.8825177  93.6463882  78.8862029  92.7075467  94.7165165
  81.6464481  93.0500768  94.1964254  81.9860554  93.5786689  93.4742862
  82.0936602  93.3881174  94.9722820  84.9924394  88.5187131 102.0994645
  85.8150463  88.0447609 101.9773535  85.2362458  89.2977615 102.5993331
  83.6332628  91.5475390  92.3957547  84.3540991  91.9256642  91.8921264
  83.0097933  92.2664267  92.4992525  87.7763751  92.2520539  93.3315879
  87.9927366  93.1345177  93.0304707  87.2957819  91.8606752  92.6021521
  82.5162973  95.2106252  99.9086624  82.3707553  95.5246555 100.8010905
  82.0388176  95.8291152  99.3557522  84.3759356  92.2008800  99.9567513
  84.3620924  91.3049893  99.6199811  85.0931784  92.2079464 100.5905799
  83.7796252  91.0823180  95.2255083  83.9012163  90.1539826  95.4245971
  83.4898294  91.0961866  94.3133399  86.6487442  88.7678091  98.3621803
  86.6709139  88.8317424  97.4073783  87.0655501  87.9282599  98.5562309
  78.2231270 104.7646921  97.7714836  79.0489290 104.4650693  97.3913480
  77.8725322 103.9954544  98.2204625  76.4239876 102.6833248  98.7303770
  75.5871784 102.2555422  98.5487771  76.3963521 102.8765691  99.6674561
  82.7526311 102.6677313  93.3170970  82.9014431 103.3512777  92.6637643
  83.5592754 102.6482403  93.8320426  80.5078944  98.6942490  94.3232039
  80.2624985  97.7904820  94.5212249  80.6774858  98.6959641  93.3811517
  79.7774591  94.4270848  91.8218201  79.0843836  94.5015203  91.1658237
  79.5326343  93.6631192  92.3439718  88.4488248  85.9866449  99.2257692
  88.7290001  85.3189638  99.8518118  89.2338854  86.1795545  98.7132355
  86.2521716 105.1625443  90.7882718  85.6795683 105.7815630  90.3353190
  86.8254510 105.7124805  91.3222640  89.4718976 105.4462593  91.9191300
  90.4049649 105.3808155  92.1224176  89.3842189 106.2818860  91.4605833
  92.1006993 104.7628464  88.8795248  92.0220624 104.4288327  89.7731006
  92.9216659 105.2550232  88.8786720  86.6368515  96.4986256  88.1298770
  87.5827619  96.3692464  88.1987188  86.2582760  95.7600918  88.6068199
  92.6090399  88.1642262  98.0925662  92.4115220  87.8557350  98.9768994
  93.2190105  88.8903901  98.2223592  84.8211432  94.4236232  88.0653656
  83.9142887  94.1269345  88.1416369  85.0987413  94.1266051  87.1987942
  75.7389372  95.7442596  98.5152702  75.4192156  94.8907904  98.2227076
  75.1922800  95.9591174  99.2710669  86.4373497  88.9673122  94.2197897
  85.6274226  88.6220207  94.5953143  87.1257914  88.6580666  94.8085508
  88.3664046  88.0451169  95.8422194  88.9195084  88.4646622  96.5012217
  88.6034132  87.1186917  95.8845150  83.5910216  91.2823168  88.2065635
  84.4529380  91.6078066  88.4661452  83.7760560  90.4954664  87.6938701
  75.6077632  99.3645507 100.4845824  74.9141104  98.9499460  99.9715778
  76.3550623  99.4066044  99.8879242  91.7442853  90.1551694  95.3500858
  91.1641522  90.8136498  94.9678910  91.4778785  89.3329039  94.9388275
  90.1946419  89.5556752  97.5522178  90.6946198  89.6673286  96.7436497
  90.8382027  89.2517805  98.1922987  77.5214375  99.2963761  98.3611838
  77.4985063  99.3951448  97.4093722  77.8315011 100.1428912  98.6829005
  90.5267731  92.3151785  94.4057206  89.6393586  92.6001435  94.1877401
  90.9421720  92.1545548  93.5584483  89.6710944 102.0796459  88.5005226
  90.3746794 102.2846462  89.1162882  88.9473593 102.6473221  88.7654310
  90.5008755  97.8306320  94.6207496  90.4443956  98.2874872  93.7815129
  91.0537097  97.0697005  94.4430339  94.3113560  93.6196052  95.4457616
  94.0550495  93.2192688  96.2765823  93.6866429  94.3339846  95.3207755
  91.5797642 102.5178988  90.5503686  92.4143246 102.0860187  90.3681161
  91.4181985 102.3461002  91.4780581  91.2343534  99.0211102  91.9160025
  91.1792338  98.8555373  90.9748469  90.6089589  99.7287135  92.0722215
  84.5439659  88.5219211  91.4945344  84.5318329  89.4661051  91.6513615
  85.4363081  88.3389356  91.2004805  88.3591779  85.1161987  95.7491281
  87.5924175  84.5620474  95.8947963  88.7702484  85.1883856  96.6105432
  92.9149877 108.8163763  88.2636545  92.0379344 108.6952564  87.8998792
  93.3907630 108.0249841  88.0115434  94.4303971 106.6115085  88.2065635
  95.2923135 106.9369984  88.4661452  94.6154315 105.8246581  87.6938701
  27.8395913  -0.1277839  83.2962585  27.2760778  -0.2187903  82.5278873
  27.7248308  -0.9477935  83.7765078  33.4195472   3.5393128  78.6077050
  32.7683452   4.1247209  78.2211064  34.2139835   4.0699323  78.6672087
  27.3451099   0.6282265  79.0064184  28.1181975   0.0811252  78.8677060
  27.6976498   1.4926515  79.2178646  34.7260660  -4.2089290  84.4457377
  35.5123749  -4.6269867  84.0947795  34.9899364  -3.3043198  84.6139026
  34.8970737   1.2283560  79.1446034  34.2616570   1.3018187  79.8566939
  34.5668143   1.8177159  78.4665114  40.1269087  -4.2714057  85.3490356
  40.8594259  -4.8414840  85.5828185  39.3708442  -4.6592456  85.7896862
  29.4013666  -1.3096963  78.8407009  29.2849924  -1.9852059  79.5088094
  29.5115925  -1.7964589  78.0239162  31.7445206  -1.8486815  82.5453698
  31.3803414  -2.3756194  83.2566620  32.6012322  -2.2388346  82.3720184
  29.1246806   8.4064384  82.1751845  29.0470836   9.3572209  82.2540326
  28.5208450   8.0610256  82.8326771  37.0624980  -3.8917785  79.3542048
  37.9742837  -3.6590398  79.1789745  36.5534628  -3.3080741  78.7917126
  35.6694563   1.0908033  86.7455629  35.0403425   1.2553748  86.0431697
  35.2820225   1.5049643  87.5166593  39.5483795   2.0262471  84.0999993
  38.8634833   2.4061373  83.5497026  39.6327644   2.6357798  84.8331941
  31.2222525   0.8282441  84.0105714  31.6860870   1.1070144  83.2210337
  30.9579323  -0.0734114  83.8278805  37.9180554   2.5494386  88.8717694
  38.7397998   2.1474573  88.5900376  37.9142957   2.4462620  89.8233810
  46.0086547  -1.1066866  85.2202665  45.2550256  -1.6759468  85.0646670
  46.1434088  -1.1404201  86.1673300  31.3985175   3.7646536  80.8957385
  31.2630850   4.6098072  81.3242233  31.9394988   3.9665814  80.1323319
  24.8514573   1.2821975  81.4685310  25.3639093   2.0765225  81.6190875
  25.5037286   0.5848265  81.4018911  26.6609457   4.3987731  83.5508063
  26.8376086   5.3205695  83.3629047  27.4566291   4.0846150  83.9802443
  34.7127922  -2.7214291  77.9328713  34.1974545  -1.9509686  78.1717101
  34.4405230  -3.3949154  78.5561775  39.6862196   0.0318064  79.8681887
  38.9091639  -0.3070776  79.4237049  40.3653677   0.0370687  79.1936852
  34.5014225  -4.8487198  79.7588495  34.1964360  -4.5341049  80.6098638
  35.4544667  -4.7705779  79.8015827  32.9460657   1.3103025  81.4081448
  32.4182018   0.5755784  81.0954686  32.4448159   2.0877701  81.1621417
  37.9253503  -0.4947955  86.5248495  37.2677177   0.1951307  86.6128623
  38.7293902  -0.1051523  86.8682481  36.7358961  -2.1403582  84.5752437
  37.2490843  -1.5073590  85.0774146  37.3860185  -2.7402386  84.2095797
  31.0913257  -0.8716765  74.4116422  30.1840319  -1.1027511  74.6107570
  31.5884289  -1.6679146  74.5990403  33.9981336   7.8380742  77.3313108
  33.3243034   8.1412439  77.9398066  34.3847158   8.6409823  76.9818565
  33.9974840  -3.2662711  81.9513457  34.7446659  -2.7541313  81.6420579
  34.2666430  -3.5878658  82.8117851  32.2701490  -0.7704170  78.9340412
  31.3612710  -1.0545137  79.0312881  32.2996574  -0.3505091  78.0743718
  37.5020758   2.8402420  82.7031579  37.0483085   1.9993329  82.7596770
  36.8714724   3.4763818  83.0406359  35.9453697   4.6778916  83.6381397
  36.2376671   5.2383973  82.9193763  36.4552317   4.9707477  84.3934556
  31.9677578   0.7704574  76.2728490  31.5297008   0.0540433  75.8134128
  32.7088019   0.9980689  75.7113582  30.9087322   5.4559267  84.7274851
  30.8663501   5.6820114  83.7983383  31.8250021   5.2222642  84.8760652
  40.0850693  -0.9538229  82.3304809  39.9468591  -0.7636633  81.4025998
  39.7286912  -0.1918846  82.7872860  40.1120072   1.1138298  87.3416080
  40.5456579   1.0213587  88.1899134  40.8251653   1.0895798  86.7036096
  29.0253123   2.3322296  84.5236813  29.8193721   1.8372616  84.3219388
  28.3144815   1.8040159  84.1604519  33.8447967   4.7140392  88.8749181
  33.8984990   5.2831328  89.6426897  32.9762749   4.8842277  88.5103218
  32.1972551   8.0060415  79.5460187  32.3724307   7.5348458  80.3605810
  31.5105339   8.6326181  79.7741448  33.1529614   2.2832921  85.5923488
  32.8179447   2.2433691  86.4881138  32.6533560   1.6177637  85.1193898
  36.0888806  -0.3711045  75.8660548  35.4717976  -1.0964217  75.7693600
  35.6205294   0.3898316  75.5227622  26.7633636  11.1549778  86.3200047
  27.0030234  11.7868302  86.9979066  25.9202833  10.8037818  86.6065406
  31.2761498   6.9628900  88.7241551  31.2031669   7.7683871  89.2360856
  30.8338891   7.1620866  87.8989572  31.0651278   6.2000670  82.2344373
  30.2818800   6.7422350  82.3282597  31.7644023   6.7174650  82.6338614
  42.2277685  -2.2864335  86.5196869  42.2167561  -1.4039620  86.1490803
  41.3595065  -2.6392784  86.3251407  35.4577708   0.7666987  82.4517001
  34.5233987   0.8868449  82.2821706  35.6354377  -0.1360547  82.1877011
  38.8450260  -3.3915694  82.9867035  39.3110712  -2.5587702  82.9127338
  39.2957760  -3.8570712  83.6912294  36.9126491   2.9528127  79.9853188
  37.1886335   2.8384722  80.8947062  36.0430990   2.5545612  79.9465361
  33.5480555   7.2014478  83.6286001  33.7302949   6.3836134  84.0913753
  34.3713541   7.4182170  83.1910891  33.8822720   6.1282663  80.8901050
  34.4110487   5.6175118  80.2771212  34.1450940   5.8125193  81.7546583
  27.2378468   7.1797780  83.6498826  26.5688844   7.6643908  83.1662866
  27.0991338   7.4267000  84.5642204  31.3783737   9.2141523  90.2481484
  31.9302045   9.3773145  91.0130569  31.7189930   9.8045961  89.5761509
  34.5152124   7.1623499  87.2345166  34.3903264   6.3613239  86.7256112
  35.1731215   7.6569692  86.7459136  36.5787033   4.9632519  88.8624716
  35.6317368   4.8437870  88.7903043  36.9269806   4.0755017  88.9450978
  33.5833466   4.7585235  85.0629068  33.4358428   3.8301943  85.2436638
  34.4086959   4.7805326  84.5786144  37.1867588   5.5813794  86.1493941
  38.1114135   5.3756655  86.0118392  37.0182891   5.3330195  87.0583283
  36.9762904   6.0999461  81.5056033  37.1499781   5.5345884  80.7529885
  37.4691795   6.9000356  81.3235523  42.8302295  -1.1364116  83.1246332
  43.2733441  -1.8856790  82.7265456  41.9528805  -1.1453979  82.7420064
  37.9638076   5.4166226  78.6052931  38.6588981   6.0372919  78.8240246
  38.3061227   4.5661577  78.8805309  39.8629500   2.8665931  80.1340262
  40.3880824   3.2053204  79.4089582  39.7751852   1.9312947  79.9503396
  31.5470160   8.9337915  84.4935515  31.1075151   8.4414293  85.1868372
  32.2978277   8.3910882  84.2527590  24.0262499   5.1249455  84.4960143
  24.8520519   4.8253227  84.1158786  23.6756551   4.3557078  84.9449932
  28.9944032   4.4775924  86.5657817  28.3724042   3.8146629  86.2660044
  29.6648899   4.5037056  85.8831464  28.5557539   3.0279847  80.0416277
  28.7045660   3.7115311  79.3882950  29.3623983   3.0084937  80.5565733
  42.3735160   0.3341123  85.5168780  43.2082051   0.7730927  85.6806340
  42.5094289  -0.1420224  84.6977026  32.0552945   5.5227978  77.5128024
  31.4826912   6.1418165  77.0598496  32.6285739   6.0727339  78.0467946
  35.2750205   5.8065128  78.6436607  36.2080878   5.7410689  78.8469482
  35.1873417   6.6421394  78.1851139  37.9038221   5.1230998  75.6040554
  37.8251853   4.7890862  76.4976312  38.7247888   5.6152766  75.6032027
  32.4399743  -3.1411210  74.8544077  33.3858848  -3.2705002  74.9232495
  32.0613988  -3.8796548  75.3313505  46.4192962  -0.9491256  87.9522910
  47.1496351  -1.2105968  88.5130613  45.8099908  -1.6862534  87.9924978
  44.5008259  -2.8083393  88.5497361  43.7741423  -2.9427428  87.9413853
  44.0855546  -2.5006565  89.3554079  36.3298960  -7.3245681  81.1302513
  35.4424815  -7.0396031  80.9122707  36.7452949  -7.4851918  80.2829790
  24.3383210   7.2562070  86.2173957  24.2037678   6.4962471  85.6511955
  23.9215272   7.9802970  85.7502746  35.4742173   2.4398993  75.2250533
  36.1778023   2.6448996  75.8408188  34.7504822   3.0075755  75.4899616
  36.3039983  -1.8091145  81.3452803  36.2475185  -1.3522594  80.5060435
  36.8568326  -2.5700461  81.1675646  40.1144789  -6.0201413  82.1702922
  39.8581724  -6.4204778  83.0011130  39.4897657  -5.3057620  82.0453061
  44.4257127  -3.2805340  84.6774214  43.8656685  -3.2112151  85.4505776
  43.8200631  -3.4564356  83.9573710  27.4952336   8.1531387  86.4292400
  27.3784720   9.0976819  86.3271090  26.6744782   7.8504948  86.8178199
  37.3828871   2.8781523  77.2748993  38.2174474   2.4462721  77.0926467
  37.2213213   2.7063536  78.2025887  37.0374763  -0.6186364  78.6405332
  36.9823566  -0.7842093  77.6993776  36.4120818   0.0889669  78.7967522
  30.2760452   7.5590635  86.3058407  29.3256083   7.5592497  86.1922779
  30.5792938   6.8123370  85.7894442  46.0113146  13.3951174  87.3704169
  46.6491556  13.2757921  86.6667510  45.8933988  14.3432018  87.4292122
  42.8202852  13.3478602  87.3065694  42.4821363  13.2319667  86.4186229
  43.6892620  12.9469767  87.2866700  38.6789668  15.2014078  83.2962585
  38.1154533  15.1104015  82.5278873  38.5642063  14.3813983  83.7765078
  43.3022635  14.5013454  93.2651900  43.2911276  14.1066252  92.3932403
  43.4643274  13.7679526  93.8585671  36.2254100  16.6965270  86.1346806
  37.0175391  16.3556094  85.7193105  36.4650750  16.8060245  87.0548959
  44.2589226  18.8685046  78.6077050  43.6077206  19.4539126  78.2211064
  45.0533589  19.3991241  78.6672087  38.1844853  15.9574183  79.0064184
  38.9575729  15.4103170  78.8677060  38.5370252  16.8218432  79.2178646
  40.0229896  17.2850565  92.2131084  39.7319762  18.1896196  92.0977750
  40.6586880  17.3267093  92.9275153  40.9486103  14.6627414  88.8032443
  41.5449675  14.4383436  88.0889406  41.0061074  13.9212159  89.4057891
  40.5211131  12.1166849  76.6382634  40.7736652  11.5948370  75.8766097
  39.5835690  11.9532995  76.7409318  45.5654414  11.1202628  84.4457377
  46.3517503  10.7022051  84.0947795  45.8293118  12.0248720  84.6139026
  45.7364491  16.5575478  79.1446034  45.1010324  16.6310104  79.8566939
  45.4061898  17.1469077  78.4665114  50.9662841  11.0577861  85.3490356
  51.6988013  10.4877078  85.5828185  50.2102197  10.6699461  85.7896862
  40.2407420  14.0194955  78.8407009  40.1243678  13.3439859  79.5088094
  40.3509680  13.5327329  78.0239162  42.5838961  13.4805102  82.5453698
  42.2197168  12.9535723  83.2566620  43.4406077  13.0903571  82.3720184
  48.4888262   4.7699435  89.8084965  48.1571586   5.6394846  89.5846180
  47.8933875   4.4535719  90.4878995  42.2244448   8.5095002  77.5415047
  42.3918850   9.3775238  77.9085518  42.0341617   8.6722284  76.6176336
  44.9819781  16.9711981  89.2080877  44.6820504  17.8737020  89.0996685
  44.6370841  16.7044164  90.0602030  38.4332263  13.4225778  85.2417582
  37.5082759  13.2901992  85.4495274  38.6816676  14.2019997  85.7387524
  48.3816925   9.4894521  86.8878315  47.4733802   9.4209929  86.5937076
  48.3304521   9.9666466  87.7160140  42.2033669  10.9652659  78.5261714
  42.0833294  11.4109710  79.3647194  41.5086257  11.3137977  77.9675252
  35.7941074  13.0659051  86.0761371  35.9233455  13.3193530  86.9900783
  35.1138525  13.6586759  85.7566026  39.9640561  23.7356301  82.1751845
  39.8864591  24.6864126  82.2540326  39.3602204  23.3902174  82.8326771
  42.4557791  10.9084167  94.8313212  41.6791125  11.4678087  94.8216077
  43.0948354  11.3940950  95.3528082  50.2478571   7.6910959  88.6656189
  49.6052952   7.9843493  88.0195983  49.7433500   7.5763880  89.4709385
  47.9018735  11.4374133  79.3542048  48.8136591  11.6701519  79.1789745
  47.3928382  12.0211177  78.7917126  40.7104163  13.7169620  94.3931179
  41.4518847  14.2554664  94.1166003  40.0041148  14.3435909  94.5502731
  46.1859503  15.8598760  92.9903340  46.5942859  15.4181171  92.2457973
  45.4636764  15.2851388  93.2437533  42.5390573  10.7971367  90.3636897
  43.3851768  11.2210781  90.5071546  42.4789210  10.1404992  91.0575460
  46.5088317  16.4199951  86.7455629  45.8797180  16.5845665  86.0431697
  46.1213979  16.8341561  87.5166593  50.3877549  17.3554389  84.0999993
  49.7028587  17.7353290  83.5497026  50.4721398  17.9649716  84.8331941
  45.6890018   8.4575736  92.0218071  45.4450950   9.2117796  91.4852347
  45.9649949   8.8361083  92.8565318  47.6428481  15.0014348  90.6995337
  47.8545376  15.6446108  90.0229718  47.5958229  14.1676665  90.2317267
  45.2454710   7.6132169  87.6031909  44.3839189   7.9113422  87.8948646
  45.2717144   7.8302567  86.6712941  42.0616279  16.1574359  84.0105714
  42.5254625  16.4362062  83.2210337  41.7973077  15.2557804  83.8278805
  38.9540360  15.7045841  86.9485478  39.5241717  16.1333109  86.3102962
  39.5448472  15.4228425  87.6469663  40.9985165  12.2797512  80.8195280
  41.7009209  12.7318555  81.2869206  40.6665794  11.6381330  81.4475173
  39.4465527  10.8709268  95.1946489  38.8164187  11.5525549  95.4281886
  39.3401615  10.7592350  94.2499627  34.7410499  10.5381064  86.1212413
  33.9509553  10.7938593  85.6452524  35.2321747  11.3529402  86.2264454
  48.7574309  17.8786303  88.8717694  49.5791752  17.4766491  88.5900376
  48.7536712  17.7754538  89.8233810  36.6925245  10.9025643  83.0795890
  35.8956408  11.0144338  83.5979385  36.4650837  11.2412296  82.2136780
  42.5230912  17.4270347  91.0278404  42.5875345  17.8890754  91.8636576
  41.8141836  16.7967712  91.1560714  33.0248202  10.7911555  88.5527404
  33.2756241  11.6758565  88.8184980  33.5607751  10.6116156  87.7802496
  56.8480302  14.2225052  85.2202665  56.0944010  13.6532450  85.0646670
  56.9827843  14.1887716  86.1673300  42.2378930  19.0938454  80.8957385
  42.1024605  19.9389990  81.3242233  42.7788742  19.2957732  80.1323319
  35.6908327  16.6113892  81.4685310  36.2032848  17.4057142  81.6190875
  36.3431040  15.9140183  81.4018911  37.5003212  19.7279648  83.5508063
  37.6769840  20.6497613  83.3629047  38.2960045  19.4138068  83.9802443
  36.7855568  11.7744280  93.4270226  36.6709084  10.8729538  93.7277325
  35.9300086  12.0207977  93.0755043  43.8647406  19.7162021  95.0257727
  43.4211260  18.9298399  94.7078631  44.5264620  19.9041171  94.3601618
  38.6234527  21.2457822  89.5518405  39.1741952  21.1174886  88.7795399
  37.7846003  21.5452711  89.2013298  45.9628644  19.9964821  93.0539128
  45.9447120  20.8173702  92.5619397  46.8848564  19.8718896  93.2789269
  42.4201698  17.5108950  93.8962636  42.9530035  16.7497238  93.6661944
  41.8915780  17.2182602  94.6386791  45.5871393   2.6169016  89.4256278
  45.2435663   3.5070658  89.3495389  45.9550356   2.4270674  88.5625863
  33.6557244  14.9402546  82.2444880  34.4932466  15.3499555  82.0278588
  33.8335512  14.0001989  82.2145074  45.5521676  12.6077627  77.9328713
  45.0368300  13.3782232  78.1717101  45.2798985  11.9342763  78.5561775
  43.1368787   7.4527328  82.9913952  42.2810383   7.0634178  82.8119590
  43.5495739   7.5319289  82.1313737  44.6667934   4.9873671  87.3905511
  44.1632729   4.9503806  86.5773317  44.9598541   5.8966414  87.4502168
  40.9110820   5.0712401  86.3971693  41.7763816   4.8755210  86.0377583
  40.9788329   4.8422753  87.3241050  50.5255950  15.3609982  79.8681887
  49.7485393  15.0221141  79.4237049  51.2047431  15.3662605  79.1936852
  45.3407979  10.4804719  79.7588495  45.0358115  10.7950868  80.6098638
  46.2938421  10.5586139  79.8015827  43.7854411  16.6394943  81.4081448
  43.2575773  15.9047702  81.0954686  43.2841914  17.4169619  81.1621417
  48.7647257  14.8343963  86.5248495  48.1070932  15.5243224  86.6128623
  49.5687656  15.2240395  86.8682481  38.5173139   7.3014609  83.7688060
  39.0916891   7.0789790  83.0361253  39.1044121   7.3703303  84.5216661
  47.5752716  13.1888336  84.5752437  48.0884598  13.8218328  85.0774146
  48.2253940  12.5889531  84.2095797  38.8442726   9.3319070  77.7883945
  38.0080038   9.6693756  78.1093220  38.7047495   9.1968050  76.8511082
  40.8195806   4.1755858  82.4963129  40.1660219   3.8604875  81.8719744
  40.7776281   3.5531598  83.2222952  41.9307011  14.4575153  74.4116422
  41.0234073  14.2264406  74.6107570  42.4278043  13.6612772  74.5990403
  44.8375090  23.1672660  77.3313108  44.1636789  23.4704357  77.9398066
  45.2240912  23.9701740  76.9818565  44.0533547  10.6637791  86.8210777
  43.1356108  10.8852738  86.6632465  44.4693690  10.7384102  85.9622484
  44.8368595  12.0629207  81.9513457  45.5840414  12.5750604  81.6420579
  45.1060184  11.7413260  82.8117851  43.1095245  14.5587748  78.9340412
  42.2006464  14.2746781  79.0312881  43.1390329  14.9786826  78.0743718
  48.3414512  18.1694337  82.7031579  47.8876839  17.3285247  82.7596770
  47.7108479  18.8055736  83.0406359  47.2847432   9.0986323  83.9332247
  46.5470189   8.5863709  84.2642489  47.5374205   8.6586705  83.1215523
  46.7847451  20.0070834  83.6381397  47.0770426  20.5675891  82.9193763
  47.2946072  20.2999395  84.3934556  47.3859059   1.8762575  84.5274016
  47.6917936   1.0159939  84.2399931  48.1111664   2.4680195  84.3273010
  33.6783415  12.2793262  82.9155614  33.4807815  11.6862623  82.1906680
  33.1230079  11.9745472  83.6331553  41.6580139  12.1716368  85.0350207
  41.7128749  11.2190205  84.9592684  40.8471341  12.3275807  85.5191505
  42.8071333  16.0996491  76.2728490  42.3690762  15.3832350  75.8134128
  43.5481773  16.3272606  75.7113582  39.5972499  10.7893428  82.7940586
  38.7840364  11.0887599  83.2005778  40.0931493  10.3949117  83.5115068
  41.7481077  20.7851185  84.7274851  41.7057255  21.0112031  83.7983383
  42.6643775  20.5514560  84.8760652  45.1946710  11.2535253  91.6255480
  45.5496098  11.4806726  92.4849945  45.8418842  11.5853629  91.0032735
  50.9244447  14.3753688  82.3304809  50.7862346  14.5655284  81.4025998
  50.5680666  15.1373071  82.7872860  39.0886573   8.3611784  88.4101821
  39.7285953   8.2200543  87.7124784  38.2564104   8.0746297  88.0340423
  50.9513827  16.4430215  87.3416080  51.3850334  16.3505505  88.1899134
  51.6645408  16.4187716  86.7036096  39.8646877  17.6614214  84.5236813
  40.6587476  17.1664534  84.3219388  39.1538570  17.1332077  84.1604519
  44.6841722  20.0432310  88.8749181  44.7378744  20.6123246  89.6426897
  43.8156503  20.2134195  88.5103218  36.1729641  11.8057296  80.5996566
  35.2427229  11.7441751  80.8166528  36.2687113  11.2833248  79.8033207
  36.0915190   8.3312109  83.1874808  36.3522007   9.2457442  83.0783968
  36.9132362   7.8636551  83.3371420  37.5640115   9.7449866  90.3573632
  38.2363169   9.5367228  89.7086281  36.7369902   9.5471952  89.9178864
  51.8129377  16.4853916  89.8748966  52.0065267  17.3899727  90.1208241
  51.7129995  16.0261335  90.7087551  43.4665687   6.3711807  92.3739293
  42.8193602   7.0701756  92.2803769  44.2366703   6.8047951  92.7415541
  46.8744485  16.6360659  95.4489846  46.7229992  16.4071211  94.5319930
  46.8649165  17.5931260  95.4621191  43.6429822  14.2092572  90.4336113
  44.5721882  14.3603731  90.2605080  43.2220852  14.2976592  89.5784759
  42.4418153  18.2343236  88.2034650  42.3029239  17.8662020  89.0760588
  41.6532750  18.7490875  88.0318608  43.0366305  23.3352332  79.5460187
  43.2118061  22.8640376  80.3605810  42.3499093  23.9618099  79.7741448
  43.9923369  17.6124839  85.5923488  43.6573201  17.5725609  86.4881138
  43.4927314  16.9469555  85.1193898  37.9667612  13.0192469  91.1176069
  37.8287410  12.2872708  91.7187608  38.8772536  12.9301369  90.8360257
  46.9282560  14.9580873  75.8660548  46.3111731  14.2327701  75.7693600
  46.4599049  15.7190233  75.5227622  40.5949913  12.7312428  90.6059749
  41.3049532  12.0905620  90.5646367  40.5519221  12.9825323  91.5285930
  48.5836692  19.6679781  93.5266328  48.5249238  18.9839001  92.8596911
  48.9856210  20.4098771  93.0746954  39.3078847   9.7177646  92.4255388
  38.7716204   9.2668384  93.0776985  38.7195556   9.8523555  91.6825853
  37.6027391  26.4841695  86.3200047  37.8423989  27.1160219  86.9979066
  36.7596587  26.1329735  86.6065406  38.7181106   9.1766297  74.9881852
  37.8410572   9.0555098  74.6244099  39.1938859   8.3852376  74.7360741
  48.5854099  17.6319365  91.7580308  47.6980878  17.2945287  91.8806707
  49.1552650  16.9002397  91.9949073  30.2383246  13.9643457  85.0823359
  30.9254286  13.6505187  84.4944375  30.0831375  14.8684822  84.8090611
  35.0417968   8.8533654  89.5108383  34.9576157   8.2459323  88.7758793
  34.2200675   9.3442672  89.5117879  42.1155252  22.2920818  88.7241551
  42.0425424  23.0975789  89.2360856  41.6732646  22.4912783  87.8989572
  41.9045032  21.5292588  82.2344373  41.1212554  22.0714268  82.3282597
  42.6037777  22.0466567  82.6338614  45.2141682   7.3387217  84.8778578
  45.7110382   6.5857179  84.5579648  44.4428664   7.3751534  84.3121787
  53.0671440  13.0427583  86.5196869  53.0561316  13.9252298  86.1490803
  52.1988819  12.6899133  86.3251407  44.5753936  22.1907652  90.8799710
  45.2881908  22.8255116  90.8075611  44.0843965  22.2871518  90.0639712
  46.2971463  16.0958904  82.4517001  45.3627742  16.2160367  82.2821706
  46.4748131  15.1931371  82.1877011  41.7976651   9.4804600  84.6050263
  41.4274438   8.9275641  85.2931168  42.2935743   8.8762734  84.0525263
  49.6844014  11.9376224  82.9867035  50.1504466  12.7704215  82.9127338
  50.1351515  11.4721205  83.6912294  39.6265850  19.9402095  91.7005281
  40.3275309  20.5738578  91.8534675  39.1560965  20.2816827  90.9400920
  47.7520245  18.2820045  79.9853188  48.0280089  18.1676640  80.8947062
  46.8824744  17.8837530  79.9465361  47.6560677   4.3056811  87.0257937
  46.7423757   4.5361037  87.1940144  48.0853778   4.3895255  87.8771969
  47.4267136  12.4946703  89.5257831  46.7738586  12.7422610  88.8710284
  47.8047515  11.6810841  89.1920308  44.3874309  22.5306396  83.6286001
  44.5696704  21.7128052  84.0913753  45.2107295  22.7474088  83.1910891
  44.7216475  21.4574581  80.8901050  45.2504241  20.9467035  80.2771212
  44.9844694  21.1417111  81.7546583  43.4754709  13.2366514  96.0123868
  42.7995346  13.1360643  96.6826243  44.2982342  13.0805727  96.4759865
  35.2233568  19.4738450  88.6336383  35.8087004  18.7282138  88.7664287
  35.0258406  19.7842407  89.5173047  38.0772223  22.5089698  83.6498826
  37.4082598  22.9935825  83.1662866  37.9385093  22.7558918  84.5642204
  29.8151222  12.0444050  87.3540826  29.8535322  11.5107641  88.1477944
  29.3091515  11.5179256  86.7351804  42.2177491  24.5433441  90.2481484
  42.7695799  24.7065063  91.0130569  42.5583685  25.1337879  89.5761509
  37.1941985   6.8908591  90.8503369  37.2583311   7.7523422  90.4380766
  37.1309105   6.2782593  90.1175727  47.0688366  19.3694699  96.1030138
  47.6128270  19.9824657  95.6085093  46.4875211  19.9274277  96.6197151
  33.4459800  10.7708153  80.4294758  33.7413241   9.8618831  80.3761811
  32.5447836  10.7495892  80.1075760  45.3545879  22.4915417  87.2345166
  45.2297018  21.6905156  86.7256112  46.0124970  22.9861610  86.7459136
  36.9754047   8.8464149  86.4122306  36.2540633   9.4600117  86.2729780
  37.7647303   9.3821914  86.3338952  47.4180787  20.2924437  88.8624716
  46.4711123  20.1729788  88.7903043  47.7663560  19.4046935  88.9450978
  35.1747642   8.4522250  80.5534083  34.8460348   7.5719629  80.3709189
  35.5287012   8.3969919  81.4410472  44.4227220  20.0877153  85.0629068
  44.2752183  19.1593860  85.2436638  45.2480714  20.1097244  84.5786144
  38.2889465   8.7395220  80.9209561  38.6285537   9.2681141  80.1988169
  38.7361585   9.0775626  81.6968127  48.0261342  20.9105712  86.1493941
  48.9507890  20.7048573  86.0118392  47.8576646  20.6622113  87.0583283
  40.9832905   7.1232271  90.3712629  40.6429726   6.3240084  90.7733308
  40.2771912   7.4233982  89.7989462  41.6349377   4.2081583  88.8239952
  42.4575447   3.7342061  88.7018842  41.8787441   4.9872067  89.3238638
  40.2757612   7.2369842  79.1202853  40.9965974   7.6151094  78.6166570
  39.6522916   7.9558718  79.2237831  44.4188735   7.9414991  80.0561186
  44.6352349   8.8239628  79.7550014  43.9382802   7.5501204  79.3266828
  39.1587956  10.9000704  86.6331930  39.0132537  11.2141007  87.5256212
  38.6813160  11.5185604  86.0802829  41.0184339   7.8903252  86.6812820
  41.0045908   6.9944345  86.3445118  41.7356767   7.8973916  87.3151106
  42.8710470   8.3240592  88.7265947  42.6128247   9.2457663  88.7250278
  42.3395510   7.9271027  89.4166411  47.8156658  21.4291379  81.5056033
  47.9893536  20.8637802  80.7529885  48.3085550  22.2292274  81.3235523
  33.6333618  13.4406048  89.5719591  33.0887086  14.2165856  89.7039866
  34.5112968  13.7876853  89.4138713  40.4221235   6.7717632  81.9500390
  40.5437146   5.8434278  82.1491277  40.1323277   6.7856318  81.0378705
  43.2912425   4.4572542  85.0867110  43.3134122   4.5211876  84.1319089
  43.7080484   3.6177051  85.2807616  53.6696050  14.1927802  83.1246332
  54.1127196  13.4435127  82.7265456  52.7922560  14.1837938  82.7420064
  48.8031831  20.7458144  78.6052931  49.4982736  21.3664836  78.8240246
  49.1454981  19.8953495  78.8805309  34.4199640  12.5675944  92.4649748
  33.6781376  12.7158580  93.0514379  34.0992384  12.8284210  91.6016498
  50.7023254  18.1957849  80.1340262  51.2274578  18.5345122  79.4089582
  50.6145607  17.2604864  79.9503396  42.3643303  22.1091923  92.2630138
  42.6730429  21.8641069  93.1352838  43.1618785  22.3138561  91.7749009
  42.3863915  24.2629832  84.4935515  41.9468905  23.7706211  85.1868372
  43.1372032  23.7202800  84.2527590  34.8656254  20.4541373  84.4960143
  35.6914274  20.1545145  84.1158786  34.5150306  19.6848996  84.9449932
  39.8337787  19.8067841  86.5657817  39.2117796  19.1438546  86.2660044
  40.5042654  19.8328973  85.8831464  33.0664859  18.3727700  85.4549077
  32.2296767  17.9449874  85.2733078  33.0388504  18.5660143  86.3919868
  50.3917160  18.8290753  95.4391460  49.6012704  18.8114892  94.8995959
  50.1550515  19.3679046  96.1940496  50.5115035  15.6783219  92.7524188
  50.5613040  15.5133226  93.6939711  50.4028958  14.8110478  92.3622069
  39.3951294  18.3571765  80.0416277  39.5439414  19.0407229  79.3882950
  40.2017737  18.3376855  80.5565733  47.8018798  11.6614147  94.0683495
  48.7028660  11.5220612  93.7767493  47.8766772  11.8268602  95.0081672
  42.1361603   9.0381002  92.9136681  41.2664912   9.3314568  92.6419270
  42.3721083   9.6221447  93.6343945  52.0133232  18.0980161  92.9966210
  51.7218040  18.4610141  93.8329671  51.4005363  17.3847169  92.8179542
  53.2128914  15.6633040  85.5168780  54.0475806  16.1022844  85.6806340
  53.3488043  15.1871694  84.6977026  50.2620420  13.2212775  91.4646268
  50.7374542  13.4140422  90.6565119  49.3385986  13.2771961  91.2189651
  37.1503927  14.3836942  81.0477346  36.9049969  13.4799272  81.2457556
  37.3199841  14.3854093  80.1056824  44.8400637   5.2560619  90.4302102
  45.3582581   5.9921646  90.1048590  44.4855769   5.5624612  91.2648861
  36.4199574  10.1165300  78.5463507  35.7268819  10.1909655  77.8903543
  36.1751326   9.3525644  79.0685024  45.0913231   1.6760901  85.9502998
  45.3714985   1.0084090  86.5763425  45.8763838   1.8689997  85.4377662
  42.8946699  20.8519895  77.5128024  42.3220666  21.4710082  77.0598496
  43.4679493  21.4019257  78.0467946  48.9622089  10.0978535  89.6974573
  49.9139512  10.1976633  89.7186797  48.7925540   9.3056804  90.2072658
  46.9836469   7.1834118  89.8833974  46.3886401   7.4639131  89.1880463
  46.6986165   7.6728019  90.6550715  46.1143959  21.1357045  78.6436607
  47.0474632  21.0702607  78.8469482  46.0267172  21.9713312  78.1851139
  48.7431976  20.4522916  75.6040554  48.6645607  20.1182779  76.4976312
  49.5641643  20.9444684  75.6032027  51.4410167  13.3184655  88.8116873
  51.4086487  12.3800656  88.9976557  52.0510791  13.3968692  88.0782698
  43.2793498  12.1880708  74.8544077  44.2252603  12.0586916  74.9232495
  42.9007743  11.4495370  75.3313505  51.5904655  10.1095698  88.8575156
  51.0743704   9.3254155  88.6705085  52.4744604   9.7814415  89.0221676
  49.2515382   3.8536714  84.8170969  49.0540204   3.5451802  85.7014301
  49.8615088   4.5798353  84.9468899  57.2586717  14.3800662  87.9522910
  57.9890105  14.1185950  88.5130613  56.6493662  13.6429384  87.9924978
  55.3402014  12.5208524  88.5497361  54.6135178  12.3864489  87.9413853
  54.9249301  12.8285353  89.3554079  43.1632190  16.2398454  96.3144734
  44.0835200  16.4177053  96.5084780  43.1281773  15.2954499  96.1624433
  41.4636415  10.1130684  74.7898962  40.5567870   9.8163797  74.8661676
  41.7412396   9.8160502  73.9233248  32.3814355  11.4337048  85.2398009
  32.0617140  10.5802356  84.9472383  31.8347784  11.6485626  85.9955976
  36.1594263  14.1499489  88.9567515  36.3780273  15.0816597  88.9755549
  36.5720037  13.7907463  89.7422319  43.0798481   4.6567574  80.9443204
  42.2699209   4.3114659  81.3198450  43.7682898   4.3475118  81.5330815
  45.0089029   3.7345621  82.5667500  45.5620068   4.1541074  83.2257523
  45.2459115   2.8081369  82.6090456  40.2335200   6.9717620  74.9310941
  41.0954364   7.2972518  75.1906759  40.4185544   6.1849115  74.4184007
  32.2502615  15.0539959  87.2091130  31.5566087  14.6393912  86.6961085
  32.9975606  15.0960496  86.6124549  48.3867836   5.8446146  82.0746164
  47.8066505   6.5030950  81.6924217  48.1203769   5.0223491  81.6633582
  46.8371402   5.2451204  84.2767485  47.3371181   5.3567738  83.4681804
  47.4807010   4.9412257  84.9168293  40.8953398  13.1529833  97.1635326
  40.4120480  13.9530193  97.3699215  40.9814337  13.1637778  96.2102770
  34.1639358  14.9858213  85.0857145  34.1410046  15.0845900  84.1339028
  34.4739994  15.8323364  85.4074311  36.8226736  17.0434368  89.2003759
  37.7769989  17.0118310  89.1333691  36.6239259  16.5824992  90.0153985
  37.4126118  15.6135484  91.7674557  38.2319007  16.1079563  91.7909394
  37.6862926  14.6967452  91.7392125  47.1692714   8.0046236  81.1302513
  46.2818569   8.2895887  80.9122707  47.5846703   7.8440000  80.2829790
  50.5207250   8.0292757  84.8456852  51.2967640   8.5189210  85.1181469
  49.7955384   8.4550812  85.3028721  52.9579809   8.7420377  85.9030793
  53.5524300   8.5016113  85.1924101  53.0306393   8.0227507  86.5304329
  35.1776965  22.5853988  86.2173957  35.0431433  21.8254388  85.6511955
  34.7609027  23.3094887  85.7502746  46.3135928  17.7690911  75.2250533
  47.0171778  17.9740914  75.8408188  45.5898576  18.3367673  75.4899616
  47.1433738  13.5200772  81.3452803  47.0868939  13.9769324  80.5060435
  47.6962080  12.7591457  81.1675646  50.9538544   9.3090504  82.1702922
  50.6975478   8.9087140  83.0011130  50.3291412  10.0234298  82.0453061
  55.2650882  12.0486577  84.6774214  54.7050440  12.1179767  85.4505776
  54.6594385  11.8727562  83.9573710  38.3346090  23.4823305  86.4292400
  38.2178475  24.4268737  86.3271090  37.5138537  23.1796866  86.8178199
  48.2222625  18.2073440  77.2748993  49.0568229  17.7754639  77.0926467
  48.0606968  18.0355454  78.2025887  47.8768517  14.7105554  78.6405332
  47.8217321  14.5449825  77.6993776  47.2514572  15.4181586  78.7967522
  45.1914424  17.0154465  97.9658895  46.0605584  17.1895118  97.6045530
  44.7121176  17.8348882  97.8434624  41.1864643   4.2113663  78.2190650
  41.1743312   5.1555502  78.3758921  42.0788065   4.0283808  77.9250112
  39.3600605  24.1351566  89.6448328  40.2627851  24.1675177  89.9614823
  39.1337975  23.2052017  89.6594664  41.1154207  22.8882553  86.3058407
  40.1649838  22.8884415  86.1922779  41.4186693  22.1415288  85.7894442
  45.0016762   0.8056439  82.4736587  44.2349158   0.2514926  82.6193270
  45.4127467   0.8778308  83.3350739  56.8506900  28.7243091  87.3704169
  57.4885310  28.6049839  86.6667510  56.7327743  29.6723935  87.4292122
  53.6596606  28.6770519  87.3065694  53.3215118  28.5611584  86.4186229
  54.5286375  28.2761685  87.2866700  49.5183422  30.5305996  83.2962585
  48.9548287  30.4395933  82.5278873  49.4035817  29.7105900  83.7765078
  54.1416389  29.8305371  93.2651900  54.1305030  29.4358169  92.3932403
  54.3037029  29.0971444  93.8585671  47.0647854  32.0257187  86.1346806
  47.8569146  31.6848012  85.7193105  47.3044504  32.1352163  87.0548959
  55.0982981  34.1976964  78.6077050  54.4470961  34.7831044  78.2211064
  55.8927344  34.7283159  78.6672087  49.0238608  31.2866101  79.0064184
  49.7969484  30.7395088  78.8677060  49.3764007  32.1510350  79.2178646
  50.8623651  32.6142483  92.2131084  50.5713516  33.5188114  92.0977750
  51.4980635  32.6559011  92.9275153  51.7879857  29.9919332  88.8032443
  52.3843430  29.7675354  88.0889406  51.8454829  29.2504077  89.4057891
  51.3604886  27.4458767  76.6382634  51.6130406  26.9240288  75.8766097
  50.4229445  27.2824912  76.7409318  56.4048169  26.4494545  84.4457377
  57.1911258  26.0313968  84.0947795  56.6686873  27.3540637  84.6139026
  56.5758246  31.8867396  79.1446034  55.9404079  31.9602022  79.8566939
  56.2455652  32.4760994  78.4665114  61.8056596  26.3869778  85.3490356
  62.5381768  25.8168995  85.5828185  61.0495951  25.9991379  85.7896862
  51.0801175  29.3486873  78.8407009  50.9637433  28.6731776  79.5088094
  51.1903434  28.8619247  78.0239162  53.4232715  28.8097020  82.5453698
  53.0590923  28.2827641  83.2566620  54.2799831  28.4195489  82.3720184
  59.3282016  20.0991353  89.8084965  58.9965341  20.9686764  89.5846180
  58.7327629  19.7827637  90.4878995  53.0638202  23.8386920  77.5415047
  53.2312605  24.7067156  77.9085518  52.8735371  24.0014201  76.6176336
  55.8213536  32.3003899  89.2080877  55.5214259  33.2028937  89.0996685
  55.4764595  32.0336082  90.0602030  49.2726017  28.7517695  85.2417582
  48.3476514  28.6193909  85.4495274  49.5210430  29.5311915  85.7387524
  59.2210679  24.8186439  86.8878315  58.3127557  24.7501847  86.5937076
  59.1698275  25.2958384  87.7160140  53.0427423  26.2944577  78.5261714
  52.9227048  26.7401628  79.3647194  52.3480012  26.6429895  77.9675252
  46.6334828  28.3950969  86.0761371  46.7627209  28.6485448  86.9900783
  45.9532279  28.9878677  85.7566026  50.8034315  39.0648219  82.1751845
  50.7258345  40.0156044  82.2540326  50.1995959  38.7194091  82.8326771
  53.2951545  26.2376084  94.8313212  52.5184879  26.7970004  94.8216077
  53.9342108  26.7232867  95.3528082  61.0872326  23.0202877  88.6656189
  60.4446706  23.3135410  88.0195983  60.5827254  22.9055797  89.4709385
  58.7412489  26.7666050  79.3542048  59.6530346  26.9993437  79.1789745
  58.2322137  27.3503095  78.7917126  51.5497917  29.0461538  94.3931179
  52.2912602  29.5846582  94.1166003  50.8434903  29.6727826  94.5502731
  57.0253257  31.1890678  92.9903340  57.4336613  30.7473089  92.2457973
  56.3030519  30.6143306  93.2437533  53.3784327  26.1263285  90.3636897
  54.2245522  26.5502698  90.5071546  53.3182965  25.4696909  91.0575460
  57.3482072  31.7491869  86.7455629  56.7190934  31.9137583  86.0431697
  56.9607734  32.1633478  87.5166593  61.2271304  32.6846307  84.0999993
  60.5422342  33.0645208  83.5497026  61.3115153  33.2941633  84.8331941
  56.5283772  23.7867653  92.0218071  56.2844704  24.5409714  91.4852347
  56.8043703  24.1653001  92.8565318  58.4822235  30.3306266  90.6995337
  58.6939130  30.9738026  90.0229718  58.4351984  29.4968582  90.2317267
  56.0848464  22.9424086  87.6031909  55.2232943  23.2405340  87.8948646
  56.1110899  23.1594485  86.6712941  52.9010034  31.4866277  84.0105714
  53.3648379  31.7653980  83.2210337  52.6366832  30.5849721  83.8278805
  49.7934115  31.0337758  86.9485478  50.3635472  31.4625027  86.3102962
  50.3842227  30.7520343  87.6469663  51.8378920  27.6089429  80.8195280
  52.5402963  28.0610473  81.2869206  51.5059548  26.9673248  81.4475173
  50.2859281  26.2001186  95.1946489  49.6557942  26.8817467  95.4281886
  50.1795369  26.0884267  94.2499627  45.5804254  25.8672982  86.1212413
  44.7903308  26.1230510  85.6452524  46.0715501  26.6821320  86.2264454
  59.5968063  33.2078221  88.8717694  60.4185507  32.8058408  88.5900376
  59.5930466  33.1046455  89.8233810  47.5318999  26.2317561  83.0795890
  46.7350162  26.3436255  83.5979385  47.3044591  26.5704213  82.2136780
  53.3624667  32.7562264  91.0278404  53.4269099  33.2182672  91.8636576
  52.6535591  32.1259629  91.1560714  43.8641957  26.1203472  88.5527404
  44.1149995  27.0050482  88.8184980  44.4001505  25.9408074  87.7802496
  67.6874056  29.5516970  85.2202665  66.9337765  28.9824368  85.0646670
  67.8221597  29.5179634  86.1673300  53.0772684  34.4230372  80.8957385
  52.9418359  35.2681908  81.3242233  53.6182497  34.6249649  80.1323319
  49.5640024  20.5021952  97.5571740  49.1706970  19.9488150  98.2319384
  50.3806164  20.8132530  97.9478258  46.5302082  31.9405810  81.4685310
  47.0426602  32.7349060  81.6190875  47.1824795  31.2432100  81.4018911
  48.3396966  35.0571566  83.5508063  48.5163595  35.9789531  83.3629047
  49.1353800  34.7429985  83.9802443  52.4807985  21.9179831  95.1491997
  53.2217698  22.5186984  95.0696459  52.7125908  21.1757469  94.5910039
  47.6249323  27.1036198  93.4270226  47.5102838  26.2021455  93.7277325
  46.7693841  27.3499895  93.0755043  54.7041161  35.0453938  95.0257727
  54.2605015  34.2590317  94.7078631  55.3658374  35.2333089  94.3601618
  49.4628282  36.5749740  89.5518405  50.0135707  36.4466803  88.7795399
  48.6239758  36.8744629  89.2013298  56.8022399  35.3256738  93.0539128
  56.7840874  36.1465619  92.5619397  57.7242319  35.2010813  93.2789269
  53.2595453  32.8400868  93.8962636  53.7923790  32.0789156  93.6661944
  52.7309534  32.5474520  94.6386791  56.4265148  17.9460934  89.4256278
  56.0829417  18.8362575  89.3495389  56.7944110  17.7562591  88.5625863
  44.4950998  30.2694464  82.2444880  45.3326220  30.6791473  82.0278588
  44.6729266  29.3293906  82.2145074  56.3915431  27.9369545  77.9328713
  55.8762054  28.7074149  78.1717101  56.1192739  27.2634681  78.5561775
  53.9762542  22.7819246  82.9913952  53.1204138  22.3926096  82.8119590
  54.3889493  22.8611206  82.1313737  55.5061688  20.3165589  87.3905511
  55.0026484  20.2795724  86.5773317  55.7992295  21.2258332  87.4502168
  51.7504574  20.4004319  86.3971693  52.6157571  20.2047127  86.0377583
  51.8182083  20.1714670  87.3241050  61.3649705  30.6901899  79.8681887
  60.5879147  30.3513059  79.4237049  62.0441186  30.6954523  79.1936852
  56.1801734  25.8096637  79.7588495  55.8751869  26.1242786  80.6098638
  57.1332176  25.8878057  79.8015827  54.6248166  31.9686860  81.4081448
  54.0969527  31.2339620  81.0954686  54.1235668  32.7461537  81.1621417
  59.6041012  30.1635881  86.5248495  58.9464686  30.8535142  86.6128623
  60.4081411  30.5532313  86.8682481  49.3566893  22.6306527  83.7688060
  49.9310645  22.4081708  83.0361253  49.9437876  22.6995221  84.5216661
  58.4146470  28.5180253  84.5752437  58.9278352  29.1510245  85.0774146
  59.0647694  27.9181449  84.2095797  49.6836480  24.6610988  77.7883945
  48.8473793  24.9985674  78.1093220  49.5441250  24.5259967  76.8511082
  51.6589561  19.5047775  82.4963129  51.0053973  19.1896793  81.8719744
  51.6170035  18.8823516  83.2222952  52.7700766  29.7867071  74.4116422
  51.8627828  29.5556324  74.6107570  53.2671798  28.9904690  74.5990403
  55.6768845  38.4964578  77.3313108  55.0030543  38.7996274  77.9398066
  56.0634667  39.2993658  76.9818565  54.8927301  25.9929709  86.8210777
  53.9749863  26.2144656  86.6632465  55.3087445  26.0676019  85.9622484
  55.6762349  27.3921125  81.9513457  56.4234168  27.9042522  81.6420579
  55.9453939  27.0705177  82.8117851  53.9488999  29.8879665  78.9340412
  53.0400218  29.6038698  79.0312881  53.9784083  30.3078744  78.0743718
  59.1808267  33.4986255  82.7031579  58.7270594  32.6577165  82.7596770
  58.5502233  34.1347653  83.0406359  58.1241186  24.4278241  83.9332247
  57.3863943  23.9155627  84.2642489  58.3767960  23.9878623  83.1215523
  57.6241206  35.3362752  83.6381397  57.9164180  35.8967809  82.9193763
  58.1339826  35.6291313  84.3934556  58.2252814  17.2054493  84.5274016
  58.5311690  16.3451856  84.2399931  58.9505418  17.7972113  84.3273010
  44.5177170  27.6085179  82.9155614  44.3201569  27.0154540  82.1906680
  43.9623834  27.3037390  83.6331553  52.4973893  27.5008286  85.0350207
  52.5522503  26.5482122  84.9592684  51.6865095  27.6567725  85.5191505
  53.6465087  31.4288409  76.2728490  53.2084517  30.7124268  75.8134128
  54.3875528  31.6564524  75.7113582  50.4366253  26.1185346  82.7940586
  49.6234119  26.4179516  83.2005778  50.9325247  25.7241034  83.5115068
  52.5874831  36.1143103  84.7274851  52.5451010  36.3403949  83.7983383
  53.5037530  35.8806477  84.8760652  56.0340465  26.5827170  91.6255480
  56.3889853  26.8098643  92.4849945  56.6812596  26.9145547  91.0032735
  61.7638202  29.7045606  82.3304809  61.6256100  29.8947202  81.4025998
  61.4074421  30.4664989  82.7872860  49.9280328  23.6903701  88.4101821
  50.5679707  23.5492460  87.7124784  49.0957859  23.4038215  88.0340423
  61.7907581  31.7722133  87.3416080  62.2244088  31.6797422  88.1899134
  62.5039162  31.7479634  86.7036096  50.7040632  32.9906132  84.5236813
  51.4981230  32.4956452  84.3219388  49.9932324  32.4623995  84.1604519
  55.5235476  35.3724227  88.8749181  55.5772499  35.9415164  89.6426897
  54.6550258  35.5426112  88.5103218  47.0123395  27.1349213  80.5996566
  46.0820983  27.0733669  80.8166528  47.1080867  26.6125166  79.8033207
  46.9308944  23.6604026  83.1874808  47.1915762  24.5749359  83.0783968
  47.7526117  23.1928469  83.3371420  48.4033870  25.0741783  90.3573632
  49.0756923  24.8659146  89.7086281  47.5763656  24.8763869  89.9178864
  62.6523131  31.8145834  89.8748966  62.8459021  32.7191644  90.1208241
  62.5523749  31.3553253  90.7087551  54.3059442  21.7003724  92.3739293
  53.6587357  22.3993674  92.2803769  55.0760457  22.1339868  92.7415541
  57.7138240  31.9652576  95.4489846  57.5623746  31.7363128  94.5319930
  57.7042919  32.9223178  95.4621191  54.4823576  29.5384489  90.4336113
  55.4115636  29.6895649  90.2605080  54.0614606  29.6268510  89.5784759
  53.2811908  33.5635154  88.2034650  53.1422994  33.1953938  89.0760588
  52.4926504  34.0782793  88.0318608  53.8760060  38.6644250  79.5460187
  54.0511816  38.1932293  80.3605810  53.1892848  39.2910016  79.7741448
  54.8317123  32.9416756  85.5923488  54.4966956  32.9017526  86.4881138
  54.3321069  32.2761472  85.1193898  48.8061367  28.3484386  91.1176069
  48.6681165  27.6164625  91.7187608  49.7166290  28.2593286  90.8360257
  57.7676315  30.2872791  75.8660548  57.1505485  29.5619619  75.7693600
  57.2992803  31.0482151  75.5227622  51.4343668  28.0604346  90.6059749
  52.1443286  27.4197538  90.5646367  51.3912976  28.3117241  91.5285930
  59.4230446  34.9971699  93.5266328  59.3642992  34.3130919  92.8596911
  59.8249965  35.7390689  93.0746954  50.1472602  25.0469564  92.4255388
  49.6109959  24.5960302  93.0776985  49.5589310  25.1815472  91.6825853
  48.4421145  41.8133613  86.3200047  48.6817743  42.4452137  86.9979066
  47.5990342  41.4621653  86.6065406  49.5574861  24.5058215  74.9881852
  48.6804327  24.3847016  74.6244099  50.0332614  23.7144293  74.7360741
  59.4247854  32.9611283  91.7580308  58.5374632  32.6237205  91.8806707
  59.9946405  32.2294314  91.9949073  41.0777001  29.2935375  85.0823359
  41.7648041  28.9797105  84.4944375  40.9225129  30.1976739  84.8090611
  45.8811723  24.1825571  89.5108383  45.7969912  23.5751241  88.7758793
  45.0594429  24.6734590  89.5117879  52.9549007  37.6212735  88.7241551
  52.8819178  38.4267707  89.2360856  52.5126400  37.8204701  87.8989572
  52.7438787  36.8584505  82.2344373  51.9606308  37.4006186  82.3282597
  53.4431532  37.3758485  82.6338614  56.0535437  22.6679135  84.8778578
  56.5504136  21.9149097  84.5579648  55.2822418  22.7043451  84.3121787
  63.9065194  28.3719500  86.5196869  63.8955070  29.2544216  86.1490803
  63.0382574  28.0191051  86.3251407  55.4147690  37.5199569  90.8799710
  56.1275663  38.1547034  90.8075611  54.9237719  37.6163435  90.0639712
  57.1365217  31.4250822  82.4517001  56.2021496  31.5452284  82.2821706
  57.3141886  30.5223289  82.1877011  52.6370405  24.8096518  84.6050263
  52.2668193  24.2567558  85.2931168  53.1329498  24.2054651  84.0525263
  60.5237769  27.2668141  82.9867035  60.9898221  28.0996133  82.9127338
  60.9745269  26.8013123  83.6912294  50.4659604  35.2694013  91.7005281
  51.1669064  35.9030496  91.8534675  49.9954719  35.6108744  90.9400920
  58.5914000  33.6111963  79.9853188  58.8673844  33.4968557  80.8947062
  57.7218499  33.2129447  79.9465361  58.4954431  19.6348728  87.0257937
  57.5817511  19.8652955  87.1940144  58.9247533  19.7187172  87.8771969
  58.2660890  27.8238620  89.5257831  57.6132340  28.0714528  88.8710284
  58.6441270  27.0102758  89.1920308  55.2268064  37.8598313  83.6286001
  55.4090458  37.0419969  84.0913753  56.0501050  38.0766006  83.1910891
  55.5610229  36.7866499  80.8901050  56.0897996  36.2758953  80.2771212
  55.8238449  36.4709029  81.7546583  54.3148463  28.5658431  96.0123868
  53.6389100  28.4652561  96.6826243  55.1376097  28.4097645  96.4759865
  46.0627322  34.8030368  88.6336383  46.6480759  34.0574056  88.7664287
  45.8652161  35.1134325  89.5173047  48.9165977  37.8381615  83.6498826
  48.2476353  38.3227743  83.1662866  48.7778847  38.0850836  84.5642204
  40.6544977  27.3735968  87.3540826  40.6929076  26.8399559  88.1477944
  40.1485270  26.8471174  86.7351804  53.0571246  39.8725359  90.2481484
  53.6089554  40.0356980  91.0130569  53.3977439  40.4629797  89.5761509
  48.0335739  22.2200509  90.8503369  48.0977066  23.0815339  90.4380766
  47.9702859  21.6074510  90.1175727  47.5088012  24.2923641  94.4976403
  48.1360050  23.9100718  95.1113927  46.6515931  24.0737843  94.8632095
  57.9082120  34.6986616  96.1030138  58.4522024  35.3116575  95.6085093
  57.3268965  35.2566195  96.6197151  44.2853554  26.1000070  80.4294758
  44.5806995  25.1910749  80.3761811  43.3841590  26.0787810  80.1075760
  56.1939633  37.8207334  87.2345166  56.0690773  37.0197074  86.7256112
  56.8518724  38.3153528  86.7459136  47.8147801  24.1756067  86.4122306
  47.0934387  24.7892035  86.2729780  48.6041057  24.7113832  86.3338952
  58.2574542  35.6216354  88.8624716  57.3104877  35.5021706  88.7903043
  58.6057315  34.7338852  88.9450978  50.6174115  21.5110493  92.6862958
  51.1408517  21.7572790  93.4489267  50.3986448  22.3430528  92.2666095
  46.0141396  23.7814168  80.5534083  45.6854102  22.9011547  80.3709189
  46.3680767  23.7261837  81.4410472  55.2620975  35.4169071  85.0629068
  55.1145937  34.4885778  85.2436638  56.0874468  35.4389161  84.5786144
  49.1283219  24.0687138  80.9209561  49.4679292  24.5973059  80.1988169
  49.5755340  24.4067544  81.6968127  58.8655097  36.2397629  86.1493941
  59.7901644  36.0340491  86.0118392  58.6970400  35.9914030  87.0583283
  51.8226660  22.4524188  90.3712629  51.4823480  21.6532001  90.7733308
  51.1165666  22.7525899  89.7989462  52.4743132  19.5373501  88.8239952
  53.2969201  19.0633979  88.7018842  52.7181195  20.3163985  89.3238638
  51.1151366  22.5661759  79.1202853  51.8359729  22.9443012  78.6166570
  50.4916670  23.2850636  79.2237831  55.2582489  23.2706908  80.0561186
  55.4746104  24.1531546  79.7550014  54.7776556  22.8793122  79.3266828
  49.9981711  26.2292621  86.6331930  49.8526291  26.5432925  87.5256212
  49.5206914  26.8477522  86.0802829  51.8578093  23.2195169  86.6812820
  51.8439662  22.3236263  86.3445118  52.5750522  23.2265833  87.3151106
  53.7104224  23.6532510  88.7265947  53.4522002  24.5749580  88.7250278
  53.1789265  23.2562944  89.4166411  58.6550413  36.7583297  81.5056033
  58.8287290  36.1929719  80.7529885  59.1479304  37.5584192  81.3235523
  44.4727373  28.7697966  89.5719591  43.9280841  29.5457774  89.7039866
  45.3506723  29.1168770  89.4138713  51.2614989  22.1009550  81.9500390
  51.3830901  21.1726196  82.1491277  50.9717032  22.1148236  81.0378705
  54.1306180  19.7864460  85.0867110  54.1527877  19.8503793  84.1319089
  54.5474239  18.9468969  85.2807616  64.5089804  29.5219720  83.1246332
  64.9520950  28.7727045  82.7265456  63.6316314  29.5129856  82.7420064
  59.6425585  36.0750061  78.6052931  60.3376490  36.6956754  78.8240246
  59.9848736  35.2245412  78.8805309  45.2593395  27.8967862  92.4649748
  44.5175131  28.0450497  93.0514379  44.9386139  28.1576128  91.6016498
  61.5417009  33.5249767  80.1340262  62.0668333  33.8637039  79.4089582
  61.4539361  32.5896782  79.9503396  53.2037057  37.4383840  92.2630138
  53.5124184  37.1932987  93.1352838  54.0012539  37.6430479  91.7749009
  53.2257669  39.5921750  84.4935515  52.7862660  39.0998129  85.1868372
  53.9765786  39.0494718  84.2527590  45.7050008  35.7833291  84.4960143
  46.5308028  35.4837063  84.1158786  45.3544060  35.0140913  84.9449932
  50.6731541  35.1359759  86.5657817  50.0511551  34.4730464  86.2660044
  51.3436408  35.1620891  85.8831464  43.9058613  33.7019617  85.4549077
  43.0690522  33.2741792  85.2733078  43.8782259  33.8952061  86.3919868
  50.7456069  23.6141547  96.1590323  50.7944224  24.4903670  95.7768092
  51.2878583  23.0718940  95.5861966  61.2310915  34.1582670  95.4391460
  60.4406458  34.1406809  94.8995959  60.9944269  34.6970964  96.1940496
  61.3508790  31.0075137  92.7524188  61.4006795  30.8425144  93.6939711
  61.2422713  30.1402396  92.3622069  50.2345048  33.6863682  80.0416277
  50.3833169  34.3699147  79.3882950  51.0411492  33.6668772  80.5565733
  58.6412552  26.9906065  94.0683495  59.5422415  26.8512530  93.7767493
  58.7160527  27.1560520  95.0081672  52.9755357  24.3672920  92.9136681
  52.1058667  24.6606486  92.6419270  53.2114838  24.9513365  93.6343945
  62.8526986  33.4272078  92.9966210  62.5611795  33.7902059  93.8329671
  62.2399118  32.7139087  92.8179542  64.0522669  30.9924958  85.5168780
  64.8869560  31.4314762  85.6806340  64.1881798  30.5163611  84.6977026
  61.1014175  28.5504693  91.4646268  61.5768296  28.7432339  90.6565119
  60.1779740  28.6063879  91.2189651  47.9897681  29.7128860  81.0477346
  47.7443723  28.8091190  81.2457556  48.1593596  29.7146011  80.1056824
  55.6794391  20.5852536  90.4302102  56.1976335  21.3213563  90.1048590
  55.3249524  20.8916530  91.2648861  47.2593329  25.4457218  78.5463507
  46.5662574  25.5201573  77.8903543  47.0145081  24.6817561  79.0685024
  55.9306985  17.0052819  85.9502998  56.2108739  16.3376008  86.5763425
  56.7157592  17.1981915  85.4377662  53.7340454  36.1811813  77.5128024
  53.1614421  36.8002000  77.0598496  54.3073248  36.7311175  78.0467946
  59.8015844  25.4270453  89.6974573  60.7533267  25.5268551  89.7186797
  59.6319294  24.6348722  90.2072658  57.8230223  22.5126036  89.8833974
  57.2280155  22.7931049  89.1880463  57.5379920  23.0019937  90.6550715
  56.9537714  36.4648963  78.6436607  57.8868387  36.3994525  78.8469482
  56.8660926  37.3005230  78.1851139  59.5825730  35.7814833  75.6040554
  59.5039362  35.4474697  76.4976312  60.4035397  36.2736601  75.6032027
  62.2803921  28.6476573  88.8116873  62.2480242  27.7092573  88.9976557
  62.8904545  28.7260609  88.0782698  54.1187252  27.5172626  74.8544077
  55.0646357  27.3878834  74.9232495  53.7401497  26.7787288  75.3313505
  62.4298410  25.4387616  88.8575156  61.9137459  24.6546073  88.6705085
  63.3138358  25.1106333  89.0221676  60.0909137  19.1828632  84.8170969
  59.8933958  18.8743720  85.7014301  60.7008842  19.9090271  84.9468899
  68.0980471  29.7092579  87.9522910  68.8283860  29.4477868  88.5130613
  67.4887417  28.9721301  87.9924978  66.1795768  27.8500442  88.5497361
  65.4528932  27.7156407  87.9413853  65.7643055  28.1577271  89.3554079
  54.0025945  31.5690372  96.3144734  54.9228954  31.7468971  96.5084780
  53.9675528  30.6246417  96.1624433  52.3030170  25.4422602  74.7898962
  51.3961625  25.1455715  74.8661676  52.5806151  25.1452420  73.9233248
  43.2208110  26.7628965  85.2398009  42.9010894  25.9094274  84.9472383
  42.6741538  26.9777544  85.9955976  46.9988017  29.4791406  88.9567515
  47.2174027  30.4108514  88.9755549  47.4113791  29.1199381  89.7422319
  53.9192235  19.9859492  80.9443204  53.1092964  19.6406577  81.3198450
  54.6076652  19.6767035  81.5330815  55.8482784  19.0637539  82.5667500
  56.4013822  19.4832992  83.2257523  56.0852870  18.1373287  82.6090456
  51.8715883  25.0524612  98.3470264  51.7712610  26.0018969  98.2782355
  51.6537425  24.7242851  97.4746334  51.0728954  22.3009537  74.9310941
  51.9348118  22.6264436  75.1906759  51.2579298  21.5141033  74.4184007
  43.0896370  30.3831877  87.2091130  42.3959841  29.9685830  86.6961085
  43.8369361  30.4252413  86.6124549  59.2261591  21.1738064  82.0746164
  58.6460260  21.8322868  81.6924217  58.9597523  20.3515408  81.6633582
  57.6765157  20.5743121  84.2767485  58.1764935  20.6859656  83.4681804
  58.3200765  20.2704174  84.9168293  51.7347153  28.4821751  97.1635326
  51.2514235  29.2822111  97.3699215  51.8208092  28.4929696  96.2102770
  45.0033112  30.3150131  85.0857145  44.9803801  30.4137818  84.1339028
  45.3133749  31.1615281  85.4074311  47.6620490  32.3726286  89.2003759
  48.6163744  32.3410228  89.1333691  47.4633014  31.9116909  90.0153985
  48.2519872  30.9427402  91.7674557  49.0712761  31.4371480  91.7909394
  48.5256680  30.0259370  91.7392125  58.0086469  23.3338154  81.1302513
  57.1212324  23.6187805  80.9122707  58.4240458  23.1731917  80.2829790
  61.3601005  23.3584675  84.8456852  62.1361395  23.8481128  85.1181469
  60.6349139  23.7842729  85.3028721  63.7973563  24.0712294  85.9030793
  64.3918054  23.8308030  85.1924101  63.8700147  23.3519425  86.5304329
  46.0170719  37.9145905  86.2173957  45.8825187  37.1546306  85.6511955
  45.6002781  38.6386805  85.7502746  57.1529682  33.0982829  75.2250533
  57.8565532  33.3032831  75.8408188  56.4292331  33.6659591  75.4899616
  57.9827492  28.8492690  81.3452803  57.9262694  29.3061241  80.5060435
  58.5355835  28.0883375  81.1675646  61.7932298  24.6382422  82.1702922
  61.5369233  24.2379058  83.0011130  61.1685166  25.3526216  82.0453061
  66.1044636  27.3778495  84.6774214  65.5444194  27.4471684  85.4505776
  65.4988140  27.2019480  83.9573710  49.1739845  38.8115222  86.4292400
  49.0572229  39.7560655  86.3271090  48.3532291  38.5088784  86.8178199
  59.0616379  33.5365358  77.2748993  59.8961983  33.1046556  77.0926467
  58.9000722  33.3647372  78.2025887  58.7162272  30.0397471  78.6405332
  58.6611075  29.8741743  77.6993776  58.0908327  30.7473504  78.7967522
  43.5054787  25.2765536  92.4666754  44.1513650  24.7664490  92.9553979
  43.2971938  26.0134217  93.0410179  56.0308179  32.3446383  97.9658895
  56.8999338  32.5187035  97.6045530  55.5514930  33.1640800  97.8434624
  52.0258397  19.5405580  78.2190650  52.0137067  20.4847420  78.3758921
  52.9181819  19.3575726  77.9250112  50.1994359  39.4643484  89.6448328
  51.1021606  39.4967094  89.9614823  49.9731729  38.5343935  89.6594664
  51.9547961  38.2174471  86.3058407  51.0043592  38.2176332  86.1922779
  52.2580447  37.4707205  85.7894442  55.8410517  16.1348357  82.4736587
  55.0742912  15.5806844  82.6193270  56.2521222  16.2070226  83.3350739
  47.8452278  22.4233153  96.5641768  48.7083739  22.0669958  96.7745093
  47.2717688  22.0847048  97.2517173  67.6900655  44.0535009  87.3704169
  68.3279065  43.9341756  86.6667510  67.5721497  45.0015853  87.4292122
  64.4990361  44.0062437  87.3065694  64.1608872  43.8903502  86.4186229
  65.3680129  43.6053602  87.2866700  60.3577177  45.8597914  83.2962585
  59.7942042  45.7687851  82.5278873  60.2429572  45.0397818  83.7765078
  64.9810144  45.1597289  93.2651900  64.9698785  44.7650087  92.3932403
  65.1430783  44.4263362  93.8585671  57.9041608  47.3549105  86.1346806
  58.6962900  47.0139930  85.7193105  58.1438259  47.4644080  87.0548959
  65.9376735  49.5268881  78.6077050  65.2864715  50.1122962  78.2211064
  66.7321098  50.0575076  78.6672087  59.8632362  46.6158018  79.0064184
  60.6363238  46.0687006  78.8677060  60.2157761  47.4802268  79.2178646
  61.7017405  47.9434401  92.2131084  61.4107271  48.8480032  92.0977750
  62.3374389  47.9850928  92.9275153  62.6273612  45.3211249  88.8032443
  63.2237184  45.0967272  88.0889406  62.6848583  44.5795995  89.4057891
  62.1998640  42.7750685  76.6382634  62.4524161  42.2532206  75.8766097
  61.2623199  42.6116830  76.7409318  67.2441923  41.7786463  84.4457377
  68.0305012  41.3605886  84.0947795  67.5080627  42.6832555  84.6139026
  67.4152000  47.2159313  79.1446034  66.7797833  47.2893940  79.8566939
  67.0849407  47.8052912  78.4665114  72.6450350  41.7161696  85.3490356
  73.3775522  41.1460913  85.5828185  71.8889706  41.3283297  85.7896862
  61.9194929  44.6778791  78.8407009  61.8031187  44.0023694  79.5088094
  62.0297189  44.1911164  78.0239162  64.2626470  44.1388938  82.5453698
  63.8984677  43.6119559  83.2566620  65.1193586  43.7487407  82.3720184
  70.1675771  35.4283270  89.8084965  69.8359095  36.2978681  89.5846180
  69.5721384  35.1119554  90.4878995  63.9031957  39.1678837  77.5415047
  64.0706359  40.0359074  77.9085518  63.7129126  39.3306119  76.6176336
  66.6607290  47.6295816  89.2080877  66.3608013  48.5320855  89.0996685
  66.3158350  47.3627999  90.0602030  60.1119772  44.0809613  85.2417582
  59.1870268  43.9485827  85.4495274  60.3604185  44.8603832  85.7387524
  70.0604434  40.1478356  86.8878315  69.1521311  40.0793765  86.5937076
  70.0092030  40.6250301  87.7160140  63.8821178  41.6236495  78.5261714
  63.7620803  42.0693546  79.3647194  63.1873766  41.9721812  77.9675252
  57.4728583  43.7242887  86.0761371  57.6020964  43.9777366  86.9900783
  56.7926034  44.3170595  85.7566026  61.6428070  54.3940137  82.1751845
  61.5652100  55.3447962  82.2540326  61.0389713  54.0486009  82.8326771
  64.1345300  41.5668002  94.8313212  63.3578634  42.1261922  94.8216077
  64.7735863  42.0524785  95.3528082  71.9266080  38.3494795  88.6656189
  71.2840461  38.6427328  88.0195983  71.4221009  38.2347715  89.4709385
  69.5806244  42.0957968  79.3542048  70.4924100  42.3285355  79.1789745
  69.0715891  42.6795012  78.7917126  62.3891672  44.3753455  94.3931179
  63.1306356  44.9138499  94.1166003  61.6828657  45.0019744  94.5502731
  67.8647012  46.5182596  92.9903340  68.2730368  46.0765006  92.2457973
  67.1424273  45.9435223  93.2437533  64.2178082  41.4555203  90.3636897
  65.0639277  41.8794616  90.5071546  64.1576719  40.7988827  91.0575460
  68.1875826  47.0783786  86.7455629  67.5584689  47.2429501  86.0431697
  67.8001488  47.4925396  87.5166593  72.0665058  48.0138224  84.0999993
  71.3816096  48.3937126  83.5497026  72.1508907  48.6233551  84.8331941
  67.3677527  39.1159571  92.0218071  67.1238459  39.8701631  91.4852347
  67.6437457  39.4944919  92.8565318  69.3215990  45.6598183  90.6995337
  69.5332885  46.3029943  90.0229718  69.2745738  44.8260500  90.2317267
  66.9242219  38.2716004  87.6031909  66.0626698  38.5697258  87.8948646
  66.9504653  38.4886403  86.6712941  63.7403788  46.8158195  84.0105714
  64.2042134  47.0945898  83.2210337  63.4760586  45.9141639  83.8278805
  60.6327869  46.3629676  86.9485478  61.2029226  46.7916944  86.3102962
  61.2235981  46.0812261  87.6469663  62.6772674  42.9381347  80.8195280
  63.3796718  43.3902391  81.2869206  62.3453303  42.2965166  81.4475173
  61.1253036  41.5293104  95.1946489  60.4951696  42.2109384  95.4281886
  61.0189124  41.4176185  94.2499627  56.4198008  41.1964900  86.1212413
  55.6297062  41.4522428  85.6452524  56.9109256  42.0113237  86.2264454
  70.4361818  48.5370139  88.8717694  71.2579261  48.1350326  88.5900376
  70.4324221  48.4338373  89.8233810  58.3712754  41.5609479  83.0795890
  57.5743917  41.6728173  83.5979385  58.1438346  41.8996131  82.2136780
  64.2018421  48.0854182  91.0278404  64.2662854  48.5474589  91.8636576
  63.4929345  47.4551547  91.1560714  54.7035711  41.4495390  88.5527404
  54.9543750  42.3342400  88.8184980  55.2395260  41.2699992  87.7802496
  78.5267811  44.8808887  85.2202665  77.7731519  44.3116285  85.0646670
  78.6615352  44.8471552  86.1673300  63.9166439  49.7522290  80.8957385
  63.7812114  50.5973825  81.3242233  64.4576251  49.9541567  80.1323319
  60.4033778  35.8313869  97.5571740  60.0100724  35.2780068  98.2319384
  61.2199919  36.1424448  97.9478258  57.3695836  47.2697728  81.4685310
  57.8820357  48.0640978  81.6190875  58.0218549  46.5724018  81.4018911
  59.1790721  50.3863484  83.5508063  59.3557349  51.3081449  83.3629047
  59.9747554  50.0721903  83.9802443  63.3201739  37.2471748  95.1491997
  64.0611453  37.8478902  95.0696459  63.5519662  36.5049386  94.5910039
  58.4643077  42.4328116  93.4270226  58.3496593  41.5313373  93.7277325
  57.6087595  42.6791812  93.0755043  65.5434915  50.3745856  95.0257727
  65.0998769  49.5882235  94.7078631  66.2052129  50.5625007  94.3601618
  60.3022036  51.9041658  89.5518405  60.8529461  51.7758721  88.7795399
  59.4633512  52.2036547  89.2013298  67.6416153  50.6548656  93.0539128
  67.6234629  51.4757537  92.5619397  68.5636073  50.5302731  93.2789269
  64.0989207  48.1692785  93.8962636  64.6317544  47.4081074  93.6661944
  63.5703288  47.8766437  94.6386791  67.2658902  33.2752851  89.4256278
  66.9223172  34.1654493  89.3495389  67.6337865  33.0854509  88.5625863
  55.3344753  45.5986382  82.2444880  56.1719975  46.0083390  82.0278588
  55.5123021  44.6585824  82.2145074  67.2309185  43.2661462  77.9328713
  66.7155809  44.0366067  78.1717101  66.9586494  42.5926599  78.5561775
  64.8156296  38.1111163  82.9913952  63.9597892  37.7218014  82.8119590
  65.2283248  38.1903124  82.1313737  66.3455443  35.6457507  87.3905511
  65.8420238  35.6087642  86.5773317  66.6386050  36.5550249  87.4502168
  62.5898329  35.7296236  86.3971693  63.4551325  35.5339045  86.0377583
  62.6575838  35.5006588  87.3241050  72.2043459  46.0193817  79.8681887
  71.4272902  45.6804977  79.4237049  72.8834940  46.0246440  79.1936852
  67.0195488  41.1388555  79.7588495  66.7145624  41.4534704  80.6098638
  67.9725930  41.2169974  79.8015827  65.4641920  47.2978778  81.4081448
  64.9363282  46.5631537  81.0954686  64.9629423  48.0753454  81.1621417
  70.4434766  45.4927798  86.5248495  69.7858441  46.1827060  86.6128623
  71.2475165  45.8824230  86.8682481  60.1960648  37.9598444  83.7688060
  60.7704400  37.7373626  83.0361253  60.7831630  38.0287139  84.5216661
  69.2540225  43.8472171  84.5752437  69.7672107  44.4802163  85.0774146
  69.9041449  43.2473367  84.2095797  60.5230235  39.9902905  77.7883945
  59.6867547  40.3277592  78.1093220  60.3835004  39.8551885  76.8511082
  62.4983315  34.8339693  82.4963129  61.8447728  34.5188710  81.8719744
  62.4563790  34.2115434  83.2222952  63.6094520  45.1158988  74.4116422
  62.7021582  44.8848242  74.6107570  64.1065552  44.3196607  74.5990403
  66.5162599  53.8256495  77.3313108  65.8424298  54.1288192  77.9398066
  66.9028421  54.6285576  76.9818565  65.7321056  41.3221627  86.8210777
  64.8143617  41.5436574  86.6632465  66.1481199  41.3967937  85.9622484
  66.5156104  42.7213042  81.9513457  67.2627922  43.2334440  81.6420579
  66.7847693  42.3997095  82.8117851  64.7882754  45.2171583  78.9340412
  63.8793973  44.9330616  79.0312881  64.8177838  45.6370662  78.0743718
  70.0202021  48.8278173  82.7031579  69.5664348  47.9869082  82.7596770
  69.3895988  49.4639571  83.0406359  68.9634941  39.7570159  83.9332247
  68.2257697  39.2447545  84.2642489  69.2161714  39.3170540  83.1215523
  68.4634960  50.6654669  83.6381397  68.7557935  51.2259726  82.9193763
  68.9733581  50.9583230  84.3934556  69.0646568  32.5346411  84.5274016
  69.3705445  31.6743774  84.2399931  69.7899173  33.1264031  84.3273010
  55.3570924  42.9377097  82.9155614  55.1595324  42.3446458  82.1906680
  54.8017588  42.6329307  83.6331553  63.3367648  42.8300204  85.0350207
  63.3916258  41.8774040  84.9592684  62.5258850  42.9859643  85.5191505
  64.4858842  46.7580327  76.2728490  64.0478271  46.0416186  75.8134128
  65.2269282  46.9856442  75.7113582  61.2760008  41.4477263  82.7940586
  60.4627873  41.7471434  83.2005778  61.7719002  41.0532952  83.5115068
  63.4268586  51.4435020  84.7274851  63.3844764  51.6695867  83.7983383
  64.3431284  51.2098395  84.8760652  66.8734219  41.9119088  91.6255480
  67.2283607  42.1390561  92.4849945  67.5206351  42.2437465  91.0032735
  72.6031956  45.0337524  82.3304809  72.4649855  45.2239120  81.4025998
  72.2468175  45.7956907  82.7872860  60.7674082  39.0195619  88.4101821
  61.4073462  38.8784378  87.7124784  59.9351613  38.7330132  88.0340423
  72.6301336  47.1014051  87.3416080  73.0637843  47.0089340  88.1899134
  73.3432917  47.0771551  86.7036096  61.5434386  48.3198049  84.5236813
  62.3374985  47.8248369  84.3219388  60.8326079  47.7915912  84.1604519
  66.3629231  50.7016145  88.8749181  66.4166253  51.2707081  89.6426897
  65.4944012  50.8718030  88.5103218  57.8517150  42.4641131  80.5996566
  56.9214738  42.4025587  80.8166528  57.9474622  41.9417084  79.8033207
  57.7702699  38.9895944  83.1874808  58.0309516  39.9041277  83.0783968
  58.5919871  38.5220386  83.3371420  59.2427624  40.4033701  90.3573632
  59.9150678  40.1951063  89.7086281  58.4157411  40.2055787  89.9178864
  73.4916885  47.1437751  89.8748966  73.6852776  48.0483562  90.1208241
  73.3917504  46.6845170  90.7087551  65.1453196  37.0295642  92.3739293
  64.4981111  37.7285592  92.2803769  65.9154212  37.4631786  92.7415541
  68.5531994  47.2944494  95.4489846  68.4017501  47.0655046  94.5319930
  68.5436674  48.2515096  95.4621191  65.3217331  44.8676407  90.4336113
  66.2509391  45.0187567  90.2605080  64.9008361  44.9560428  89.5784759
  64.1205662  48.8927071  88.2034650  63.9816748  48.5245856  89.0760588
  63.3320259  49.4074711  88.0318608  64.7153814  53.9936168  79.5460187
  64.8905570  53.5224211  80.3605810  64.0286602  54.6201934  79.7741448
  65.6710877  48.2708674  85.5923488  65.3360710  48.2309444  86.4881138
  65.1714823  47.6053390  85.1193898  59.6455121  43.6776304  91.1176069
  59.5074919  42.9456543  91.7187608  60.5560045  43.5885204  90.8360257
  68.6070069  45.6164708  75.8660548  67.9899240  44.8911537  75.7693600
  68.1386558  46.3774069  75.5227622  62.2737422  43.3896263  90.6059749
  62.9837041  42.7489456  90.5646367  62.2306730  43.6409158  91.5285930
  70.2624201  50.3263617  93.5266328  70.2036747  49.6422837  92.8596911
  70.6643719  51.0682607  93.0746954  60.9866356  40.3761481  92.4255388
  60.4503713  39.9252220  93.0776985  60.3983065  40.5107390  91.6825853
  59.2814900  57.1425531  86.3200047  59.5211498  57.7744055  86.9979066
  58.4384096  56.7913571  86.6065406  60.3968615  39.8350133  74.9881852
  59.5198081  39.7138933  74.6244099  60.8726368  39.0436211  74.7360741
  70.2641608  48.2903201  91.7580308  69.3768387  47.9529122  91.8806707
  70.8340159  47.5586232  91.9949073  51.9170755  44.6227292  85.0823359
  52.6041795  44.3089022  84.4944375  51.7618884  45.5268657  84.8090611
  56.7205477  39.5117489  89.5108383  56.6363666  38.9043159  88.7758793
  55.8988184  40.0026507  89.5117879  63.7942761  52.9504653  88.7241551
  63.7212933  53.7559624  89.2360856  63.3520155  53.1496619  87.8989572
  63.5832541  52.1876423  82.2344373  62.8000063  52.7298103  82.3282597
  64.2825286  52.7050403  82.6338614  66.8929191  37.9971052  84.8778578
  67.3897891  37.2441015  84.5579648  66.1216173  38.0335369  84.3121787
  74.7458949  43.7011418  86.5196869  74.7348825  44.5836133  86.1490803
  73.8776328  43.3482969  86.3251407  66.2541445  52.8491487  90.8799710
  66.9669417  53.4838952  90.8075611  65.7631474  52.9455353  90.0639712
  67.9758972  46.7542740  82.4517001  67.0415251  46.8744202  82.2821706
  68.1535640  45.8515206  82.1877011  63.4764160  40.1388435  84.6050263
  63.1061947  39.5859476  85.2931168  63.9723252  39.5346569  84.0525263
  71.3631523  42.5960059  82.9867035  71.8291975  43.4288051  82.9127338
  71.8139024  42.1305041  83.6912294  61.3053359  50.5985930  91.7005281
  62.0062818  51.2322413  91.8534675  60.8348474  50.9400662  90.9400920
  69.4307754  48.9403880  79.9853188  69.7067598  48.8260475  80.8947062
  68.5612253  48.5421365  79.9465361  69.3348186  34.9640646  87.0257937
  68.4211266  35.1944873  87.1940144  69.7641287  35.0479090  87.8771969
  69.1054644  43.1530538  89.5257831  68.4526095  43.4006445  88.8710284
  69.4835024  42.3394676  89.1920308  66.0661818  53.1890231  83.6286001
  66.2484213  52.3711887  84.0913753  66.8894804  53.4057923  83.1910891
  66.4003984  52.1158416  80.8901050  66.9291750  51.6050871  80.2771212
  66.6632203  51.8000946  81.7546583  65.1542218  43.8950349  96.0123868
  64.4782855  43.7944478  96.6826243  65.9769851  43.7389563  96.4759865
  56.9021077  50.1322286  88.6336383  57.4874513  49.3865973  88.7664287
  56.7045915  50.4426242  89.5173047  59.7559732  53.1673533  83.6498826
  59.0870107  53.6519661  83.1662866  59.6172601  53.4142753  84.5642204
  51.4938731  42.7027886  87.3540826  51.5322831  42.1691476  88.1477944
  50.9879024  42.1763091  86.7351804  63.8965000  55.2017276  90.2481484
  64.4483308  55.3648898  91.0130569  64.2371194  55.7921714  89.5761509
  58.8729494  37.5492426  90.8503369  58.9370820  38.4107257  90.4380766
  58.8096614  36.9366428  90.1175727  58.3481766  39.6215559  94.4976403
  58.9753805  39.2392636  95.1113927  57.4909685  39.4029761  94.8632095
  68.7475875  50.0278534  96.1030138  69.2915779  50.6408492  95.6085093
  68.1662720  50.5858112  96.6197151  55.1247309  41.4291988  80.4294758
  55.4200750  40.5202666  80.3761811  54.2235345  41.4079727  80.1075760
  67.0333388  53.1499252  87.2345166  66.9084527  52.3488992  86.7256112
  67.6912479  53.6445445  86.7459136  58.6541556  39.5047984  86.4122306
  57.9328142  40.1183952  86.2729780  59.4434812  40.0405749  86.3338952
  69.0968296  50.9508272  88.8624716  68.1498632  50.8313623  88.7903043
  69.4451069  50.0630770  88.9450978  61.4567869  36.8402411  92.6862958
  61.9802271  37.0864708  93.4489267  61.2380203  37.6722446  92.2666095
  56.8535150  39.1106086  80.5534083  56.5247857  38.2303464  80.3709189
  57.2074521  39.0553754  81.4410472  66.1014729  50.7460988  85.0629068
  65.9539692  49.8177696  85.2436638  66.9268223  50.7681079  84.5786144
  59.9676974  39.3979055  80.9209561  60.3073046  39.9264977  80.1988169
  60.4149094  39.7359461  81.6968127  69.7048851  51.5689547  86.1493941
  70.6295399  51.3632408  86.0118392  69.5364155  51.3205948  87.0583283
  62.6620414  37.7816106  90.3712629  62.3217235  36.9823919  90.7733308
  61.9559421  38.0817817  89.7989462  63.3136886  34.8665418  88.8239952
  64.1362956  34.3925897  88.7018842  63.5574950  35.6455902  89.3238638
  61.9545121  37.8953677  79.1202853  62.6753483  38.2734930  78.6166570
  61.3310425  38.6142554  79.2237831  66.0976244  38.5998826  80.0561186
  66.3139858  39.4823464  79.7550014  65.6170311  38.2085039  79.3266828
  60.8375465  41.5584539  86.6331930  60.6920046  41.8724842  87.5256212
  60.3600669  42.1769439  86.0802829  62.6971848  38.5487087  86.6812820
  62.6833417  37.6528180  86.3445118  63.4144276  38.5557751  87.3151106
  64.5497979  38.9824427  88.7265947  64.2915756  39.9041498  88.7250278
  64.0183019  38.5854862  89.4166411  69.4944167  52.0875214  81.5056033
  69.6681045  51.5221637  80.7529885  69.9873059  52.8876109  81.3235523
  55.3121127  44.0989884  89.5719591  54.7674595  44.8749692  89.7039866
  56.1900477  44.4460688  89.4138713  62.1008744  37.4301467  81.9500390
  62.2224655  36.5018114  82.1491277  61.8110786  37.4440153  81.0378705
  64.9699934  35.1156378  85.0867110  64.9921631  35.1795711  84.1319089
  65.3867993  34.2760886  85.2807616  75.3483559  44.8511637  83.1246332
  75.7914705  44.1018963  82.7265456  74.4710069  44.8421774  82.7420064
  70.4819340  51.4041979  78.6052931  71.1770245  52.0248672  78.8240246
  70.8242490  50.5537330  78.8805309  56.0987149  43.2259780  92.4649748
  55.3568885  43.3742415  93.0514379  55.7779893  43.4868045  91.6016498
  72.3810763  48.8541684  80.1340262  72.9062087  49.1928957  79.4089582
  72.2933116  47.9188700  79.9503396  64.0430812  52.7675758  92.2630138
  64.3517938  52.5224905  93.1352838  64.8406294  52.9722397  91.7749009
  64.0651424  54.9213668  84.4935515  63.6256414  54.4290046  85.1868372
  64.8159541  54.3786635  84.2527590  56.5443763  51.1125209  84.4960143
  57.3701783  50.8128980  84.1158786  56.1937815  50.3432831  84.9449932
  61.5125296  50.4651677  86.5657817  60.8905305  49.8022382  86.2660044
  62.1830163  50.4912809  85.8831464  54.7452368  49.0311535  85.4549077
  53.9084276  48.6033709  85.2733078  54.7176013  49.2243978  86.3919868
  61.5849823  38.9433465  96.1590323  61.6337979  39.8195588  95.7768092
  62.1272338  38.4010858  95.5861966  72.0704669  49.4874588  95.4391460
  71.2800213  49.4698727  94.8995959  71.8338024  50.0262882  96.1940496
  72.1902544  46.3367054  92.7524188  72.2400549  46.1717062  93.6939711
  72.0816467  45.4694313  92.3622069  61.0738803  49.0155600  80.0416277
  61.2226923  49.6991064  79.3882950  61.8805246  48.9960690  80.5565733
  69.4806307  42.3197982  94.0683495  70.3816169  42.1804447  93.7767493
  69.5554281  42.4852437  95.0081672  63.8149112  39.6964837  92.9136681
  62.9452421  39.9898403  92.6419270  64.0508592  40.2805282  93.6343945
  73.6920741  48.7563996  92.9966210  73.4005549  49.1193976  93.8329671
  73.0792872  48.0431004  92.8179542  74.8916423  46.3216876  85.5168780
  75.7263315  46.7606680  85.6806340  75.0275552  45.8455529  84.6977026
  71.9407929  43.8796611  91.4646268  72.4162051  44.0724257  90.6565119
  71.0173495  43.9355796  91.2189651  58.8291436  45.0420778  81.0477346
  58.5837478  44.1383108  81.2457556  58.9987350  45.0437928  80.1056824
  66.5188146  35.9144454  90.4302102  67.0370090  36.6505481  90.1048590
  66.1643278  36.2208447  91.2648861  58.0987083  40.7749135  78.5463507
  57.4056328  40.8493490  77.8903543  57.8538835  40.0109479  79.0685024
  66.7700740  32.3344737  85.9502998  67.0502494  31.6667926  86.5763425
  67.5551347  32.5273832  85.4377662  70.6409598  40.7562371  89.6974573
  71.5927021  40.8560468  89.7186797  70.4713049  39.9640639  90.2072658
  68.6623978  37.8417954  89.8833974  68.0673910  38.1222967  89.1880463
  68.3773674  38.3311855  90.6550715  67.7931468  51.7940881  78.6436607
  68.7262141  51.7286442  78.8469482  67.7054681  52.6297148  78.1851139
  73.1197676  43.9768490  88.8116873  73.0873996  43.0384491  88.9976557
  73.7298300  44.0552527  88.0782698  64.9581007  42.8464543  74.8544077
  65.9040112  42.7170751  74.9232495  64.5795252  42.1079205  75.3313505
  73.2692164  40.7679534  88.8575156  72.7531213  39.9837990  88.6705085
  74.1532113  40.4398250  89.0221676  70.9302891  34.5120549  84.8170969
  70.7327713  34.2035638  85.7014301  71.5402597  35.2382188  84.9468899
  78.9374226  45.0384497  87.9522910  79.6677614  44.7769785  88.5130613
  78.3281171  44.3013219  87.9924978  77.0189523  43.1792360  88.5497361
  76.2922687  43.0448325  87.9413853  76.6036810  43.4869188  89.3554079
  64.8419699  46.8982289  96.3144734  65.7622709  47.0760888  96.5084780
  64.8069282  45.9538335  96.1624433  63.1423924  40.7714520  74.7898962
  62.2355379  40.4747632  74.8661676  63.4199905  40.4744338  73.9233248
  54.0601864  42.0920883  85.2398009  53.7404649  41.2386191  84.9472383
  53.5135293  42.3069461  85.9955976  57.8381772  44.8083324  88.9567515
  58.0567782  45.7400432  88.9755549  58.2507546  44.4491298  89.7422319
  64.7585990  35.3151409  80.9443204  63.9486718  34.9698494  81.3198450
  65.4470407  35.0058953  81.5330815  66.6876538  34.3929456  82.5667500
  67.2407577  34.8124910  83.2257523  66.9246624  33.4665204  82.6090456
  62.7109637  40.3816530  98.3470264  62.6106364  41.3310887  98.2782355
  62.4931179  40.0534769  97.4746334  61.9122709  37.6301455  74.9310941
  62.7741873  37.9556353  75.1906759  62.0973053  36.8432951  74.4184007
  53.9290124  45.7123795  87.2091130  53.2353596  45.2977747  86.6961085
  54.6763115  45.7544331  86.6124549  70.0655345  36.5029981  82.0746164
  69.4854014  37.1614785  81.6924217  69.7991278  35.6807326  81.6633582
  68.5158911  35.9035039  84.2767485  69.0158690  36.0151574  83.4681804
  69.1594519  35.5996092  84.9168293  62.5740907  43.8113669  97.1635326
  62.0907989  44.6114029  97.3699215  62.6601846  43.8221614  96.2102770
  55.8426867  45.6442048  85.0857145  55.8197555  45.7429736  84.1339028
  56.1527503  46.4907199  85.4074311  58.5014245  47.7018203  89.2003759
  59.4557498  47.6702146  89.1333691  58.3026768  47.2408827  90.0153985
  59.0913627  46.2719319  91.7674557  59.9106516  46.7663398  91.7909394
  59.3650435  45.3551288  91.7392125  68.8480223  38.6630072  81.1302513
  67.9606078  38.9479722  80.9122707  69.2634212  38.5023835  80.2829790
  72.1994759  38.6876593  84.8456852  72.9755149  39.1773045  85.1181469
  71.4742893  39.1134647  85.3028721  74.6367318  39.4004212  85.9030793
  75.2311809  39.1599948  85.1924101  74.7093902  38.6811343  86.5304329
  56.8564474  53.2437823  86.2173957  56.7218941  52.4838224  85.6511955
  56.4396536  53.9678723  85.7502746  67.9923437  48.4274746  75.2250533
  68.6959287  48.6324749  75.8408188  67.2686085  48.9951508  75.4899616
  68.8221247  44.1784608  81.3452803  68.7656448  44.6353159  80.5060435
  69.3749589  43.4175292  81.1675646  72.6326053  39.9674340  82.1702922
  72.3762987  39.5670975  83.0011130  72.0078921  40.6818133  82.0453061
  76.9438391  42.7070413  84.6774214  76.3837949  42.7763602  85.4505776
  76.3381894  42.5311397  83.9573710  60.0133599  54.1407140  86.4292400
  59.8965984  55.0852572  86.3271090  59.1926046  53.8380701  86.8178199
  69.9010134  48.8657276  77.2748993  70.7355738  48.4338474  77.0926467
  69.7394477  48.6939289  78.2025887  69.5556026  45.3689389  78.6405332
  69.5004830  45.2033660  77.6993776  68.9302081  46.0765422  78.7967522
  54.3448541  40.6057453  92.4666754  54.9907405  40.0956407  92.9553979
  54.1365692  41.3426135  93.0410179  66.8701933  47.6738301  97.9658895
  67.7393093  47.8478953  97.6045530  66.3908685  48.4932718  97.8434624
  62.8652152  34.8697498  78.2190650  62.8530821  35.8139338  78.3758921
  63.7575573  34.6867643  77.9250112  61.0388114  54.7935402  89.6448328
  61.9415360  54.8259012  89.9614823  60.8125484  53.8635853  89.6594664
  62.7941716  53.5466388  86.3058407  61.8437347  53.5468250  86.1922779
  63.0974202  52.7999123  85.7894442  66.6804271  31.4640275  82.4736587
  65.9136667  30.9098761  82.6193270  67.0914976  31.5362143  83.3350739
  58.6846032  37.7525070  96.5641768  59.5477494  37.3961875  96.7745093
  58.1111443  37.4138965  97.2517173  78.5294409  59.3826927  87.3704169
  79.1672819  59.2633674  86.6667510  78.4115252  60.3307771  87.4292122
  75.3384115  59.3354355  87.3065694  75.0002627  59.2195420  86.4186229
  76.2073884  58.9345520  87.2866700  71.1970931  61.1889831  83.2962585
  70.6335796  61.0979768  82.5278873  71.0823326  60.3689736  83.7765078
  75.8203898  60.4889207  93.2651900  75.8092539  60.0942005  92.3932403
  75.9824538  59.7555279  93.8585671  68.7435363  62.6841023  86.1346806
  69.5356655  62.3431847  85.7193105  68.9832013  62.7935998  87.0548959
  76.7770490  64.8560799  78.6077050  76.1258470  65.4414879  78.2211064
  77.5714853  65.3866994  78.6672087  72.5411159  63.2726318  92.2131084
  72.2501025  64.1771949  92.0977750  73.1768144  63.3142846  92.9275153
  73.4667366  60.6503167  88.8032443  74.0630939  60.4259189  88.0889406
  73.5242338  59.9087912  89.4057891  73.0392395  58.1042602  76.6382634
  73.2917915  57.5824123  75.8766097  72.1016954  57.9408748  76.7409318
  78.0835678  57.1078381  84.4457377  78.8698767  56.6897804  84.0947795
  78.3474382  58.0124473  84.6139026  78.2545755  62.5451231  79.1446034
  77.6191588  62.6185857  79.8566939  77.9243161  63.1344830  78.4665114
  83.4844105  57.0453614  85.3490356  84.2169277  56.4752831  85.5828185
  82.7283460  56.6575214  85.7896862  72.7588683  60.0070708  78.8407009
  72.6424942  59.3315612  79.5088094  72.8690943  59.5203082  78.0239162
  75.1020224  59.4680855  82.5453698  74.7378432  58.9411476  83.2566620
  75.9587340  59.0779324  82.3720184  81.0069525  50.7575188  89.8084965
  80.6752850  51.6270599  89.5846180  80.4115138  50.4411472  90.4878995
  74.7425711  54.4970755  77.5415047  74.9100114  55.3650991  77.9085518
  74.5522880  54.6598037  76.6176336  77.5001045  62.9587734  89.2080877
  77.2001768  63.8612773  89.0996685  77.1552104  62.6919917  90.0602030
  70.9513526  59.4101531  85.2417582  70.0264023  59.2777745  85.4495274
  71.1997939  60.1895750  85.7387524  80.8998188  55.4770274  86.8878315
  79.9915066  55.4085682  86.5937076  80.8485784  55.9542219  87.7160140
  74.7214932  56.9528412  78.5261714  74.6014557  57.3985463  79.3647194
  74.0267521  57.3013730  77.9675252  68.3122337  59.0534804  86.0761371
  68.4414718  59.3069283  86.9900783  67.6319788  59.6462512  85.7566026
  72.4821824  69.7232054  82.1751845  72.4045854  70.6739879  82.2540326
  71.8783468  69.3777927  82.8326771  74.9739054  56.8959920  94.8313212
  74.1972388  57.4553840  94.8216077  75.6129617  57.3816703  95.3528082
  82.7659835  53.6786712  88.6656189  82.1234215  53.9719246  88.0195983
  82.2614763  53.5639633  89.4709385  80.4199998  57.4249886  79.3542048
  81.3317855  57.6577272  79.1789745  79.9109645  58.0086930  78.7917126
  73.2285426  59.7045373  94.3931179  73.9700111  60.2430417  94.1166003
  72.5222412  60.3311662  94.5502731  78.7040766  61.8474513  92.9903340
  79.1124122  61.4056924  92.2457973  77.9818028  61.2727141  93.2437533
  75.0571836  56.7847120  90.3636897  75.9033031  57.2086534  90.5071546
  74.9970474  56.1280745  91.0575460  79.0269581  62.4075704  86.7455629
  78.3978443  62.5721418  86.0431697  78.6395243  62.8217314  87.5166593
  82.9058813  63.3430142  84.0999993  82.2209851  63.7229043  83.5497026
  82.9902662  63.9525469  84.8331941  78.2071281  54.4451489  92.0218071
  77.9632213  55.1993549  91.4852347  78.4831212  54.8236836  92.8565318
  80.1609744  60.9890101  90.6995337  80.3726639  61.6321861  90.0229718
  80.1139492  60.1552418  90.2317267  77.7635973  53.6007922  87.6031909
  76.9020452  53.8989175  87.8948646  77.7898408  53.8178321  86.6712941
  74.5797543  62.1450112  84.0105714  75.0435888  62.4237815  83.2210337
  74.3154341  61.2433557  83.8278805  71.4721624  61.6921594  86.9485478
  72.0422981  62.1208862  86.3102962  72.0629736  61.4104178  87.6469663
  73.5166429  58.2673265  80.8195280  74.2190472  58.7194308  81.2869206
  73.1847057  57.6257083  81.4475173  71.9646790  56.8585021  95.1946489
  71.3345451  57.5401302  95.4281886  71.8582878  56.7468103  94.2499627
  67.2591763  56.5256817  86.1212413  66.4690817  56.7814346  85.6452524
  67.7503010  57.3405155  86.2264454  81.2755572  63.8662056  88.8717694
  82.0973016  63.4642244  88.5900376  81.2717975  63.7630291  89.8233810
  69.2106508  56.8901396  83.0795890  68.4137671  57.0020091  83.5979385
  68.9832100  57.2288049  82.2136780  75.0412176  63.4146100  91.0278404
  75.1056608  63.8766507  91.8636576  74.3323100  62.7843465  91.1560714
  65.5429466  56.7787308  88.5527404  65.7937504  57.6634318  88.8184980
  66.0789014  56.5991909  87.7802496  74.7560193  65.0814207  80.8957385
  74.6205868  65.9265743  81.3242233  75.2970006  65.2833485  80.1323319
  71.2427533  51.1605787  97.5571740  70.8494478  50.6071986  98.2319384
  72.0593673  51.4716366  97.9478258  70.0184475  65.7155402  83.5508063
  70.1951104  66.6373366  83.3629047  70.8141309  65.4013821  83.9802443
  74.1595494  52.5763666  95.1491997  74.9005207  53.1770819  95.0696459
  74.3913417  51.8341304  94.5910039  69.3036832  57.7620033  93.4270226
  69.1890347  56.8605291  93.7277325  68.4481350  58.0083730  93.0755043
  76.3828670  65.7037774  95.0257727  75.9392524  64.9174152  94.7078631
  77.0445883  65.8916924  94.3601618  71.1415791  67.2333575  89.5518405
  71.6923216  67.1050639  88.7795399  70.3027267  67.5328464  89.2013298
  78.4809908  65.9840574  93.0539128  78.4628383  66.8049455  92.5619397
  79.4029828  65.8594649  93.2789269  74.9382962  63.4984703  93.8962636
  75.4711299  62.7372991  93.6661944  74.4097043  63.2058355  94.6386791
  78.1052657  48.6044769  89.4256278  77.7616926  49.4946411  89.3495389
  78.4731619  48.4146427  88.5625863  66.1738507  60.9278300  82.2444880
  67.0113729  61.3375308  82.0278588  66.3516775  59.9877742  82.2145074
  78.0702940  58.5953380  77.9328713  77.5549563  59.3657985  78.1717101
  77.7980248  57.9218516  78.5561775  75.6550051  53.4403081  82.9913952
  74.7991647  53.0509931  82.8119590  76.0677002  53.5195042  82.1313737
  77.1849197  50.9749424  87.3905511  76.6813993  50.9379559  86.5773317
  77.4779804  51.8842167  87.4502168  73.4292083  51.0588154  86.3971693
  74.2945080  50.8630963  86.0377583  73.4969592  50.8298506  87.3241050
  77.8589243  56.4680472  79.7588495  77.5539378  56.7826621  80.6098638
  78.8119685  56.5461892  79.8015827  76.3035675  62.6270696  81.4081448
  75.7757036  61.8923455  81.0954686  75.8023177  63.4045372  81.1621417
  81.2828521  60.8219716  86.5248495  80.6252195  61.5118977  86.6128623
  82.0868920  61.2116148  86.8682481  71.0354402  53.2890362  83.7688060
  71.6098154  53.0665543  83.0361253  71.6225385  53.3579056  84.5216661
  80.0933979  59.1764089  84.5752437  80.6065861  59.8094081  85.0774146
  80.7435203  58.5765284  84.2095797  71.3623989  55.3194823  77.7883945
  70.5261302  55.6569509  78.1093220  71.2228759  55.1843803  76.8511082
  73.3377070  50.1631611  82.4963129  72.6841482  49.8480628  81.8719744
  73.2957544  49.5407351  83.2222952  77.3556354  69.1548413  77.3313108
  76.6818052  69.4580110  77.9398066  77.7422176  69.9577493  76.9818565
  76.5714810  56.6513544  86.8210777  75.6537372  56.8728491  86.6632465
  76.9874954  56.7259855  85.9622484  77.3549858  58.0504960  81.9513457
  78.1021677  58.5626357  81.6420579  77.6241448  57.7289013  82.8117851
  75.6276508  60.5463501  78.9340412  74.7187727  60.2622534  79.0312881
  75.6571592  60.9662579  78.0743718  80.8595776  64.1570090  82.7031579
  80.4058103  63.3161000  82.7596770  80.2289742  64.7931489  83.0406359
  79.8028695  55.0862076  83.9332247  79.0651452  54.5739462  84.2642489
  80.0555469  54.6462458  83.1215523  79.3028715  65.9946587  83.6381397
  79.5951689  66.5551644  82.9193763  79.8127335  66.2875148  84.3934556
  79.9040323  47.8638328  84.5274016  80.2099199  47.0035692  84.2399931
  80.6292927  48.4555948  84.3273010  66.1964679  58.2669015  82.9155614
  65.9989078  57.6738376  82.1906680  65.6411343  57.9621225  83.6331553
  74.1761402  58.1592121  85.0350207  74.2310012  57.2065958  84.9592684
  73.3652604  58.3151560  85.5191505  75.3252596  62.0872244  76.2728490
  74.8872026  61.3708103  75.8134128  76.0663037  62.3148359  75.7113582
  72.1153762  56.7769181  82.7940586  71.3021628  57.0763352  83.2005778
  72.6112756  56.3824870  83.5115068  74.2662340  66.7726938  84.7274851
  74.2238519  66.9987784  83.7983383  75.1825039  66.5390313  84.8760652
  77.7127974  57.2411006  91.6255480  78.0677362  57.4682479  92.4849945
  78.3600105  57.5729382  91.0032735  83.4425711  60.3629441  82.3304809
  83.3043609  60.5531037  81.4025998  83.0861930  61.1248824  82.7872860
  71.6067837  54.3487537  88.4101821  72.2467216  54.2076296  87.7124784
  70.7745367  54.0622050  88.0340423  83.4695090  62.4305968  87.3416080
  83.9031597  62.3381258  88.1899134  84.1826671  62.4063469  86.7036096
  72.3828141  63.6489967  84.5236813  73.1768739  63.1540287  84.3219388
  71.6719833  63.1207830  84.1604519  77.2022985  66.0308063  88.8749181
  77.2560008  66.5998999  89.6426897  76.3337767  66.2009948  88.5103218
  68.6910904  57.7933049  80.5996566  67.7608492  57.7317504  80.8166528
  68.7868376  57.2709002  79.8033207  68.6096453  54.3187862  83.1874808
  68.8703271  55.2333195  83.0783968  69.4313626  53.8512304  83.3371420
  70.0821379  55.7325619  90.3573632  70.7544432  55.5242981  89.7086281
  69.2551165  55.5347705  89.9178864  84.3310640  62.4729669  89.8748966
  84.5246530  63.3775480  90.1208241  84.2311258  62.0137088  90.7087551
  75.9846951  52.3587560  92.3739293  75.3374866  53.0577509  92.2803769
  76.7547966  52.7923704  92.7415541  79.3925749  62.6236412  95.4489846
  79.2411255  62.3946964  94.5319930  79.3830428  63.5807013  95.4621191
  76.1611085  60.1968325  90.4336113  77.0903145  60.3479484  90.2605080
  75.7402115  60.2852345  89.5784759  74.9599417  64.2218989  88.2034650
  74.8210503  63.8537773  89.0760588  74.1714013  64.7366628  88.0318608
  75.5547569  69.3228085  79.5460187  75.7299324  68.8516129  80.3605810
  74.8680357  69.9493852  79.7741448  76.5104632  63.6000592  85.5923488
  76.1754465  63.5601362  86.4881138  76.0108578  62.9345308  85.1193898
  70.4848876  59.0068222  91.1176069  70.3468674  58.2748461  91.7187608
  71.3953799  58.9177122  90.8360257  73.1131177  58.7188181  90.6059749
  73.8230795  58.0781373  90.5646367  73.0700485  58.9701076  91.5285930
  81.1017955  65.6555534  93.5266328  81.0430501  64.9714755  92.8596911
  81.5037474  66.3974524  93.0746954  71.8260111  55.7053399  92.4255388
  71.2897468  55.2544137  93.0776985  71.2376819  55.8399308  91.6825853
  70.1208654  72.4717448  86.3200047  70.3605252  73.1035972  86.9979066
  69.2777851  72.1205488  86.6065406  81.1035363  63.6195118  91.7580308
  80.2162141  63.2821040  91.8806707  81.6733914  62.8878150  91.9949073
  62.7564510  59.9519210  85.0823359  63.4435550  59.6380940  84.4944375
  62.6012638  60.8560575  84.8090611  67.5599232  54.8409407  89.5108383
  67.4757421  54.2335076  88.7758793  66.7381938  55.3318425  89.5117879
  74.6336516  68.2796571  88.7241551  74.5606687  69.0851542  89.2360856
  74.1913909  68.4788536  87.8989572  74.4226296  67.5168341  82.2344373
  73.6393817  68.0590021  82.3282597  75.1219041  68.0342320  82.6338614
  77.7322946  53.3262970  84.8778578  78.2291645  52.5732932  84.5579648
  76.9609927  53.3627287  84.3121787  85.5852703  59.0303336  86.5196869
  85.5742579  59.9128051  86.1490803  84.7170083  58.6774887  86.3251407
  77.0935199  68.1783405  90.8799710  77.8063172  68.8130870  90.8075611
  76.6025228  68.2747271  90.0639712  78.8152726  62.0834657  82.4517001
  77.8809005  62.2036120  82.2821706  78.9929395  61.1807124  82.1877011
  74.3157914  55.4680353  84.6050263  73.9455702  54.9151394  85.2931168
  74.8117007  54.8638487  84.0525263  82.2025278  57.9251977  82.9867035
  82.6685730  58.7579968  82.9127338  82.6532778  57.4596958  83.6912294
  72.1447113  65.9277848  91.7005281  72.8456572  66.5614331  91.8534675
  71.6742228  66.2692580  90.9400920  80.2701509  64.2695798  79.9853188
  80.5461353  64.1552393  80.8947062  79.4006008  63.8713283  79.9465361
  80.1741940  50.2932564  87.0257937  79.2605020  50.5236790  87.1940144
  80.6035042  50.3771008  87.8771969  79.9448399  58.4822456  89.5257831
  79.2919849  58.7298363  88.8710284  80.3228779  57.6686594  89.1920308
  76.9055573  68.5182149  83.6286001  77.0877967  67.7003805  84.0913753
  77.7288559  68.7349841  83.1910891  77.2397738  67.4450334  80.8901050
  77.7685505  66.9342789  80.2771212  77.5025958  67.1292864  81.7546583
  75.9935972  59.2242267  96.0123868  75.3176609  59.1236396  96.6826243
  76.8163606  59.0681480  96.4759865  67.7414831  65.4614203  88.6336383
  68.3268268  64.7157891  88.7664287  67.5439670  65.7718160  89.5173047
  70.5953486  68.4965451  83.6498826  69.9263862  68.9811578  83.1662866
  70.4566356  68.7434671  84.5642204  62.3332486  58.0319803  87.3540826
  62.3716585  57.4983394  88.1477944  61.8272779  57.5055009  86.7351804
  74.7358755  70.5309194  90.2481484  75.2877063  70.6940816  91.0130569
  75.0764948  71.1213632  89.5761509  69.7123248  52.8784344  90.8503369
  69.7764575  53.7399175  90.4380766  69.6490368  52.2658346  90.1175727
  69.1875521  54.9507476  94.4976403  69.8147559  54.5684554  95.1113927
  68.3303439  54.7321678  94.8632095  79.5869629  65.3570452  96.1030138
  80.1309533  65.9700410  95.6085093  79.0056474  65.9150030  96.6197151
  65.9641063  56.7583906  80.4294758  66.2594504  55.8494584  80.3761811
  65.0629099  56.7371645  80.1075760  77.8727142  68.4791170  87.2345166
  77.7478282  67.6780909  86.7256112  78.5306233  68.9737363  86.7459136
  69.4935310  54.8339902  86.4122306  68.7721896  55.4475870  86.2729780
  70.2828566  55.3697667  86.3338952  79.9362051  66.2800190  88.8624716
  78.9892386  66.1605541  88.7903043  80.2844824  65.3922688  88.9450978
  72.2961624  52.1694329  92.6862958  72.8196026  52.4156625  93.4489267
  72.0773957  53.0014363  92.2666095  67.6928905  54.4398003  80.5534083
  67.3641611  53.5595382  80.3709189  68.0468276  54.3845672  81.4410472
  76.9408484  66.0752906  85.0629068  76.7933446  65.1469613  85.2436638
  77.7661977  66.0972997  84.5786144  70.8070728  54.7270973  80.9209561
  71.1466801  55.2556894  80.1988169  71.2542849  55.0651379  81.6968127
  80.5442606  66.8981465  86.1493941  81.4689153  66.6924326  86.0118392
  80.3757909  66.6497866  87.0583283  73.5014169  53.1108024  90.3712629
  73.1610989  52.3115837  90.7733308  72.7953175  53.4109735  89.7989462
  74.1530641  50.1957336  88.8239952  74.9756710  49.7217814  88.7018842
  74.3968704  50.9747820  89.3238638  72.7938875  53.2245595  79.1202853
  73.5147238  53.6026847  78.6166570  72.1704179  53.9434471  79.2237831
  76.9369998  53.9290744  80.0561186  77.1533613  54.8115381  79.7550014
  76.4564065  53.5376957  79.3266828  71.6769220  56.8876457  86.6331930
  71.5313800  57.2016760  87.5256212  71.1994423  57.5061357  86.0802829
  73.5365602  53.8779005  86.6812820  73.5227171  52.9820098  86.3445118
  74.2538031  53.8849669  87.3151106  75.3891733  54.3116345  88.7265947
  75.1309511  55.2333416  88.7250278  74.8576774  53.9146780  89.4166411
  80.3337922  67.4167132  81.5056033  80.5074799  66.8513555  80.7529885
  80.8266813  68.2168027  81.3235523  66.1514882  59.4281801  89.5719591
  65.6068350  60.2041609  89.7039866  67.0294232  59.7752606  89.4138713
  72.9402498  52.7593385  81.9500390  73.0618410  51.8310031  82.1491277
  72.6504541  52.7732071  81.0378705  75.8093689  50.4448296  85.0867110
  75.8315386  50.5087629  84.1319089  76.2261748  49.6052804  85.2807616
  66.9380904  58.5551697  92.4649748  66.1962640  58.7034333  93.0514379
  66.6173648  58.8159963  91.6016498  74.8824566  68.0967676  92.2630138
  75.1911693  67.8516822  93.1352838  75.6800048  68.3014314  91.7749009
  74.9045178  70.2505585  84.4935515  74.4650169  69.7581964  85.1868372
  75.6553295  69.7078553  84.2527590  67.3837517  66.4417126  84.4960143
  68.2095537  66.1420898  84.1158786  67.0331569  65.6724749  84.9449932
  72.3519050  65.7943594  86.5657817  71.7299060  65.1314299  86.2660044
  73.0223917  65.8204726  85.8831464  65.5846122  64.3603453  85.4549077
  64.7478031  63.9325627  85.2733078  65.5569768  64.5535896  86.3919868
  72.4243578  54.2725382  96.1590323  72.4731733  55.1487505  95.7768092
  72.9666092  53.7302776  95.5861966  82.9098424  64.8166506  95.4391460
  82.1193967  64.7990645  94.8995959  82.6731778  65.3554799  96.1940496
  83.0296299  61.6658972  92.7524188  83.0794304  61.5008980  93.6939711
  82.9210222  60.7986231  92.3622069  80.3200061  57.6489900  94.0683495
  81.2209924  57.5096365  93.7767493  80.3948036  57.8144355  95.0081672
  74.6542866  55.0256755  92.9136681  73.7846176  55.3190321  92.6419270
  74.8902347  55.6097200  93.6343945  84.5314495  64.0855914  92.9966210
  84.2399304  64.4485894  93.8329671  83.9186627  63.3722922  92.8179542
  82.7801684  59.2088528  91.4646268  83.2555805  59.4016175  90.6565119
  81.8567249  59.2647714  91.2189651  77.3581900  51.2436372  90.4302102
  77.8763844  51.9797399  90.1048590  77.0037033  51.5500365  91.2648861
  68.9380838  56.1041053  78.5463507  68.2450083  56.1785408  77.8903543
  68.6932590  55.3401397  79.0685024  77.6094494  47.6636654  85.9502998
  77.8896248  46.9959843  86.5763425  78.3945101  47.8565750  85.4377662
  75.4127963  66.8395648  77.5128024  74.8401930  67.4585835  77.0598496
  75.9860757  67.3895010  78.0467946  81.4803353  56.0854288  89.6974573
  82.4320776  56.1852386  89.7186797  81.3106803  55.2932557  90.2072658
  79.5017732  53.1709872  89.8833974  78.9067664  53.4514884  89.1880463
  79.2167429  53.6603772  90.6550715  78.6325223  67.1232798  78.6436607
  79.5655896  67.0578360  78.8469482  78.5448435  67.9589065  78.1851139
  83.9591430  59.3060408  88.8116873  83.9267751  58.3676409  88.9976557
  84.5692054  59.3844445  88.0782698  75.7974761  58.1756461  74.8544077
  76.7433866  58.0462669  74.9232495  75.4189006  57.4371123  75.3313505
  84.1085919  56.0971451  88.8575156  83.5924968  55.3129908  88.6705085
  84.9925867  55.7690168  89.0221676  81.7696646  49.8412467  84.8170969
  81.5721467  49.5327555  85.7014301  82.3796351  50.5674106  84.9468899
  87.8583277  58.5084277  88.5497361  87.1316441  58.3740242  87.9413853
  87.4430564  58.8161106  89.3554079  75.6813454  62.2274207  96.3144734
  76.6016463  62.4052806  96.5084780  75.6463037  61.2830252  96.1624433
  64.8995619  57.4212801  85.2398009  64.5798403  56.5678109  84.9472383
  64.3529047  57.6361379  85.9955976  68.6775526  60.1375242  88.9567515
  68.8961536  61.0692350  88.9755549  69.0901300  59.7783216  89.7422319
  75.5979744  50.6443327  80.9443204  74.7880473  50.2990412  81.3198450
  76.2864161  50.3350871  81.5330815  77.5270292  49.7221374  82.5667500
  78.0801331  50.1416827  83.2257523  77.7640379  48.7957122  82.6090456
  73.5503392  55.7108448  98.3470264  73.4500119  56.6602804  98.2782355
  73.3324934  55.3826686  97.4746334  64.7683879  61.0415712  87.2091130
  64.0747350  60.6269665  86.6961085  65.5156870  61.0836249  86.6124549
  80.9049100  51.8321899  82.0746164  80.3247769  52.4906703  81.6924217
  80.6385032  51.0099244  81.6633582  79.3552666  51.2326957  84.2767485
  79.8552444  51.3443491  83.4681804  79.9988274  50.9288010  84.9168293
  73.4134662  59.1405586  97.1635326  72.9301743  59.9405946  97.3699215
  73.4995601  59.1513531  96.2102770  66.6820621  60.9733966  85.0857145
  66.6591310  61.0721653  84.1339028  66.9921258  61.8199117  85.4074311
  69.3407999  63.0310121  89.2003759  70.2951253  62.9994063  89.1333691
  69.1420523  62.5700745  90.0153985  69.9307381  61.6011237  91.7674557
  70.7500270  62.0955316  91.7909394  70.2044189  60.6843205  91.7392125
  79.6873978  53.9921989  81.1302513  78.7999833  54.2771640  80.9122707
  80.1027967  53.8315753  80.2829790  83.0388514  54.0168510  84.8456852
  83.8148904  54.5064963  85.1181469  82.3136648  54.4426565  85.3028721
  85.4761072  54.7296130  85.9030793  86.0705563  54.4891866  85.1924101
  85.5487656  54.0103260  86.5304329  67.6958228  68.5729741  86.2173957
  67.5612696  67.8130141  85.6511955  67.2790290  69.2970640  85.7502746
  79.6615001  59.5076525  81.3452803  79.6050203  59.9645077  80.5060435
  80.2143344  58.7467210  81.1675646  83.4719807  55.2966257  82.1702922
  83.2156741  54.8962893  83.0011130  82.8472675  56.0110051  82.0453061
  70.8527354  69.4699058  86.4292400  70.7359738  70.4144490  86.3271090
  70.0319800  69.1672619  86.8178199  80.3949781  60.6981307  78.6405332
  80.3398584  60.5325578  77.6993776  79.7695836  61.4057340  78.7967522
  65.1842296  55.9349371  92.4666754  65.8301159  55.4248325  92.9553979
  64.9759447  56.6718053  93.0410179  77.7095688  63.0030218  97.9658895
  78.5786847  63.1770871  97.6045530  77.2302439  63.8224635  97.8434624
  73.7045906  50.1989416  78.2190650  73.6924576  51.1431256  78.3758921
  74.5969328  50.0159561  77.9250112  71.8781868  70.1227319  89.6448328
  72.7809115  70.1550930  89.9614823  71.6519238  69.1927770  89.6594664
  73.6335470  68.8758306  86.3058407  72.6831101  68.8760168  86.1922779
  73.9367956  68.1291041  85.7894442  77.5198026  46.7932192  82.4736587
  76.7530421  46.2390679  82.6193270  77.9308731  46.8654061  83.3350739
  69.5239787  53.0816988  96.5641768  70.3871248  52.7253793  96.7745093
  68.9505197  52.7430883  97.2517173  89.3688164  74.7118844  87.3704169
  90.0066574  74.5925592  86.6667510  89.2509006  75.6599688  87.4292122
  86.1777870  74.6646273  87.3065694  85.8396381  74.5487337  86.4186229
  87.0467638  74.2637438  87.2866700  82.0364686  76.5181749  83.2962585
  81.4729551  76.4271686  82.5278873  81.9217081  75.6981653  83.7765078
  86.6597653  75.8181124  93.2651900  86.6486294  75.4233923  92.3932403
  86.8218292  75.0847197  93.8585671  79.5829117  78.0132941  86.1346806
  80.3750409  77.6723765  85.7193105  79.8225768  78.1227916  87.0548959
  87.6164244  80.1852717  78.6077050  86.9652224  80.7706797  78.2211064
  88.4108607  80.7158912  78.6672087  81.5419871  77.2741854  79.0064184
  82.3150747  76.7270841  78.8677060  81.8945270  78.1386103  79.2178646
  83.3804914  78.6018236  92.2131084  83.0894780  79.5063867  92.0977750
  84.0161898  78.6434764  92.9275153  84.3061121  75.9795085  88.8032443
  84.9024693  75.7551107  88.0889406  84.3636092  75.2379830  89.4057891
  83.8786149  73.4334520  76.6382634  84.1311670  72.9116041  75.8766097
  82.9410708  73.2700665  76.7409318  88.9229432  72.4370298  84.4457377
  89.7092521  72.0189721  84.0947795  89.1868136  73.3416390  84.6139026
  89.0939509  77.8743149  79.1446034  88.4585342  77.9477775  79.8566939
  88.7636916  78.4636747  78.4665114  94.3237859  72.3745531  85.3490356
  95.0563031  71.8044748  85.5828185  93.5677215  71.9867132  85.7896862
  83.5982438  75.3362626  78.8407009  83.4818696  74.6607529  79.5088094
  83.7084698  74.8495000  78.0239162  85.9413979  74.7972773  82.5453698
  85.5772186  74.2703394  83.2566620  86.7981095  74.4071242  82.3720184
  88.3394799  78.2879652  89.2080877  88.0395522  79.1904690  89.0996685
  87.9945859  78.0211835  90.0602030  81.7907281  74.7393448  85.2417582
  80.8657777  74.6069663  85.4495274  82.0391694  75.5187668  85.7387524
  91.7391943  70.8062192  86.8878315  90.8308820  70.7377600  86.5937076
  91.6879539  71.2834137  87.7160140  79.1516092  74.3826722  86.0761371
  79.2808473  74.6361201  86.9900783  78.4713543  74.9754430  85.7566026
  83.3215579  85.0523972  82.1751845  83.2439609  86.0031797  82.2540326
  82.7177222  84.7069844  82.8326771  85.8132809  72.2251837  94.8313212
  85.0366143  72.7845757  94.8216077  86.4523372  72.7108620  95.3528082
  91.2593753  72.7541803  79.3542048  92.1711609  72.9869190  79.1789745
  90.7503400  73.3378848  78.7917126  84.0679181  75.0337291  94.3931179
  84.8093865  75.5722335  94.1166003  83.3616166  75.6603579  94.5502731
  89.5434521  77.1766431  92.9903340  89.9517877  76.7348842  92.2457973
  88.8211782  76.6019059  93.2437533  85.8965591  72.1139038  90.3636897
  86.7426786  72.5378451  90.5071546  85.8364228  71.4572662  91.0575460
  89.8663335  77.7367622  86.7455629  89.2372198  77.9013336  86.0431697
  89.4788997  78.1509231  87.5166593  93.7452567  78.6722060  84.0999993
  93.0603605  79.0520961  83.5497026  93.8296416  79.2817386  84.8331941
  91.0003499  76.3182019  90.6995337  91.2120394  76.9613779  90.0229718
  90.9533247  75.4844335  90.2317267  88.6029728  68.9299839  87.6031909
  87.7414207  69.2281093  87.8948646  88.6292162  69.1470238  86.6712941
  85.4191297  77.4742030  84.0105714  85.8829643  77.7529733  83.2210337
  85.1548095  76.5725474  83.8278805  82.3115378  77.0213511  86.9485478
  82.8816735  77.4500780  86.3102962  82.9023490  76.7396096  87.6469663
  84.3560183  73.5965182  80.8195280  85.0584226  74.0486226  81.2869206
  84.0240812  72.9549001  81.4475173  82.8040545  72.1876939  95.1946489
  82.1739205  72.8693220  95.4281886  82.6976633  72.0760020  94.2499627
  78.0985517  71.8548735  86.1212413  77.3084571  72.1106263  85.6452524
  78.5896764  72.6697073  86.2264454  92.1149327  79.1953974  88.8717694
  92.9366770  78.7934161  88.5900376  92.1111730  79.0922208  89.8233810
  80.0500262  72.2193314  83.0795890  79.2531426  72.3312008  83.5979385
  79.8225855  72.5579966  82.2136780  85.8805930  78.7438017  91.0278404
  85.9450363  79.2058425  91.8636576  85.1716854  78.1135382  91.1560714
  76.3823220  72.1079225  88.5527404  76.6331259  72.9926235  88.8184980
  76.9182768  71.9283827  87.7802496 100.2055320  75.5392723  85.2202665
  99.4519028  74.9700121  85.0646670 100.3402861  75.5055387  86.1673300
  85.5953948  80.4106125  80.8957385  85.4599623  81.2557661  81.3242233
  86.1363760  80.6125403  80.1323319  82.0821287  66.4897705  97.5571740
  81.6888233  65.9363903  98.2319384  82.8987428  66.8008283  97.9478258
  79.0483345  77.9281563  81.4685310  79.5607866  78.7224813  81.6190875
  79.7006058  77.2307853  81.4018911  80.8578230  81.0447319  83.5508063
  81.0344858  81.9665284  83.3629047  81.6535063  80.7305738  83.9802443
  84.9989248  67.9055584  95.1491997  85.7398962  68.5062737  95.0696459
  85.2307171  67.1633222  94.5910039  80.1430586  73.0911951  93.4270226
  80.0284102  72.1897208  93.7277325  79.2875104  73.3375648  93.0755043
  87.2222424  81.0329691  95.0257727  86.7786278  80.2466070  94.7078631
  87.8839638  81.2208842  94.3601618  81.9809545  82.5625493  89.5518405
  82.5316970  82.4342556  88.7795399  81.1421021  82.8620382  89.2013298
  89.3203662  81.3132491  93.0539128  89.3022138  82.1341372  92.5619397
  90.2423582  81.1886567  93.2789269  85.7776716  78.8276621  93.8962636
  86.3105053  78.0664909  93.6661944  85.2490797  78.5350273  94.6386791
  77.0132262  76.2570217  82.2444880  77.8507484  76.6667226  82.0278588
  77.1910530  75.3169659  82.2145074  88.0242952  66.3041342  87.3905511
  87.5207747  66.2671477  86.5773317  88.3173559  67.2134085  87.4502168
  84.2685838  66.3880072  86.3971693  85.1338834  66.1922880  86.0377583
  84.3363347  66.1590423  87.3241050  93.8830968  76.6777653  79.8681887
  93.1060411  76.3388812  79.4237049  94.5622449  76.6830276  79.1936852
  87.1429429  77.9562613  81.4081448  86.6150791  77.2215373  81.0954686
  86.6416932  78.7337290  81.1621417  92.1222275  76.1511634  86.5248495
  91.4645950  76.8410895  86.6128623  92.9262674  76.5408066  86.8682481
  81.8748157  68.6182280  83.7688060  82.4491909  68.3957461  83.0361253
  82.4619139  68.6870974  84.5216661  90.9327734  74.5056006  84.5752437
  91.4459616  75.1385998  85.0774146  91.5828958  73.9057202  84.2095797
  82.2017744  70.6486741  77.7883945  81.3655056  70.9861427  78.1093220
  82.0622513  70.5135720  76.8511082  85.2882029  75.7742824  74.4116422
  84.3809091  75.5432077  74.6107570  85.7853061  74.9780443  74.5990403
  88.1950108  84.4840331  77.3313108  87.5211807  84.7872027  77.9398066
  88.5815930  85.2869411  76.9818565  87.4108565  71.9805462  86.8210777
  86.4931126  72.2020409  86.6632465  87.8268708  72.0551772  85.9622484
  88.1943613  73.3796878  81.9513457  88.9415431  73.8918275  81.6420579
  88.4635202  73.0580930  82.8117851  86.4670263  75.8755418  78.9340412
  85.5581482  75.5914451  79.0312881  86.4965347  76.2954497  78.0743718
  91.6989530  79.4862008  82.7031579  91.2451857  78.6452918  82.7596770
  91.0683497  80.1223406  83.0406359  90.1422469  81.3238505  83.6381397
  90.4345444  81.8843562  82.9193763  90.6521090  81.6167066  84.3934556
  77.0358433  73.5960933  82.9155614  76.8382833  73.0030293  82.1906680
  76.4805097  73.2913143  83.6331553  85.0155157  73.4884039  85.0350207
  85.0703767  72.5357875  84.9592684  84.2046359  73.6443478  85.5191505
  86.1646351  77.4164162  76.2728490  85.7265780  76.7000021  75.8134128
  86.9056791  77.6440277  75.7113582  82.9547517  72.1061099  82.7940586
  82.1415382  72.4055269  83.2005778  83.4506511  71.7116788  83.5115068
  85.1056095  82.1018856  84.7274851  85.0632273  82.3279702  83.7983383
  86.0218793  81.8682230  84.8760652  88.5521728  72.5702923  91.6255480
  88.9071116  72.7974396  92.4849945  89.1993860  72.9021300  91.0032735
  94.2819465  75.6921359  82.3304809  94.1437364  75.8822955  81.4025998
  93.9255684  76.4540742  82.7872860  82.4461591  69.6779454  88.4101821
  83.0860971  69.5368213  87.7124784  81.6139122  69.3913968  88.0340423
  94.3088845  77.7597886  87.3416080  94.7425352  77.6673175  88.1899134
  95.0220426  77.7355387  86.7036096  83.2221895  78.9781885  84.5236813
  84.0162494  78.4832205  84.3219388  82.5113588  78.4499748  84.1604519
  88.0416740  81.3599980  88.8749181  88.0953762  81.9290917  89.6426897
  87.1731521  81.5301865  88.5103218  79.5304659  73.1224966  80.5996566
  78.6002247  73.0609422  80.8166528  79.6262131  72.6000919  79.8033207
  79.4490208  69.6479779  83.1874808  79.7097025  70.5625113  83.0783968
  80.2707380  69.1804222  83.3371420  80.9215133  71.0617536  90.3573632
  81.5938187  70.8534899  89.7086281  80.0944920  70.8639622  89.9178864
  95.1704394  77.8021587  89.8748966  95.3640285  78.7067397  90.1208241
  95.0705013  77.3429006  90.7087551  86.8240705  67.6879477  92.3739293
  86.1768620  68.3869427  92.2803769  87.5941721  68.1215621  92.7415541
  90.2319503  77.9528330  95.4489846  90.0805010  77.7238881  94.5319930
  90.2224183  78.9098931  95.4621191  87.0004840  75.5260242  90.4336113
  87.9296900  75.6771402  90.2605080  86.5795870  75.6144263  89.5784759
  85.7993171  79.5510907  88.2034650  85.6604257  79.1829691  89.0760588
  85.0107768  80.0658546  88.0318608  86.3941323  84.6520003  79.5460187
  86.5693079  84.1808046  80.3605810  85.7074111  85.2785769  79.7741448
  87.3498386  78.9292509  85.5923488  87.0148219  78.8893279  86.4881138
  86.8502332  78.2637225  85.1193898  81.3242630  74.3360139  91.1176069
  81.1862428  73.6040378  91.7187608  82.2347554  74.2469040  90.8360257
  90.2857578  76.2748544  75.8660548  89.6686749  75.5495372  75.7693600
  89.8174067  77.0357904  75.5227622  83.9524931  74.0480099  90.6059749
  84.6624550  73.4073291  90.5646367  83.9094239  74.2992994  91.5285930
  91.9411710  80.9847452  93.5266328  91.8824256  80.3006672  92.8596911
  92.3431228  81.7266442  93.0746954  82.6653865  71.0345317  92.4255388
  82.1291222  70.5836055  93.0776985  82.0770574  71.1691225  91.6825853
  80.9602409  87.8009366  86.3200047  81.1999007  88.4327890  86.9979066
  80.1171605  87.4497406  86.6065406  82.0756124  70.4933968  74.9881852
  81.1985590  70.3722769  74.6244099  82.5513877  69.7020046  74.7360741
  91.9429117  78.9487036  91.7580308  91.0555896  78.6112958  91.8806707
  92.5127668  78.2170067  91.9949073  73.5958264  75.2811128  85.0823359
  74.2829304  74.9672858  84.4944375  73.4406393  76.1852492  84.8090611
  78.3992986  70.1701324  89.5108383  78.3151175  69.5626994  88.7758793
  77.5775693  70.6610343  89.5117879  85.4730270  83.6088488  88.7241551
  85.4000442  84.4143460  89.2360856  85.0307664  83.8080454  87.8989572
  85.2620050  82.8460258  82.2344373  84.4787572  83.3881939  82.3282597
  85.9612795  83.3634238  82.6338614  96.4246458  74.3595253  86.5196869
  96.4136334  75.2419969  86.1490803  95.5563837  74.0066804  86.3251407
  87.9328954  83.5075322  90.8799710  88.6456926  84.1422787  90.8075611
  87.4418983  83.6039188  90.0639712  89.6546481  77.4126575  82.4517001
  88.7202760  77.5328038  82.2821706  89.8323149  76.5099042  82.1877011
  85.1551669  70.7972271  84.6050263  84.7849456  70.2443311  85.2931168
  85.6510761  70.1930404  84.0525263  93.0419032  73.2543894  82.9867035
  93.5079484  74.0871886  82.9127338  93.4926533  72.7888876  83.6912294
  82.9840867  81.2569766  91.7005281  83.6850327  81.8906249  91.8534675
  82.5135982  81.5984497  90.9400920  91.1095263  79.5987716  79.9853188
  91.3855107  79.4844310  80.8947062  90.2399762  79.2005200  79.9465361
  90.7842153  73.8114373  89.5257831  90.1313604  74.0590281  88.8710284
  91.1622533  72.9978511  89.1920308  87.7449327  83.8474066  83.6286001
  87.9271722  83.0295722  84.0913753  88.5682313  84.0641759  83.1910891
  88.0791493  82.7742252  80.8901050  88.6079259  82.2634706  80.2771212
  88.3419712  82.4584782  81.7546583  86.8329726  74.5534184  96.0123868
  86.1570364  74.4528314  96.6826243  87.6557360  74.3973398  96.4759865
  78.5808586  80.7906121  88.6336383  79.1662022  80.0449809  88.7664287
  78.3833424  81.1010078  89.5173047  81.4347241  83.8257368  83.6498826
  80.7657616  84.3103496  83.1662866  81.2960110  84.0726589  84.5642204
  73.1726240  73.3611721  87.3540826  73.2110340  72.8275312  88.1477944
  72.6666533  72.8346927  86.7351804  85.5752509  85.8601112  90.2481484
  86.1270817  86.0232733  91.0130569  85.9158703  86.4505550  89.5761509
  80.5517003  68.2076262  90.8503369  80.6158329  69.0691093  90.4380766
  80.4884123  67.5950263  90.1175727  80.0269275  70.2799394  94.4976403
  80.6541314  69.8976471  95.1113927  79.1697194  70.0613596  94.8632095
  90.4263384  80.6862369  96.1030138  90.9703288  81.2992328  95.6085093
  89.8450229  81.2441948  96.6197151  76.8034818  72.0875823  80.4294758
  77.0988259  71.1786502  80.3761811  75.9022854  72.0663563  80.1075760
  88.7120897  83.8083087  87.2345166  88.5872036  83.0072827  86.7256112
  89.3699988  84.3029281  86.7459136  80.3329065  70.1631820  86.4122306
  79.6115651  70.7767788  86.2729780  81.1222321  70.6989585  86.3338952
  90.7755805  81.6092107  88.8624716  89.8286141  81.4897459  88.7903043
  91.1238578  80.7214605  88.9450978  83.1355378  67.4986246  92.6862958
  83.6589780  67.7448543  93.4489267  82.9167712  68.3306281  92.2666095
  78.5322659  69.7689921  80.5534083  78.2035366  68.8887300  80.3709189
  78.8862030  69.7137590  81.4410472  87.7802238  81.4044824  85.0629068
  87.6327201  80.4761531  85.2436638  88.6055732  81.4264914  84.5786144
  81.6464483  70.0562891  80.9209561  81.9860555  70.5848812  80.1988169
  82.0936603  70.3943297  81.6968127  91.3836360  82.2273382  86.1493941
  92.3082908  82.0216244  86.0118392  91.2151664  81.9789784  87.0583283
  84.3407923  68.4399941  90.3712629  84.0004744  67.6407755  90.7733308
  83.6346930  68.7401652  89.7989462  84.9924395  65.5249254  88.8239952
  85.8150465  65.0509732  88.7018842  85.2362459  66.3039738  89.3238638
  82.5162974  72.2168375  86.6331930  82.3707555  72.5308678  87.5256212
  82.0388178  72.8353275  86.0802829  84.3759357  69.2070922  86.6812820
  84.3620926  68.3112016  86.3445118  85.0931785  69.2141586  87.3151106
  86.2285488  69.6408263  88.7265947  85.9703265  70.5625333  88.7250278
  85.6970528  69.2438697  89.4166411  91.1731676  82.7459050  81.5056033
  91.3468554  82.1805472  80.7529885  91.6660568  83.5459945  81.3235523
  76.9908636  74.7573719  89.5719591  76.4462104  75.5333527  89.7039866
  77.8687986  75.1044523  89.4138713  97.0271068  75.5095473  83.1246332
  97.4702214  74.7602798  82.7265456  96.1497578  75.5005609  82.7420064
  92.1606849  82.0625814  78.6052931  92.8557753  82.6832507  78.8240246
  92.5029999  81.2121165  78.8805309  77.7774658  73.8843615  92.4649748
  77.0356394  74.0326251  93.0514379  77.4567402  74.1451881  91.6016498
  94.0598272  79.5125520  80.1340262  94.5849596  79.8512793  79.4089582
  93.9720625  78.5772535  79.9503396  85.7218321  83.4259593  92.2630138
  86.0305447  83.1808740  93.1352838  86.5193803  83.6306232  91.7749009
  85.7438933  85.5797503  84.4935515  85.3043923  85.0873882  85.1868372
  86.4947050  85.0370471  84.2527590  78.2231272  81.7709044  84.4960143
  79.0489292  81.4712816  84.1158786  77.8725324  81.0016666  84.9449932
  83.1912805  81.1235512  86.5657817  82.5692814  80.4606217  86.2660044
  83.8617672  81.1496644  85.8831464  76.4239877  79.6895370  85.4549077
  75.5871785  79.2617545  85.2733078  76.3963522  79.8827814  86.3919868
  83.2637332  69.6017300  96.1590323  83.3125488  70.4779423  95.7768092
  83.8059847  69.0594693  95.5861966  93.7492178  80.1458423  95.4391460
  92.9587722  80.1282562  94.8995959  93.5125533  80.6846717  96.1940496
  93.8690053  76.9950890  92.7524188  93.9188058  76.8300897  93.6939711
  93.7603976  76.1278149  92.3622069  82.7526312  79.6739435  80.0416277
  82.9014432  80.3574900  79.3882950  83.5592755  79.6544526  80.5565733
  91.1593815  72.9781818  94.0683495  92.0603678  72.8388283  93.7767493
  91.2341790  73.1436273  95.0081672  85.4936621  70.3548673  92.9136681
  84.6239930  70.6482239  92.6419270  85.7296101  70.9389118  93.6343945
  95.3708250  79.4147831  92.9966210  95.0793058  79.7777812  93.8329671
  94.7580381  78.7014840  92.8179542  96.5703932  76.9800711  85.5168780
  97.4050824  77.4190515  85.6806340  96.7063061  76.5039364  84.6977026
  93.6195438  74.5380446  91.4646268  94.0949560  74.7308092  90.6565119
  92.6961004  74.5939632  91.2189651  80.5078945  75.7004613  81.0477346
  80.2624987  74.7966943  81.2457556  80.6774859  75.7021764  80.1056824
  79.7774592  71.4332971  78.5463507  79.0843837  71.5077326  77.8903543
  79.5326344  70.6693314  79.0685024  86.2521717  82.1687566  77.5128024
  85.6795684  82.7877753  77.0598496  86.8254511  82.7186928  78.0467946
  92.3197107  71.4146206  89.6974573  93.2714530  71.5144304  89.7186797
  92.1500558  70.6224475  90.2072658  89.4718977  82.4524716  78.6436607
  90.4049650  82.3870278  78.8469482  89.3842190  83.2880983  78.1851139
  92.1006994  81.7690586  75.6040554  92.0220625  81.4350450  76.4976312
  92.9216661  82.2612354  75.6032027  94.7985185  74.6352326  88.8116873
  94.7661505  73.6968326  88.9976557  95.4085809  74.7136362  88.0782698
  86.6368516  73.5048379  74.8544077  87.5827621  73.3754587  74.9232495
  86.2582761  72.7663041  75.3313505 100.6161735  75.6968333  87.9522910
 101.3465123  75.4353621  88.5130613 100.0068680  74.9597054  87.9924978
  98.6977032  73.8376195  88.5497361  97.9710196  73.7032160  87.9413853
  98.2824319  74.1453024  89.3554079  86.5207208  77.5566125  96.3144734
  87.4410218  77.7344724  96.5084780  86.4856791  76.6122170  96.1624433
  75.7389373  72.7504718  85.2398009  75.4192158  71.8970027  84.9472383
  75.1922802  72.9653297  85.9955976  79.5169281  75.4667159  88.9567515
  79.7355291  76.3984267  88.9755549  79.9295055  75.1075134  89.7422319
  84.3897146  71.0400365  98.3470264  84.2893873  71.9894722  98.2782355
  84.1718688  70.7118604  97.4746334  75.6077633  76.3707630  87.2091130
  74.9141105  75.9561583  86.6961085  76.3550624  76.4128166  86.6124549
  84.2528416  74.4697504  97.1635326  83.7695498  75.2697864  97.3699215
  84.3389355  74.4805449  96.2102770  77.5214376  76.3025884  85.0857145
  77.4985064  76.4013571  84.1339028  77.8315012  77.1491035  85.4074311
  80.1801754  78.3602039  89.2003759  81.1345007  78.3285981  89.1333691
  79.9814277  77.8992662  90.0153985  80.7701136  76.9303155  91.7674557
  81.5894025  77.4247233  91.7909394  81.0437944  76.0135123  91.7392125
  78.5351983  83.9021658  86.2173957  78.4006450  83.1422059  85.6511955
  78.1184045  84.6262558  85.7502746  89.6710946  79.0858582  75.2250533
  90.3746796  79.2908584  75.8408188  88.9473594  79.6535344  75.4899616
  90.5008756  74.8368443  81.3452803  90.4443957  75.2936994  80.5060435
  91.0537098  74.0759128  81.1675646  98.6225900  73.3654248  84.6774214
  98.0625458  73.4347437  85.4505776  98.0169403  73.1895233  83.9573710
  81.6921108  84.7990975  86.4292400  81.5753493  85.7436408  86.3271090
  80.8713555  84.4964537  86.8178199  91.5797643  79.5241111  77.2748993
  92.4143247  79.0922309  77.0926467  91.4181986  79.3523125  78.2025887
  91.2343535  76.0273224  78.6405332  91.1792339  75.8617496  77.6993776
  90.6089590  76.7349257  78.7967522  76.0236050  71.2641289  92.4666754
  76.6694914  70.7540243  92.9553979  75.8153201  72.0009970  93.0410179
  88.5489442  78.3322136  97.9658895  89.4180602  78.5062788  97.6045530
  88.0696194  79.1516553  97.8434624  82.7175623  85.4519237  89.6448328
  83.6202869  85.4842847  89.9614823  82.4912993  84.5219688  89.6594664
  84.4729225  84.2050224  86.3058407  83.5224856  84.2052085  86.1922779
  84.7761711  83.4582958  85.7894442  80.3633541  68.4108906  96.5641768
  81.2265003  68.0545711  96.7745093  79.7898952  68.0722801  97.2517173
 100.2081918  90.0410762  87.3704169 100.8460328  89.9217509  86.6667510
 100.0902761  90.9891606  87.4292122  97.0171624  89.9938190  87.3065694
  96.6790136  89.8779255  86.4186229  97.8861393  89.5929355  87.2866700
  92.8758440  91.8473667  83.2962585  92.3123305  91.7563604  82.5278873
  92.7610835  91.0273571  83.7765078  97.4991407  91.1473042  93.2651900
  97.4880048  90.7525840  92.3932403  97.6612047  90.4139115  93.8585671
  90.4222872  93.3424858  86.1346806  91.2144164  93.0015683  85.7193105
  90.6619522  93.4519833  87.0548959  98.4557999  95.5144634  78.6077050
  97.8045979  96.0998715  78.2211064  99.2502362  96.0450829  78.6672087
  92.3813626  92.6033771  79.0064184  93.1544502  92.0562759  78.8677060
  92.7339025  93.4678021  79.2178646  94.2198668  93.9310154  92.2131084
  93.9288534  94.8355785  92.0977750  94.8555653  93.9726681  92.9275153
  95.1454875  91.3087002  88.8032443  95.7418448  91.0843025  88.0889406
  95.2029847  90.5671748  89.4057891  94.7179904  88.7626438  76.6382634
  94.9705424  88.2407959  75.8766097  93.7804463  88.5992583  76.7409318
  99.7623187  87.7662216  84.4457377 100.5486276  87.3481639  84.0947795
 100.0261891  88.6708308  84.6139026  99.9333264  93.2035066  79.1446034
  99.2979097  93.2769693  79.8566939  99.6030670  93.7928665  78.4665114
 105.1631614  87.7037449  85.3490356 105.8956786  87.1336666  85.5828185
 104.4070969  87.3159050  85.7896862  94.4376192  90.6654544  78.8407009
  94.3212451  89.9899447  79.5088094  94.5478452  90.1786917  78.0239162
  96.7807733  90.1264691  82.5453698  96.4165941  89.5995312  83.2566620
  97.6374849  89.7363160  82.3720184 102.6857034  81.4159023  89.8084965
 102.3540359  82.2854434  89.5846180 102.0902647  81.0995307  90.4878995
  96.4213220  85.1554590  77.5415047  96.5887623  86.0234827  77.9085518
  96.2310389  85.3181872  76.6176336  99.1788554  93.6171569  89.2080877
  98.8789277  94.5196608  89.0996685  98.8339613  93.3503752  90.0602030
  92.6301035  90.0685366  85.2417582  91.7051532  89.9361580  85.4495274
  92.8785448  90.8479585  85.7387524 102.5785697  86.1354109  86.8878315
 101.6702575  86.0669518  86.5937076 102.5273293  86.6126054  87.7160140
  96.4002441  87.6112248  78.5261714  96.2802066  88.0569299  79.3647194
  95.7055030  87.9597566  77.9675252  89.9909846  89.7118640  86.0761371
  90.1202227  89.9653119  86.9900783  89.3107297  90.3046348  85.7566026
  94.1609333 100.3815890  82.1751845  94.0833363 101.3323715  82.2540326
  93.5570977 100.0361762  82.8326771  96.6526563  87.5543755  94.8313212
  95.8759897  88.1137675  94.8216077  97.2917126  88.0400538  95.3528082
 104.4447344  84.3370548  88.6656189 103.8021724  84.6303081  88.0195983
 103.9402272  84.2223468  89.4709385 102.0987507  88.0833721  79.3542048
 103.0105364  88.3161108  79.1789745 101.5897154  88.6670765  78.7917126
  94.9072935  90.3629208  94.3931179  95.6487620  90.9014252  94.1166003
  94.2009921  90.9895497  94.5502731 100.3828275  92.5058349  92.9903340
 100.7911631  92.0640759  92.2457973  99.6605537  91.9310976  93.2437533
  96.7359345  87.4430956  90.3636897  97.5820540  87.8670369  90.5071546
  96.6757983  86.7864580  91.0575460 100.7057090  93.0659539  86.7455629
 100.0765952  93.2305254  86.0431697 100.3182752  93.4801149  87.5166593
 104.5846322  94.0013977  84.0999993 103.8997360  94.3812879  83.5497026
 104.6690171  94.6109304  84.8331941  99.8858790  85.1035324  92.0218071
  99.6419722  85.8577384  91.4852347 100.1618721  85.4820672  92.8565318
 101.8397253  91.6473936  90.6995337 102.0514148  92.2905696  90.0229718
 101.7927001  90.8136253  90.2317267  99.4423482  84.2591757  87.6031909
  98.5807961  84.5573011  87.8948646  99.4685917  84.4762156  86.6712941
  96.2585052  92.8033948  84.0105714  96.7223397  93.0821651  83.2210337
  95.9941850  91.9017392  83.8278805  93.1509133  92.3505429  86.9485478
  93.7210490  92.7792697  86.3102962  93.7417244  92.0688014  87.6469663
  95.1953938  88.9257100  80.8195280  95.8977981  89.3778144  81.2869206
  94.8634566  88.2840919  81.4475173  93.6434299  87.5168857  95.1946489
  93.0132960  88.1985137  95.4281886  93.5370387  87.4051938  94.2499627
  88.9379272  87.1840653  86.1212413  88.1478326  87.4398181  85.6452524
  89.4290519  87.9988990  86.2264454 102.9543081  94.5245892  88.8717694
 103.7760525  94.1226079  88.5900376 102.9505484  94.4214126  89.8233810
  90.8894017  87.5485232  83.0795890  90.0925180  87.6603926  83.5979385
  90.6619609  87.8871884  82.2136780  96.7199685  94.0729935  91.0278404
  96.7844117  94.5350342  91.8636576  96.0110608  93.4427300  91.1560714
  87.2216975  87.4371143  88.5527404  87.4725013  88.3218153  88.8184980
  87.7576523  87.2575745  87.7802496 111.0449074  90.8684640  85.2202665
 110.2912783  90.2992038  85.0646670 111.1796615  90.8347305  86.1673300
  96.4347702  95.7398043  80.8957385  96.2993377  96.5849578  81.3242233
  96.9757515  95.9417320  80.1323319  92.9215042  81.8189622  97.5571740
  92.5281987  81.2655821  98.2319384  93.7381182  82.1300201  97.9478258
  89.8877100  93.2573481  81.4685310  90.4001620  94.0516731  81.6190875
  90.5399812  92.5599771  81.4018911  91.6971984  96.3739237  83.5508063
  91.8738613  97.2957202  83.3629047  92.4928818  96.0597656  83.9802443
  95.8383003  83.2347501  95.1491997  96.5792716  83.8354655  95.0696459
  96.0700926  82.4925139  94.5910039  90.9824341  88.4203869  93.4270226
  90.8677856  87.5189126  93.7277325  90.1268859  88.6667566  93.0755043
  92.8203300  97.8917411  89.5518405  93.3710725  97.7634474  88.7795399
  91.9814776  98.1912300  89.2013298 100.1597417  96.6424409  93.0539128
 100.1415892  97.4633290  92.5619397 101.0817337  96.5178484  93.2789269
  96.6170471  94.1568538  93.8962636  97.1498808  93.3956827  93.6661944
  96.0884552  93.8642190  94.6386791  99.7840166  79.2628604  89.4256278
  99.4404435  80.1530246  89.3495389 100.1519128  79.0730262  88.5625863
  87.8526016  91.5862135  82.2444880  88.6901238  91.9959143  82.0278588
  88.0304284  90.6461577  82.2145074  99.7490449  89.2537216  77.9328713
  99.2337072  90.0241820  78.1717101  99.4767757  88.5802352  78.5561775
  97.3337560  84.0986916  82.9913952  96.4779156  83.7093767  82.8119590
  97.7464511  84.1778877  82.1313737  98.8636706  81.6333260  87.3905511
  98.3601502  81.5963395  86.5773317  99.1567313  82.5426002  87.4502168
  95.1079592  81.7171989  86.3971693  95.9732589  81.5214798  86.0377583
  95.1757101  81.4882341  87.3241050 104.7224723  92.0069570  79.8681887
 103.9454165  91.6680730  79.4237049 105.4016204  92.0122193  79.1936852
  99.5376752  87.1264308  79.7588495  99.2326887  87.4410457  80.6098638
 100.4907194  87.2045728  79.8015827  97.9823184  93.2854531  81.4081448
  97.4544545  92.5507291  81.0954686  97.4810686  94.0629207  81.1621417
 102.9616030  91.4803551  86.5248495 102.3039704  92.1702813  86.6128623
 103.7656429  91.8699983  86.8682481  92.7141911  83.9474197  83.7688060
  93.2885663  83.7249379  83.0361253  93.3012894  84.0162892  84.5216661
 101.7721488  89.8347924  84.5752437 102.2853370  90.4677916  85.0774146
 102.4222712  89.2349120  84.2095797  93.0411498  85.9778658  77.7883945
  92.2048811  86.3153345  78.1093220  92.9016268  85.8427638  76.8511082
  95.0164579  80.8215446  82.4963129  94.3628991  80.5064463  81.8719744
  94.9745053  80.1991187  83.2222952  96.1275784  91.1034741  74.4116422
  95.2202845  90.8723995  74.6107570  96.6246816  90.3072360  74.5990403
  99.0343863  99.8132248  77.3313108  98.3605561 100.1163945  77.9398066
  99.4209685 100.6161329  76.9818565  98.2502319  87.3097380  86.8210777
  97.3324881  87.5312327  86.6632465  98.6662463  87.3843690  85.9622484
  99.0337367  88.7088795  81.9513457  99.7809186  89.2210193  81.6420579
  99.3028957  88.3872848  82.8117851  97.3064017  91.2047336  78.9340412
  96.3975236  90.9206369  79.0312881  97.3359101  91.6246415  78.0743718
 102.5383285  94.8153926  82.7031579 102.0845612  93.9744835  82.7596770
 101.9077251  95.4515324  83.0406359 101.4816204  85.7445912  83.9332247
 100.7438961  85.2323298  84.2642489 101.7342978  85.3046293  83.1215523
 100.9816224  96.6530422  83.6381397 101.2739198  97.2135479  82.9193763
 101.4914844  96.9458983  84.3934556 101.5827831  78.5222164  84.5274016
 101.8886708  77.6619527  84.2399931 102.3080436  79.1139784  84.3273010
  87.8752188  88.9252850  82.9155614  87.6776587  88.3322211  82.1906680
  87.3198852  88.6205060  83.6331553  95.8548911  88.8175957  85.0350207
  95.9097521  87.8649793  84.9592684  95.0440113  88.9735396  85.5191505
  97.0040105  92.7456080  76.2728490  96.5659535  92.0291939  75.8134128
  97.7450546  92.9732195  75.7113582  93.7941271  87.4353016  82.7940586
  92.9809137  87.7347187  83.2005778  94.2900265  87.0408705  83.5115068
  95.9449849  97.4310773  84.7274851  95.9026028  97.6571620  83.7983383
  96.8612548  97.1974148  84.8760652  99.3915483  87.8994841  91.6255480
  99.7464871  88.1266314  92.4849945 100.0387614  88.2313218  91.0032735
 105.1213220  91.0213277  82.3304809 104.9831118  91.2114873  81.4025998
 104.7649439  91.7832660  82.7872860  93.2855346  85.0071372  88.4101821
  93.9254725  84.8660131  87.7124784  92.4532876  84.7205885  88.0340423
 105.1482599  93.0889804  87.3416080 105.5819106  92.9965093  88.1899134
 105.8614180  93.0647304  86.7036096  94.0615650  94.3073802  84.5236813
  94.8556248  93.8124123  84.3219388  93.3507342  93.7791665  84.1604519
  98.8810494  96.6891898  88.8749181  98.9347517  97.2582834  89.6426897
  98.0125276  96.8593783  88.5103218  90.3698413  88.4516884  80.5996566
  89.4396001  88.3901340  80.8166528  90.4655885  87.9292837  79.8033207
  90.2883962  84.9771697  83.1874808  90.5490780  85.8917030  83.0783968
  91.1101135  84.5096139  83.3371420  91.7608888  86.3909454  90.3573632
  92.4331941  86.1826816  89.7086281  90.9338674  86.1931540  89.9178864
 106.0098149  93.1313504  89.8748966 106.2034039  94.0359315  90.1208241
 105.9098767  92.6720924  90.7087551  97.6634460  83.0171395  92.3739293
  97.0162375  83.7161345  92.2803769  98.4335475  83.4507539  92.7415541
  97.8398594  90.8552160  90.4336113  98.7690654  91.0063320  90.2605080
  97.4189624  90.9436181  89.5784759  96.6386926  94.8802824  88.2034650
  96.4998012  94.5121609  89.0760588  95.8501522  95.3950464  88.0318608
  97.2335078  99.9811921  79.5460187  97.4086833  99.5099964  80.3605810
  96.5467866 100.6077687  79.7741448  98.1892141  94.2584427  85.5923488
  97.8541974  94.2185197  86.4881138  97.6896087  93.5929143  85.1193898
  92.1636385  89.6652057  91.1176069  92.0256183  88.9332296  91.7187608
  93.0741308  89.5760957  90.8360257 101.1251333  91.6040461  75.8660548
 100.5080503  90.8787290  75.7693600 100.6567821  92.3649822  75.5227622
  94.7918686  89.3772016  90.6059749  95.5018304  88.7365209  90.5646367
  94.7487994  89.6284911  91.5285930  93.5047620  86.3637234  92.4255388
  92.9684977  85.9127973  93.0776985  92.9164328  86.4983143  91.6825853
  91.7996163 103.1301284  86.3200047  92.0392761 103.7619808  86.9979066
  90.9565360 102.7789324  86.6065406  92.9149879  85.8225886  74.9881852
  92.0379345  85.7014686  74.6244099  93.3907632  85.0311964  74.7360741
 102.7822872  94.2778954  91.7580308 101.8949650  93.9404875  91.8806707
 103.3521423  93.5461985  91.9949073  84.4352019  90.6103045  85.0823359
  85.1223058  90.2964775  84.4944375  84.2800147  91.5144410  84.8090611
  89.2386741  85.4993242  89.5108383  89.1544930  84.8918912  88.7758793
  88.4169447  85.9902260  89.5117879  96.3124025  98.9380406  88.7241551
  96.2394196  99.7435378  89.2360856  95.8701418  99.1372372  87.8989572
  96.1013805  98.1752176  82.2344373  95.3181326  98.7173856  82.3282597
  96.8006550  98.6926156  82.6338614  99.4110455  83.9846806  84.8778578
  99.9079154  83.2316768  84.5579648  98.6397436  84.0211122  84.3121787
 107.2640212  89.6887171  86.5196869 107.2530088  90.5711886  86.1490803
 106.3957592  89.3358722  86.3251407  98.7722708  98.8367240  90.8799710
  99.4850681  99.4714705  90.8075611  98.2812737  98.9331106  90.0639712
 100.4940235  92.7418493  82.4517001  99.5596514  92.8619955  82.2821706
 100.6716904  91.8390960  82.1877011  95.9945423  86.1264189  84.6050263
  95.6243211  85.5735229  85.2931168  96.4904516  85.5222322  84.0525263
 103.8812787  88.5835812  82.9867035 104.3473239  89.4163804  82.9127338
 104.3320287  88.1180794  83.6912294  93.8234622  96.5861684  91.7005281
  94.5244081  97.2198166  91.8534675  93.3529737  96.9276415  90.9400920
 101.9489018  94.9279633  79.9853188 102.2248862  94.8136228  80.8947062
 101.0793517  94.5297118  79.9465361 101.8529449  80.9516399  87.0257937
 100.9392529  81.1820626  87.1940144 102.2822551  81.0354843  87.8771969
 101.6235908  89.1406291  89.5257831 100.9707358  89.3882198  88.8710284
 102.0016288  88.3270429  89.1920308  98.5843082  99.1765984  83.6286001
  98.7665476  98.3587640  84.0913753  99.4076068  99.3933676  83.1910891
  98.9185247  98.1034169  80.8901050  99.4473014  97.5926624  80.2771212
  99.1813467  97.7876699  81.7546583  97.6723481  89.8826102  96.0123868
  96.9964118  89.7820231  96.6826243  98.4951115  89.7265316  96.4759865
  89.4202340  96.1198039  88.6336383  90.0055777  95.3741726  88.7664287
  89.2227179  96.4301995  89.5173047  92.2740995  99.1549286  83.6498826
  91.6051371  99.6395414  83.1662866  92.1353865  99.4018506  84.5642204
  84.0119995  88.6903639  87.3540826  84.0504094  88.1567229  88.1477944
  83.5060288  88.1638844  86.7351804  96.4146264 101.1893029  90.2481484
  96.9664572 101.3524651  91.0130569  96.7552457 101.7797467  89.5761509
  91.3910757  83.5368179  90.8503369  91.4552084  84.3983010  90.4380766
  91.3277877  82.9242181  90.1175727  90.8663030  85.6091312  94.4976403
  91.4935068  85.2268389  95.1113927  90.0090948  85.3905514  94.8632095
  87.6428572  87.4167741  80.4294758  87.9382013  86.5078419  80.3761811
  86.7416608  87.3955480  80.1075760  99.5514651  99.1375005  87.2345166
  99.4265791  98.3364745  86.7256112 100.2093742  99.6321198  86.7459136
  91.1722819  85.4923738  86.4122306  90.4509405  86.1059705  86.2729780
  91.9616075  86.0281502  86.3338952 101.6149560  96.9384025  88.8624716
 100.6679895  96.8189376  88.7903043 101.9632333  96.0506523  88.9450978
  93.9749133  82.8278164  92.6862958  94.4983535  83.0740461  93.4489267
  93.7561466  83.6598199  92.2666095  89.3716414  85.0981839  80.5534083
  89.0429120  84.2179218  80.3709189  89.7255785  85.0429507  81.4410472
  98.6195993  96.7336741  85.0629068  98.4720955  95.8053449  85.2436638
  99.4449486  96.7556832  84.5786144  92.4858237  85.3854808  80.9209561
  92.8254310  85.9140730  80.1988169  92.9330358  85.7235215  81.6968127
 102.2230115  97.5565300  86.1493941 103.1476662  97.3508161  86.0118392
 102.0545418  97.3081701  87.0583283  95.1801678  83.7691859  90.3712629
  94.8398498  82.9699672  90.7733308  94.4740684  84.0693570  89.7989462
  95.8318150  80.8541172  88.8239952  96.6544219  80.3801650  88.7018842
  96.0756213  81.6331655  89.3238638  94.4726384  83.8829430  79.1202853
  95.1934747  84.2610683  78.6166570  93.8491688  84.6018307  79.2237831
  98.6157507  84.5874579  80.0561186  98.8321122  85.4699217  79.7550014
  98.1351574  84.1960792  79.3266828  93.3556729  87.5460292  86.6331930
  93.2101309  87.8600595  87.5256212  92.8781932  88.1645193  86.0802829
  95.2153111  84.5362840  86.6812820  95.2014680  83.6403933  86.3445118
  95.9325540  84.5433504  87.3151106  97.0679242  84.9700180  88.7265947
  96.8097020  85.8917251  88.7250278  96.5364282  84.5730615  89.4166411
 102.0125431  98.0750967  81.5056033 102.1862308  97.5097390  80.7529885
 102.5054322  98.8751862  81.3235523  87.8302391  90.0865637  89.5719591
  87.2855859  90.8625445  89.7039866  88.7081741  90.4336441  89.4138713
  94.6190007  83.4177220  81.9500390  94.7405919  82.4893867  82.1491277
  94.3292050  83.4315906  81.0378705  97.4881198  81.1032131  85.0867110
  97.5102895  81.1671464  84.1319089  97.9049257  80.2636640  85.2807616
 107.8664822  90.8387390  83.1246332 108.3095968  90.0894716  82.7265456
 106.9891332  90.8297527  82.7420064 103.0000603  97.3917732  78.6052931
 103.6951508  98.0124425  78.8240246 103.3423753  96.5413083  78.8805309
  88.6168413  89.2135533  92.4649748  87.8750149  89.3618168  93.0514379
  88.2961157  89.4743798  91.6016498 104.8992026  94.8417437  80.1340262
 105.4243351  95.1804710  79.4089582 104.8114379  93.9064453  79.9503396
  96.5612075  98.7551511  92.2630138  96.8699202  98.5100658  93.1352838
  97.3587557  98.9598150  91.7749009  96.5832687 100.9089421  84.4935515
  96.1437678 100.4165799  85.1868372  97.3340804 100.3662388  84.2527590
  89.0625026  97.1000962  84.4960143  89.8883046  96.8004733  84.1158786
  88.7119078  96.3308584  84.9449932  94.0306559  96.4527430  86.5657817
  93.4086569  95.7898135  86.2660044  94.7011426  96.4788562  85.8831464
  87.2633631  95.0187288  85.4549077  86.4265540  94.5909462  85.2733078
  87.2357277  95.2119731  86.3919868  94.1031087  84.9309218  96.1590323
  94.1519242  85.8071341  95.7768092  94.6453601  84.3886611  95.5861966
 104.7083808  92.3242807  92.7524188 104.7581813  92.1592815  93.6939711
 104.5997731  91.4570066  92.3622069  93.5920066  95.0031353  80.0416277
  93.7408187  95.6866818  79.3882950  94.3986510  94.9836443  80.5565733
 101.9987570  88.3073735  94.0683495 102.8997433  88.1680200  93.7767493
 102.0735544  88.4728190  95.0081672  96.3330375  85.6840590  92.9136681
  95.4633685  85.9774156  92.6419270  96.5689856  86.2681035  93.6343945
 107.4097687  92.3092629  85.5168780 108.2444578  92.7482433  85.6806340
 107.5456816  91.8331282  84.6977026 104.4589193  89.8672364  91.4646268
 104.9343314  90.0600010  90.6565119 103.5354758  89.9231549  91.2189651
  91.3472699  91.0296531  81.0477346  91.1018741  90.1258861  81.2457556
  91.5168614  91.0313681  80.1056824  99.0369409  81.9020207  90.4302102
  99.5551353  82.6381234  90.1048590  98.6824542  82.2084200  91.2648861
  90.6168347  86.7624888  78.5463507  89.9237592  86.8369243  77.8903543
  90.3720099  85.9985232  79.0685024  99.2882003  78.3220490  85.9502998
  99.5683757  77.6543679  86.5763425 100.0732610  78.5149585  85.4377662
  97.0915472  97.4979484  77.5128024  96.5189439  98.1169671  77.0598496
  97.6648265  98.0478845  78.0467946 103.1590862  86.7438124  89.6974573
 104.1108285  86.8436221  89.7186797 102.9894312  85.9516392  90.2072658
 101.1805241  83.8293707  89.8833974 100.5855173  84.1098720  89.1880463
 100.8954938  84.3187608  90.6550715 100.3112732  97.7816634  78.6436607
 101.2443405  97.7162195  78.8469482 100.2235944  98.6172901  78.1851139
 102.9400748  97.0982504  75.6040554 102.8614380  96.7642368  76.4976312
 103.7610415  97.5904272  75.6032027 105.6378939  89.9644243  88.8116873
 105.6055260  89.0260244  88.9976557 106.2479563  90.0428280  88.0782698
  97.4762270  88.8340296  74.8544077  98.4221375  88.7046504  74.9232495
  97.0976515  88.0954958  75.3313505 105.7873428  86.7555287  88.8575156
 105.2712477  85.9713743  88.6705085 106.6713376  86.4274003  89.0221676
 103.4484155  80.4996302  84.8170969 103.2508976  80.1911391  85.7014301
 104.0583860  81.2257941  84.9468899 111.4555489  91.0260250  87.9522910
 112.1858878  90.7645538  88.5130613 110.8462435  90.2888972  87.9924978
 109.5370786  89.1668113  88.5497361 108.8103950  89.0324078  87.9413853
 109.1218073  89.4744941  89.3554079  95.6605187  86.7590273  74.7898962
  94.7536643  86.4623385  74.8661676  95.9381168  86.4620091  73.9233248
  86.5783128  88.0796636  85.2398009  86.2585912  87.2261944  84.9472383
  86.0316556  88.2945214  85.9955976  90.3563035  90.7959077  88.9567515
  90.5749045  91.7276185  88.9755549  90.7688809  90.4367052  89.7422319
  97.2767253  81.3027162  80.9443204  96.4667982  80.9574247  81.3198450
  97.9651670  80.9934706  81.5330815  99.2057801  80.3805209  82.5667500
  99.7588840  80.8000663  83.2257523  99.4427888  79.4540957  82.6090456
  95.2290901  86.3692283  98.3470264  95.1287628  87.3186640  98.2782355
  95.0112443  86.0410522  97.4746334  94.4303972  83.6177208  74.9310941
  95.2923136  83.9432106  75.1906759  94.6154316  82.8308704  74.4184007
  86.4471388  91.6999548  87.2091130  85.7534859  91.2853500  86.6961085
  87.1944379  91.7420084  86.6124549 102.5836609  82.4905734  82.0746164
 102.0035278  83.1490538  81.6924217 102.3172541  81.6683079  81.6633582
 101.0340175  81.8910792  84.2767485 101.5339953  82.0027327  83.4681804
 101.6775783  81.5871845  84.9168293  95.0922171  89.7989422  97.1635326
  94.6089252  90.5989782  97.3699215  95.1783110  89.8097367  96.2102770
  88.3608130  91.6317801  85.0857145  88.3378818  91.7305489  84.1339028
  88.6708767  92.4782952  85.4074311  91.0195508  93.6893956  89.2003759
  91.9738762  93.6577899  89.1333691  90.8208032  93.2284580  90.0153985
  91.6094890  92.2595072  91.7674557  92.4287779  92.7539151  91.7909394
  91.8831698  91.3427041  91.7392125 101.3661487  84.6505825  81.1302513
 100.4787342  84.9355475  80.9122707 101.7815476  84.4899588  80.2829790
 104.7176023  84.6752346  84.8456852 105.4936413  85.1648798  85.1181469
 103.9924157  85.1010400  85.3028721 107.1548581  85.3879965  85.9030793
 107.7493072  85.1475701  85.1924101 107.2275165  84.6687096  86.5304329
  89.3745737  99.2313576  86.2173957  89.2400205  98.4713977  85.6511955
  88.9577799  99.9554476  85.7502746 100.5104700  94.4150499  75.2250533
 101.2140550  94.6200502  75.8408188  99.7867349  94.9827261  75.4899616
 101.3402510  90.1660361  81.3452803 101.2837712  90.6228912  80.5060435
 101.8930853  89.4051045  81.1675646 105.1507316  85.9550093  82.1702922
 104.8944250  85.5546728  83.0011130 104.5260184  86.6693887  82.0453061
 109.4619654  88.6946166  84.6774214 108.9019212  88.7639355  85.4505776
 108.8563157  88.5187150  83.9573710  92.5314863 100.1282893  86.4292400
  92.4147247 101.0728325  86.3271090  91.7107309  99.8256454  86.8178199
 102.4191397  94.8533029  77.2748993 103.2537001  94.4214227  77.0926467
 102.2575740  94.6815042  78.2025887 102.0737290  91.3565142  78.6405332
 102.0186093  91.1909413  77.6993776 101.4483345  92.0641175  78.7967522
  86.8629805  86.5933206  92.4666754  87.5088668  86.0832160  92.9553979
  86.6546956  87.3301888  93.0410179  95.3833415  80.8573251  78.2190650
  95.3712085  81.8015091  78.3758921  96.2756837  80.6743396  77.9250112
  93.5569377 100.7811155  89.6448328  94.4596624 100.8134765  89.9614823
  93.3306747  99.8511606  89.6594664  95.3122979  99.5342141  86.3058407
  94.3618610  99.5344003  86.1922779  95.6155465  98.7874876  85.7894442
  99.1985535  77.4516028  82.4736587  98.4317930  76.8974514  82.6193270
  99.6096240  77.5237896  83.3350739  91.2027296  83.7400823  96.5641768
  92.0658757  83.3837628  96.7745093  90.6292706  83.4014718  97.2517173
 103.7152195 107.1765584  83.2962585 103.1517060 107.0855521  82.5278873
 103.6004590 106.3565489  83.7765078 103.2207380 107.9325689  79.0064184
 103.9938256 107.3854676  78.8677060 103.5732779 108.7969938  79.2178646
 105.5573658 104.0918355  76.6382634 105.8099179 103.5699877  75.8766097
 104.6198217 103.9284501  76.7409318 110.6016941 103.0954134  84.4457377
 111.3880030 102.6773557  84.0947795 110.8655645 104.0000226  84.6139026
 105.2769947 105.9946461  78.8407009 105.1606205 105.3191365  79.5088094
 105.3872207 105.5078835  78.0239162 107.6201488 105.4556608  82.5453698
 107.2559695 104.9287229  83.2566620 108.4768604 105.0655077  82.3720184
 107.2606975 100.4846508  77.5415047 107.4281377 101.3526744  77.9085518
 107.0704144 100.6473790  76.6176336 103.4694790 105.3977284  85.2417582
 102.5445286 105.2653498  85.4495274 103.7179203 106.1771503  85.7387524
 107.2396196 102.9404166  78.5261714 107.1195821 103.3861216  79.3647194
 106.5448784 103.2889483  77.9675252 100.8303601 105.0410557  86.0761371
 100.9595982 105.2945036  86.9900783 100.1501052 105.6338265  85.7566026
 112.9381262 103.4125639  79.3542048 113.8499118 103.6453025  79.1789745
 112.4290909 103.9962683  78.7917126 110.2817237  99.5883675  87.6031909
 109.4201716  99.8864928  87.8948646 110.3079671  99.8054074  86.6712941
 107.0978806 108.1325865  84.0105714 107.5617152 108.4113568  83.2210337
 106.8335604 107.2309310  83.8278805 106.0347692 104.2549018  80.8195280
 106.7371735 104.7070061  81.2869206 105.7028321 103.6132836  81.4475173
  99.7773026 102.5132570  86.1212413  98.9872080 102.7690099  85.6452524
 100.2684273 103.3280908  86.2264454 101.7287771 102.8777150  83.0795890
 100.9318935 102.9895844  83.5979385 101.5013364 103.2163802  82.2136780
  98.0610729 102.7663061  88.5527404  98.3118767 103.6510071  88.8184980
  98.5970277 102.5867662  87.7802496 100.7270854 108.5865398  81.4685310
 101.2395375 109.3808649  81.6190875 101.3793567 107.8891689  81.4018911
 110.6233920  94.5920522  89.4256278 110.2798190  95.4822164  89.3495389
 110.9912883  94.4022180  88.5625863  98.6919771 106.9154053  82.2444880
  99.5294993 107.3251061  82.0278588  98.8698039 105.9753495  82.2145074
 110.5884203 104.5829133  77.9328713 110.0730826 105.3533738  78.1717101
 110.3161511 103.9094269  78.5561775 108.1731314  99.4278834  82.9913952
 107.3172910  99.0385684  82.8119590 108.5858266  99.5070795  82.1313737
 109.7030461  96.9625177  87.3905511 109.1995256  96.9255312  86.5773317
 109.9961068  97.8717920  87.4502168 105.9473347  97.0463907  86.3971693
 106.8126343  96.8506716  86.0377583 106.0150856  96.8174259  87.3241050
 110.3770506 102.4556225  79.7588495 110.0720642 102.7702374  80.6098638
 111.3300948 102.5337645  79.8015827 103.5535666  99.2766115  83.7688060
 104.1279418  99.0541296  83.0361253 104.1406648  99.3454809  84.5216661
 103.8805253 101.3070576  77.7883945 103.0442565 101.6445262  78.1093220
 103.7410022 101.1719556  76.8511082 105.8558333  96.1507364  82.4963129
 105.2022746  95.8356381  81.8719744 105.8138808  95.5283104  83.2222952
 106.9669538 106.4326659  74.4116422 106.0596600 106.2015912  74.6107570
 107.4640570 105.6364278  74.5990403 109.8731122 104.0380713  81.9513457
 110.6202940 104.5502110  81.6420579 110.1422711 103.7164766  82.8117851
 108.1457772 106.5339254  78.9340412 107.2368991 106.2498287  79.0312881
 108.1752855 106.9538332  78.0743718 112.3209959 101.0737829  83.9332247
 111.5832715 100.5615215  84.2642489 112.5736732 100.6338211  83.1215523
 112.4221586  93.8514081  84.5274016 112.7280463  92.9911445  84.2399931
 113.1474191  94.4431701  84.3273010  98.7145942 104.2544768  82.9155614
  98.5170342 103.6614129  82.1906680  98.1592606 103.9496978  83.6331553
 106.6942666 104.1467874  85.0350207 106.7491276 103.1941711  84.9592684
 105.8833868 104.3027313  85.5191505 104.6335026 102.7644934  82.7940586
 103.8202891 103.0639105  83.2005778 105.1294020 102.3700623  83.5115068
 104.1249100 100.3363290  88.4101821 104.7648480 100.1952049  87.7124784
 103.2926631 100.0497803  88.0340423 101.2092168 103.7808802  80.5996566
 100.2789756 103.7193257  80.8166528 101.3049640 103.2584755  79.8033207
 101.1277717 100.3063615  83.1874808 101.3884534 101.2208948  83.0783968
 101.9494889  99.8388057  83.3371420 103.7543633 101.1517803  74.9881852
 102.8773099 101.0306604  74.6244099 104.2301386 100.3603882  74.7360741
  95.2745773 105.9394963  85.0823359  95.9616813 105.6256693  84.4944375
  95.1193902 106.8436328  84.8090611 100.0780495 100.8285160  89.5108383
  99.9938684 100.2210829  88.7758793  99.2563202 101.3194178  89.5117879
 110.2504209  99.3138723  84.8778578 110.7472909  98.5608686  84.5579648
 109.4791191  99.3503040  84.3121787 106.8339178 101.4556106  84.6050263
 106.4636965 100.9027147  85.2931168 107.3298270 100.8514240  84.0525263
 112.6923204  96.2808317  87.0257937 111.7786284  96.5112544  87.1940144
 113.1216305  96.3646761  87.8771969  94.8513749 104.0195556  87.3540826
  94.8897849 103.4859147  88.1477944  94.3454042 103.4930762  86.7351804
 102.2304512  98.8660097  90.8503369 102.2945838  99.7274928  90.4380766
 102.1671632  98.2534099  90.1175727  98.4822327 102.7459659  80.4294758
  98.7775768 101.8370337  80.3761811  97.5810363 102.7247398  80.1075760
 102.0116574 100.8215655  86.4122306 101.2903160 101.4351623  86.2729780
 102.8009830 101.3573420  86.3338952 100.2110168 100.4273756  80.5534083
  99.8822875  99.5471135  80.3709189 100.5649539 100.3721425  81.4410472
 103.3251992 100.7146726  80.9209561 103.6648064 101.2432647  80.1988169
 103.7724112 101.0527132  81.6968127 106.6711904  96.1833089  88.8239952
 107.4937974  95.7093567  88.7018842 106.9149968  96.9623573  89.3238638
 105.3120139  99.2121348  79.1202853 106.0328501  99.5902600  78.6166570
 104.6885443  99.9310224  79.2237831 109.4551262  99.9166497  80.0561186
 109.6714876 100.7991135  79.7550014 108.9745329  99.5252710  79.3266828
 104.1950483 102.8752210  86.6331930 104.0495064 103.1892513  87.5256212
 103.7175687 103.4937110  86.0802829 106.0546866  99.8654758  86.6812820
 106.0408435  98.9695851  86.3445118 106.7719294  99.8725422  87.3151106
 105.4583762  98.7469138  81.9500390 105.5799673  97.8185784  82.1491277
 105.1685804  98.7607824  81.0378705 108.3274952  96.4324049  85.0867110
 108.3496649  96.4963382  84.1319089 108.7443011  95.5928557  85.2807616
  99.9018781 112.4292879  84.4960143 100.7276801 112.1296651  84.1158786
  99.5512833 111.6600502  84.9449932  98.1027386 110.3479206  85.4549077
  97.2659294 109.9201380  85.2733078  98.0751031 110.5411649  86.3919868
 102.1866454 106.3588448  81.0477346 101.9412496 105.4550778  81.2457556
 102.3562368 106.3605599  80.1056824 101.4562101 102.0916806  78.5463507
 100.7631346 102.1661161  77.8903543 101.2113853 101.3277150  79.0685024
 110.1275758  93.6512407  85.9502998 110.4077512  92.9835596  86.5763425
 110.9126365  93.8441503  85.4377662 108.3156025 104.1632214  74.8544077
 109.2615130 104.0338422  74.9232495 107.9370270 103.4246876  75.3313505
 114.2877909  95.8288220  84.8170969 114.0902730  95.5203308  85.7014301
 114.8977615  96.5549859  84.9468899 106.4998942 102.0882190  74.7898962
 105.5930397 101.7915303  74.8661676 106.7774923 101.7912008  73.9233248
  97.4176882 103.4088554  85.2398009  97.0979667 102.5553862  84.9472383
  96.8710311 103.6237132  85.9955976 108.1161008  96.6319080  80.9443204
 107.3061736  96.2866165  81.3198450 108.8045425  96.3226624  81.5330815
 110.0451556  95.7097127  82.5667500 110.5982595  96.1292580  83.2257523
 110.2821642  94.7832875  82.6090456 105.2697727  98.9469126  74.9310941
 106.1316891  99.2724024  75.1906759 105.4548071  98.1600622  74.4184007
  97.2865142 107.0291465  87.2091130  96.5928614 106.6145418  86.6961085
  98.0338133 107.0712002  86.6124549 113.4230363  97.8197652  82.0746164
 112.8429032  98.4782456  81.6924217 113.1566296  96.9974997  81.6633582
 111.8733929  97.2202710  84.2767485 112.3733708  97.3319244  83.4681804
 112.5169537  96.9163763  84.9168293  99.2001885 106.9609719  85.0857145
  99.1772573 107.0597406  84.1339028  99.5102521 107.8074870  85.4074311
 112.2055241  99.9797742  81.1302513 111.3181096 100.2647393  80.9122707
 112.6209230  99.8191506  80.2829790 115.9901071 101.2842010  82.1702922
 115.7338005 100.8838646  83.0011130 115.3653939 101.9985804  82.0453061
 106.2227170  96.1865169  78.2190650 106.2105839  97.1307009  78.3758921
 107.1150591  96.0035314  77.9250112 110.0379289  92.7807945  82.4736587
 109.2711685  92.2266432  82.6193270 110.4489994  92.8529814  83.3350739
  38.6789669  -7.7923799  70.0207892  38.1154534  -7.8833862  69.2524179
  38.5642064  -8.6123895  70.5010384  36.2254101  -6.2972608  72.8592112
  37.0175393  -6.6381783  72.4438411  36.4650751  -6.1877633  73.7794265
  44.2589228  -4.1252831  65.3322357  43.6077207  -3.5398751  64.9456370
  45.0533590  -3.5946637  65.3917394  38.1844855  -7.0363694  65.7309491
  38.9575731  -7.5834707  65.5922367  38.5370254  -6.1719445  65.9423952
  40.0229897  -5.7087312  78.9376390  39.7319763  -4.8041681  78.8223057
  40.6586882  -5.6670784  79.6520460  40.9486104  -8.3310464  75.5277750
  41.5449676  -8.5554441  74.8134713  41.0061076  -9.0725718  76.1303198
  45.7364493  -6.4362400  65.8691341  45.1010326  -6.3627773  66.5812246
  45.4061899  -5.8468801  65.1910420  40.2407421  -8.9742922  65.5652316
  40.1243679  -9.6498019  66.2333400  40.3509681  -9.4610548  64.7484469
  44.9819782  -6.0225897  75.9326184  44.6820505  -5.1200858  75.8241991
  44.6370842  -6.2893713  76.7847337  39.9640562   0.7418424  68.8997152
  39.8864592   1.6926249  68.9785632  39.3602206   0.3964296  69.5572078
  40.7104164  -9.2768257  81.1176486  41.4518849  -8.7383213  80.8411309
  40.0041150  -8.6501969  81.2748037  46.5088319  -6.5737926  73.4700936
  45.8797181  -6.4092212  72.7677004  46.1213981  -6.1596317  74.2411900
  50.3877550  -5.6383488  70.8245300  49.7028589  -5.2584587  70.2742333
  50.4721400  -5.0288162  71.5577247  42.0616280  -6.8363518  70.7351021
  42.5254626  -6.5575815  69.9455644  41.7973079  -7.7380074  70.5524112
  38.9540361  -7.2892037  73.6730784  39.5241719  -6.8604768  73.0348269
  39.5448473  -7.5709452  74.3714970  48.7574310  -5.1151574  75.5963001
  49.5791754  -5.5171387  75.3145682  48.7536713  -5.2183340  76.5479116
  42.5230913  -5.5667531  77.7523711  42.5875346  -5.1047123  78.5881883
  41.8141837  -6.1970166  77.8806021  42.2378931  -3.8999423  67.6202691
  42.1024606  -3.0547888  68.0487539  42.7788744  -3.6980146  66.8568625
  35.6908328  -6.3823985  68.1930616  36.2032849  -5.5880735  68.3436181
  36.3431041  -7.0797695  68.1264218  37.5003213  -3.2658229  70.2753370
  37.6769842  -2.3440264  70.0874354  38.2960047  -3.5799810  70.7047749
  43.8647407  -3.2775857  81.7503033  43.4211262  -4.0639478  81.4323938
  44.5264621  -3.0896706  81.0846924  38.6234529  -1.7480055  76.2763712
  39.1741954  -1.8762992  75.5040706  37.7846005  -1.4485166  75.9258605
  45.9628646  -2.9973057  79.7784435  45.9447121  -2.1764176  79.2864704
  46.8848566  -3.1218982  80.0034576  42.4201700  -5.4828927  80.6207943
  42.9530036  -6.2440639  80.3907251  41.8915781  -5.7755276  81.3632098
  43.7854412  -6.3542935  68.1326755  43.2575774  -7.0890175  67.8199993
  43.2841915  -5.5768258  67.8866723  44.8375091   0.1734783  64.0558414
  44.1636790   0.4766479  64.6643372  45.2240913   0.9763863  63.7063871
  43.1095246  -8.4350130  65.6585718  42.2006465  -8.7191097  65.7558188
  43.1390330  -8.0151051  64.7989025  48.3414513  -4.8243540  69.4276886
  47.8876841  -5.6652630  69.4842076  47.7108480  -4.1882142  69.7651666
  46.7847453  -2.9867044  70.3626704  47.0770427  -2.4261986  69.6439070
  47.2946073  -2.6938483  71.1179863  42.8071334  -6.8941386  62.9973797
  42.3690764  -7.6105527  62.5379434  43.5481775  -6.6665271  62.4358888
  41.7481078  -2.2086692  71.4520157  41.7057257  -1.9825846  70.5228689
  42.6643777  -2.4423318  71.6005958  39.8646879  -5.3323663  71.2482120
  40.6587477  -5.8273343  71.0464695  39.1538571  -5.8605800  70.8849825
  44.6841723  -2.9505568  75.5994487  44.7378745  -2.3814632  76.3672203
  43.8156504  -2.7803683  75.2348525  46.8744486  -6.3577219  82.1735153
  46.7229993  -6.5866667  81.2565237  46.8649166  -5.4006617  82.1866498
  42.4418155  -4.7594641  74.9279957  42.3029240  -5.1275857  75.8005895
  41.6532751  -4.2447002  74.7563915  43.0366307   0.3414455  66.2705494
  43.2118062  -0.1297502  67.0851116  42.3499095   0.9680221  66.4986754
  43.9923370  -5.3813039  72.3168795  43.6573202  -5.4212269  73.2126445
  43.4927315  -6.0468323  71.8439205  48.5836693  -3.3258096  80.2511635
  48.5249239  -4.0098876  79.5842218  48.9856211  -2.5839106  79.7992261
  37.6027392   3.4903818  73.0445354  37.8423990   4.1222342  73.7224372
  36.7596588   3.1391858  73.3310713  48.5854100  -5.3618512  78.4825614
  47.6980879  -5.6992590  78.6052013  49.1552651  -6.0935481  78.7194380
  42.1155254  -0.7017060  75.4486858  42.0425425   0.1037912  75.9606162
  41.6732647  -0.5025094  74.6234879  41.9045033  -1.4645290  68.9589679
  41.1212555  -0.9223610  69.0527904  42.6037779  -0.9471310  69.3583920
  44.5753937  -0.8030226  77.6045016  45.2881909  -0.1682761  77.5320918
  44.0843966  -0.7066360  76.7885018  39.6265851  -3.0535782  78.4250587
  40.3275310  -2.4199299  78.5779981  39.1560966  -2.7121051  77.6646226
  47.7520247  -4.7117832  66.7098494  48.0280091  -4.8261238  67.6192368
  46.8824745  -5.1100348  66.6710667  44.3874311  -0.4631482  70.3531308
  44.5696705  -1.2809826  70.8159060  45.2107297  -0.2463789  69.9156198
  44.7216476  -1.5363297  67.6146356  45.2504243  -2.0470842  67.0016518
  44.9844696  -1.8520766  68.4791889  35.2233569  -3.5199427  75.3581690
  35.8087006  -4.2655739  75.4909594  35.0258407  -3.2095471  76.2418354
  38.0772224  -0.4848180  70.3744132  37.4082599  -0.0002052  69.8908172
  37.9385094  -0.2378959  71.2887511  42.2177493   1.5495564  76.9726791
  42.7695801   1.7127185  77.7375876  42.5583686   2.1400002  76.3006815
  47.0688367  -3.6243179  82.8275445  47.6128271  -3.0113221  82.3330400
  46.4875212  -3.0663600  83.3442458  45.3545880  -0.5022461  73.9590473
  45.2297019  -1.3032721  73.4501418  46.0124971  -0.0076267  73.4704443
  47.4180788  -2.7013441  75.5870023  46.4711124  -2.8208090  75.5148350
  47.7663561  -3.5890943  75.6696284  44.4227222  -2.9060724  71.7874375
  44.2752184  -3.8344017  71.9681945  45.2480715  -2.8840634  71.3031450
  48.0261343  -2.0832166  72.8739248  48.9507891  -2.2889304  72.7363699
  47.8576647  -2.3315765  73.7828589  47.8156660  -1.5646498  68.2301339
  47.9893537  -2.1300076  67.4775192  48.3085551  -0.7645603  68.0480829
  48.8031832  -2.2479734  65.3298238  49.4982737  -1.6273041  65.5485552
  49.1454982  -3.0984383  65.6050615  50.7023255  -4.7980028  66.8585568
  51.2274579  -4.4592756  66.1334888  50.6145608  -5.7333013  66.6748703
  42.3643304  -0.8845955  78.9875445  42.6730430  -1.1296808  79.8598145
  43.1618786  -0.6799316  78.4994315  42.3863916   1.2691955  71.2180821
  41.9468906   0.7768334  71.9113678  43.1372033   0.7264923  70.9772897
  34.8656255  -2.5396504  71.2205450  35.6914275  -2.8392732  70.8404093
  34.5150307  -3.3088882  71.6695238  39.8337788  -3.1870036  73.2903123
  39.2117797  -3.8499331  72.9905351  40.5042655  -3.1608904  72.6076771
  50.3917161  -4.1647125  82.1636766  49.6012705  -4.1822986  81.6241266
  50.1550516  -3.6258831  82.9185803  39.3951295  -4.6366113  66.7661584
  39.5439415  -3.9530648  66.1128256  40.2017739  -4.6561023  67.2811039
  52.0133233  -4.8957717  79.7211516  51.7218042  -4.5327736  80.5574977
  51.4005365  -5.6090709  79.5424848  42.8946701  -2.1417982  64.2373331
  42.3220668  -1.5227795  63.7843803  43.4679494  -1.5918621  64.7713253
  46.1143960  -1.8580832  65.3681913  47.0474634  -1.9235270  65.5714789
  46.0267173  -1.0224565  64.9096446  48.7431977  -2.5414962  62.3285861
  48.6645609  -2.8755098  63.2221619  49.5641644  -2.0493194  62.3277333
  43.1632192  -6.7539423  83.0390041  44.0835201  -6.5760824  83.2330087
  43.1281775  -7.6983378  82.8869740  36.8226737  -5.9503509  75.9249066
  37.7769991  -5.9819567  75.8578998  36.6239261  -6.4112886  76.7399292
  37.4126119  -7.3802393  78.4919864  38.2319008  -6.8858315  78.5154701
  37.6862927  -8.2970425  78.4637431  35.1776966  -0.4083890  72.9419264
  35.0431434  -1.1683489  72.3757262  34.7609028   0.3157010  72.4748053
  46.3135929  -5.2246966  61.9495839  47.0171779  -5.0196964  62.5653495
  45.5898578  -4.6570204  62.2144923  38.3346092   0.4885427  73.1537707
  38.2178476   1.4330860  73.0516397  37.5138538   0.1858989  73.5423506
  48.2222626  -4.7864437  63.9994299  49.0568230  -5.2183239  63.8171774
  48.0606969  -4.9582423  64.9271194  45.1914426  -5.9783412  84.6904201
  46.0605585  -5.8042760  84.3290836  44.7121177  -5.1588995  84.5679931
  39.3600606   1.1413689  76.3693635  40.2627853   1.1737299  76.6860130
  39.1337976   0.2114140  76.3839971  41.1154208  -0.1055324  73.0303714
  40.1649839  -0.1053463  72.9168086  41.4186694  -0.8522590  72.5139748
  56.8506901   5.7305214  74.0949476  57.4885311   5.6111961  73.3912816
  56.7327744   6.6786058  74.1537428  53.6596608   5.6832642  74.0311001
  53.3215119   5.5673707  73.1431536  54.5286376   5.2823807  74.0112007
  49.5183423   7.5368118  70.0207892  48.9548288   7.4458055  69.2524179
  49.4035818   6.7168023  70.5010384  54.1416391   6.8367494  79.9897206
  54.1305031   6.4420292  79.1177710  54.3037030   6.1033566  80.5830978
  47.0647855   9.0319310  72.8592112  47.8569147   8.6910135  72.4438411
  47.3044505   9.1414285  73.7794265  55.0982982  11.2039086  65.3322357
  54.4470962  11.7893167  64.9456370  55.8927345  11.7345281  65.3917394
  49.0238609   8.2928223  65.7309491  49.7969485   7.7457210  65.5922367
  49.3764008   9.1572473  65.9423952  50.8623652   9.6204606  78.9376390
  50.5713518  10.5250236  78.8223057  51.4980636   9.6621133  79.6520460
  51.7879859   6.9981454  75.5277750  52.3843431   6.7737477  74.8134713
  51.8454830   6.2566200  76.1303198  51.3604887   4.4520889  63.3627941
  51.6130408   3.9302411  62.6011404  50.4229446   4.2887035  63.4654624
  56.4048170   3.4556668  71.1702684  57.1911259   3.0376091  70.8193101
  56.6686874   4.3602760  71.3384333  56.5758247   8.8929518  65.8691341
  55.9404080   8.9664145  66.5812246  56.2455654   9.4823117  65.1910420
  61.8056597   3.3931901  72.0735663  62.5381769   2.8231118  72.3073492
  61.0495953   3.0053501  72.5142168  51.0801176   6.3548995  65.5652316
  50.9637434   5.6793899  66.2333400  51.1903436   5.8681369  64.7484469
  53.4232717   5.8159143  69.2699005  53.0590924   5.2889763  69.9811927
  54.2799833   5.4257612  69.0965490  59.3282017  -2.8946525  76.5330271
  58.9965342  -2.0251114  76.3091486  58.7327631  -3.2110241  77.2124302
  53.0638204   0.8449042  64.2660354  53.2312606   1.7129279  64.6330825
  52.8735373   1.0076324  63.3421643  55.8213537   9.3066021  75.9326184
  55.5214260  10.2091060  75.8241991  55.4764596   9.0398204  76.7847337
  49.2726018   5.7579818  71.9662888  48.3476515   5.6256032  72.1740580
  49.5210432   6.5374037  72.4632831  59.2210681   1.8248561  73.6123621
  58.3127558   1.7563970  73.3182382  59.1698276   2.3020506  74.4405447
  53.0427425   3.3006700  65.2507020  52.9227050   3.7463750  66.0892501
  52.3480013   3.6492017  64.6920559  46.6334829   5.4013092  72.8006677
  46.7627211   5.6547570  73.7146089  45.9532281   5.9940800  72.4811333
  50.8034317  16.0710341  68.8997152  50.7258346  17.0218167  68.9785632
  50.1995960  15.7256214  69.5572078  53.2951546   3.2438207  81.5558519
  52.5184880   3.8032127  81.5461383  53.9342109   3.7294990  82.0773389
  61.0872327   0.0265000  75.3901495  60.4446707   0.3197533  74.7441290
  60.5827256  -0.0882080  76.1954692  58.7412491   3.7728173  66.0787354
  59.6530347   4.0055560  65.9035052  58.2322138   4.3565217  65.5162433
  51.5497919   6.0523660  81.1176486  52.2912603   6.5908704  80.8411309
  50.8434904   6.6789949  81.2748037  57.0253258   8.1952801  79.7148647
  57.4336614   7.7535211  78.9703279  56.3030520   7.6205428  79.9682840
  53.3784328   3.1325407  77.0882204  54.2245524   3.5564821  77.2316853
  53.3182966   2.4759032  77.7820767  57.3482073   8.7553991  73.4700936
  56.7190935   8.9199705  72.7677004  56.9607735   9.1695601  74.2411900
  61.2271305   9.6908429  70.8245300  60.5422343  10.0707331  70.2742333
  61.3115154  10.3003756  71.5577247  56.5283774   0.7929776  78.7463378
  56.2844706   1.5471836  78.2097653  56.8043704   1.1715123  79.5810625
  58.4822237   7.3368388  77.4240643  58.6939132   7.9800148  76.7475024
  58.4351985   6.5030705  76.9562573  56.0848465  -0.0513791  74.3277215
  55.2232945   0.2467462  74.6193953  56.1110900   0.1656608  73.3958248
  52.9010035   8.4928399  70.7351021  53.3648380   8.7716102  69.9455644
  52.6366833   7.5911844  70.5524112  49.7934116   8.0399881  73.6730784
  50.3635473   8.4687149  73.0348269  50.3842228   7.7582466  74.3714970
  51.8378921   4.6151552  67.5440586  52.5402964   5.0672595  68.0114513
  51.5059549   3.9735371  68.1720479  50.2859282   3.2063308  81.9191796
  49.6557943   3.8879589  82.1527192  50.1795370   3.0946390  80.9744934
  45.5804255   2.8735104  72.8457720  44.7903309   3.1292633  72.3697830
  46.0715502   3.6883442  72.9509760  59.5968064  10.2140344  75.5963001
  60.4185508   9.8120531  75.3145682  59.5930467  10.1108578  76.5479116
  47.5319000   3.2379684  69.8041196  46.7350164   3.3498378  70.3224692
  47.3044592   3.5766336  68.9382087  53.3624668   9.7624387  77.7523711
  53.4269100  10.2244794  78.5881883  52.6535592   9.1321752  77.8806021
  43.8641958   3.1265595  75.2772711  44.1149996   4.0112605  75.5430286
  44.4001506   2.9470196  74.5047802  67.6874058   6.5579092  71.9447972
  66.9337766   5.9886490  71.7891976  67.8221599   6.5241757  72.8918607
  53.0772686  11.4292494  67.6202691  52.9418360  12.2744030  68.0487539
  53.6182498  11.6311772  66.8568625  49.5640025  -2.4915926  84.2817047
  49.1706971  -3.0449727  84.9564691  50.3806166  -2.1805347  84.6723564
  46.5302083   8.9467932  68.1930616  47.0426604   9.7411183  68.3436181
  47.1824796   8.2494223  68.1264218  48.3396968  12.0633689  70.2753370
  48.5163596  12.9851653  70.0874354  49.1353801  11.7492108  70.7047749
  52.4807986  -1.0758047  81.8737303  53.2217700  -0.4750893  81.7941766
  52.7125909  -1.8180409  81.3155346  47.6249324   4.1098321  80.1515533
  47.5102839   3.2083578  80.4522632  46.7693842   4.3562017  79.8000349
  54.7041162  12.0516061  81.7503033  54.2605016  11.2652440  81.4323938
  55.3658376  12.2395211  81.0846924  49.4628283  13.5811863  76.2763712
  50.0135708  13.4528926  75.5040706  48.6239759  13.8806752  75.9258605
  56.8022400  12.3318861  79.7784435  56.7840875  13.1527742  79.2864704
  57.7242320  12.2072936  80.0034576  53.2595454   9.8462990  80.6207943
  53.7923791   9.0851279  80.3907251  52.7309535   9.5536642  81.3632098
  44.4951000   7.2756587  68.9690187  45.3326222   7.6853595  68.7523895
  44.6729267   6.3356029  68.9390381  56.3915432   4.9431667  64.6574020
  55.8762055   5.7136272  64.8962407  56.1192740   4.2696804  65.2807081
  53.9762543  -0.2118632  69.7159258  53.1204139  -0.6011781  69.5364897
  54.3889495  -0.1326671  68.8559044  55.5061690  -2.6772289  74.1150818
  55.0026485  -2.7142153  73.3018623  55.7992296  -1.7679546  74.1747475
  51.7504575  -2.5933559  73.1217000  52.6157572  -2.7890750  72.7622889
  51.8182084  -2.8223207  74.0486357  61.3649706   7.6964022  66.5927193
  60.5879149   7.3575182  66.1482356  62.0441187   7.7016645  65.9182158
  56.1801735   2.8158760  66.4833801  55.8751871   3.1304909  67.3343944
  57.1332177   2.8940179  66.5261134  54.6248167   8.9748983  68.1326755
  54.0969528   8.2401742  67.8199993  54.1235670   9.7523659  67.8866723
  59.6041013   7.1698003  73.2493801  58.9464687   7.8597265  73.3373930
  60.4081412   7.5594435  73.5927788  49.3566894  -0.3631351  70.4933367
  49.9310646  -0.5856169  69.7606560  49.9437877  -0.2942656  71.2461968
  58.4146472   5.5242376  71.2997743  58.9278353   6.1572368  71.8019453
  59.0647696   4.9243572  70.9341103  49.6836482   1.6673110  64.5129252
  48.8473794   2.0047797  64.8338527  49.5441251   1.5322090  63.5756389
  51.6589562  -3.4890102  69.2208436  51.0053975  -3.8041085  68.5965051
  51.6170036  -4.1114362  69.9468259  52.7700767   6.7929193  61.1361728
  51.8627829   6.5618447  61.3352877  53.2671799   5.9966812  61.3235710
  55.6768846  15.5026700  64.0558414  55.0030545  15.8058397  64.6643372
  56.0634668  16.3055781  63.7063871  54.8927303   2.9991832  73.5456084
  53.9749864   3.2206779  73.3877772  55.3087446   3.0738142  72.6867791
  55.6762350   4.3983247  68.6758764  56.4234169   4.9104644  68.3665886
  55.9453940   4.0767300  69.5363158  53.9489000   6.8941788  65.6585718
  53.0400220   6.6100821  65.7558188  53.9784084   7.3140867  64.7989025
  59.1808268  10.5048377  69.4276886  58.7270595   9.6639287  69.4842076
  58.5502235  11.1409776  69.7651666  58.1241187   1.4340363  70.6577553
  57.3863944   0.9217750  70.9887796  58.3767961   0.9940745  69.8460830
  57.6241207  12.3424874  70.3626704  57.9164182  12.9029931  69.6439070
  58.1339828  12.6353435  71.1179863  44.5177171   4.6147302  69.6400920
  44.3201571   4.0216663  68.9151987  43.9623835   4.3099512  70.3576859
  52.4973895   4.5070409  71.7595514  52.5522504   3.5544245  71.6837990
  51.6865097   4.6629848  72.2436812  53.6465088   8.4350532  62.9973797
  53.2084518   7.7186391  62.5379434  54.3875529   8.6626646  62.4358888
  50.4366254   3.1247468  69.5185892  49.6234120   3.4241639  69.9251085
  50.9325249   2.7303157  70.2360375  52.5874832  13.1205225  71.4520157
  52.5451011  13.3466072  70.5228689  53.5037531  12.8868600  71.6005958
  56.0340466   3.5889293  78.3500786  56.3889854   3.8160766  79.2095252
  56.6812597   3.9207670  77.7278042  61.7638203   6.7107729  69.0550115
  61.6256102   6.9009325  68.1271305  61.4074422   7.4727111  69.5118167
  49.9280329   0.6965824  75.1347127  50.5679709   0.5554583  74.4370091
  49.0957860   0.4100337  74.7585729  61.7907583   8.7784256  74.0661387
  62.2244089   8.6859545  74.9144441  62.5039163   8.7541756  73.4281403
  50.7040633   9.9968254  71.2482120  51.4981232   9.5018574  71.0464695
  49.9932326   9.4686117  70.8849825  55.5235478  12.3786350  75.5994487
  55.5772500  12.9477286  76.3672203  54.6550259  12.5488235  75.2348525
  47.0123397   4.1411336  67.3241873  46.0820985   4.0795791  67.5411835
  47.1080869   3.6187289  66.5278514  46.9308946   0.6666149  69.9120114
  47.1915763   1.5811482  69.8029275  47.7526118   0.1990591  70.0616727
  48.4033871   2.0803906  77.0818939  49.0756924   1.8721268  76.4331588
  47.5763657   1.8825992  76.6424171  62.6523132   8.8207956  76.5994272
  62.8459022   9.7253767  76.8453547  62.5523750   8.3615375  77.4332857
  54.3059443  -1.2934153  79.0984600  53.6587358  -0.5944203  79.0049076
  55.0760458  -0.8598009  79.4660848  57.7138241   8.9714699  82.1735153
  57.5623747   8.7425251  81.2565237  57.7042920   9.9285300  82.1866498
  54.4823577   6.5446612  77.1581419  55.4115637   6.6957771  76.9850387
  54.0614607   6.6330633  76.3030066  53.2811909  10.5697276  74.9279957
  53.1422995  10.2016061  75.8005895  52.4926505  11.0844916  74.7563915
  53.8760061  15.6706373  66.2705494  54.0511817  15.1994416  67.0851116
  53.1892849  16.2972139  66.4986754  54.8317124   9.9478879  72.3168795
  54.4966957   9.9079649  73.2126445  54.3321070   9.2823595  71.8439205
  48.8061368   5.3546509  77.8421376  48.6681166   4.6226748  78.4432915
  49.7166292   5.2655409  77.5605564  57.7676316   7.2934913  62.5905854
  57.1505487   6.5681741  62.4938907  57.2992804   8.0544274  62.2472929
  51.4343669   5.0666468  77.3305056  52.1443287   4.4259660  77.2891674
  51.3912977   5.3179363  78.2531236  59.4230448  12.0033822  80.2511635
  59.3642994  11.3193042  79.5842218  59.8249966  12.7452812  79.7992261
  50.1472603   2.0531686  79.1500695  49.6109960   1.6022425  79.8022291
  49.5589311   2.1877595  78.4071159  48.4421146  18.8195735  73.0445354
  48.6817745  19.4514260  73.7224372  47.5990343  18.4683775  73.3310713
  49.5574862   1.5120338  61.7127159  48.6804328   1.3909138  61.3489405
  50.0332615   0.7206416  61.4606047  59.4247855   9.9673406  78.4825614
  58.5374634   9.6299327  78.6052013  59.9946406   9.2356437  78.7194380
  41.0777002   6.2997497  71.8068666  41.7648042   5.9859227  71.2189681
  40.9225131   7.2038862  71.5335917  45.8811724   1.1887694  76.2353690
  45.7969913   0.5813363  75.5004099  45.0594431   1.6796712  76.2363186
  52.9549008  14.6274858  75.4486858  52.8819180  15.4329829  75.9606162
  52.5126401  14.8266824  74.6234879  52.7438788  13.8646628  68.9589679
  51.9606310  14.4068308  69.0527904  53.4431533  14.3820608  69.3583920
  56.0535438  -0.3258743  71.6023885  56.5504138  -1.0788780  71.2824955
  55.2822419  -0.2894426  71.0367094  63.9065195   5.3781623  73.2442176
  63.8955072   6.2606338  72.8736109  63.0382575   5.0253174  73.0496713
  55.4147692  14.5261692  77.6045016  56.1275664  15.1609157  77.5320918
  54.9237720  14.6225558  76.7885018  57.1365219   8.4312945  69.1762308
  56.2021497   8.5514407  69.0067012  57.3141887   7.5285411  68.9122318
  52.6370407   1.8158640  71.3295569  52.2668194   1.2629681  72.0176475
  53.1329499   1.2116774  70.7770569  60.5237770   4.2730264  69.7112342
  60.9898222   5.1058255  69.6372645  60.9745271   3.8075245  70.4157601
  50.4659605  12.2756135  78.4250587  51.1669065  12.9092618  78.5779981
  49.9954720  12.6170867  77.6646226  58.5914001  10.6174085  66.7098494
  58.8673845  10.5030680  67.6192368  57.7218500  10.2191570  66.6710667
  58.2660891   4.8300743  76.2503137  57.6132341   5.0776650  75.5955590
  58.6441271   4.0164881  75.9165615  55.2268065  14.8660436  70.3531308
  55.4090460  14.0482092  70.8159060  56.0501051  15.0828128  69.9156198
  55.5610231  13.7928621  67.6146356  56.0897997  13.2821076  67.0016518
  55.8238450  13.4771151  68.4791889  54.3148464   5.5720554  82.7369175
  53.6389101   5.4714683  83.4071550  55.1376098   5.4159768  83.2005172
  46.0627323  11.8092490  75.3581690  46.6480760  11.0636178  75.4909594
  45.8652162  12.1196447  76.2418354  48.9165979  14.8443738  70.3744132
  48.2476354  15.3289865  69.8908172  48.7778848  15.0912958  71.2887511
  40.6544978   4.3798091  74.0786133  40.6929078   3.8461681  74.8723251
  40.1485271   3.8533296  73.4597110  53.0571247  16.8787481  76.9726791
  53.6089555  17.0419103  77.7375876  53.3977441  17.4691919  76.3006815
  48.0335740  -0.7737369  77.5748675  48.0977067   0.0877462  77.1626073
  47.9702861  -1.3863367  76.8421034  47.5088013   1.2985764  81.2221710
  48.1360052   0.9162841  81.8359234  46.6515932   1.0799966  81.5877402
  57.9082121  11.7048739  82.8275445  58.4522025  12.3178697  82.3330400
  57.3268966  12.2628317  83.3442458  44.2853556   3.1062193  67.1540064
  44.5806997   2.1972871  67.1007118  43.3841591   3.0849932  66.8321067
  56.1939634  14.8269457  73.9590473  56.0690774  14.0259197  73.4501418
  56.8518726  15.3215650  73.4704443  47.8147803   1.1818189  73.1367613
  47.0934388   1.7954157  72.9975086  48.6041058   1.7175954  73.0584259
  58.2574543  12.6278477  75.5870023  57.3104878  12.5083828  75.5148350
  58.6057316  11.7400975  75.6696284  50.6174116  -1.4827384  79.4108265
  51.1408518  -1.2365088  80.1734574  50.3986449  -0.6507349  78.9911402
  46.0141397   0.7876290  67.2779390  45.6854103  -0.0926331  67.0954495
  46.3680768   0.7323959  68.1655779  55.2620976  12.4231193  71.7874375
  55.1145939  11.4947901  71.9681945  56.0874470  12.4451284  71.3031450
  49.1283220   1.0749260  67.6454867  49.4679293   1.6035182  66.9233476
  49.5755341   1.4129666  68.4213434  58.8655098  13.2459752  72.8739248
  59.7901645  13.0402613  72.7363699  58.6970401  12.9976153  73.7828589
  51.8226661  -0.5413689  77.0957935  51.4823482  -1.3405876  77.4978615
  51.1165667  -0.2411978  76.5234768  52.4743133  -3.4564377  75.5485258
  53.2969202  -3.9303898  75.4264149  52.7181197  -2.6773893  76.0483945
  51.1151368  -0.4276118  65.8448160  51.8359730  -0.0494865  65.3411877
  50.4916672   0.2912759  65.9483138  55.2582490   0.2769031  66.7806492
  55.4746105   1.1593669  66.4795320  54.7776558  -0.1144756  66.0512134
  49.9981712   3.2354744  73.3577237  49.8526293   3.5495047  74.2501518
  49.5206915   3.8539644  72.8048136  51.8578095   0.2257292  73.4058126
  51.8439663  -0.6701615  73.0690424  52.5750523   0.2327956  74.0396412
  53.7104225   0.6594632  75.4511254  53.4522003   1.5811703  75.4495584
  53.1789266   0.2625067  76.1411718  58.6550414  13.7645419  68.2301339
  58.8287292  13.1991842  67.4775192  59.1479305  14.5646314  68.0480829
  44.4727374   5.7760088  76.2964898  43.9280842   6.5519896  76.4285172
  45.3506724   6.1230893  76.1384019  51.2614991  -0.8928328  68.6745697
  51.3830902  -1.8211681  68.8736584  50.9717033  -0.8789642  67.7624012
  54.1306181  -3.2073417  71.8112416  54.1527878  -3.1434084  70.8564396
  54.5474240  -4.0468909  72.0052923  64.5089805   6.5281842  69.8491639
  64.9520951   5.7789168  69.4510762  63.6316316   6.5191979  69.4665371
  59.6425587  13.0812184  65.3298238  60.3376491  13.7018876  65.5485552
  59.9848737  12.2307535  65.6050615  45.2593396   4.9029985  79.1895055
  44.5175132   5.0512620  79.7759685  44.9386140   5.1638250  78.3261804
  61.5417010  10.5311889  66.8585568  62.0668334  10.8699162  66.1334888
  61.4539362   9.5958905  66.6748703  53.2037058  14.4445963  78.9875445
  53.5124185  14.1995110  79.8598145  54.0012540  14.6492601  78.4994315
  53.2257671  16.5983873  71.2180821  52.7862661  16.1060251  71.9113678
  53.9765787  16.0556840  70.9772897  45.7050010  12.7895413  71.2205450
  46.5308029  12.4899185  70.8404093  45.3544061  12.0203036  71.6695238
  50.6731543  12.1421882  73.2903123  50.0511552  11.4792587  72.9905351
  51.3436410  12.1683014  72.6076771  43.9058615  10.7081740  72.1794383
  43.0690523  10.2803914  71.9978384  43.8782260  10.9014183  73.1165174
  50.7456070   0.6203670  82.8835629  50.7944226   1.4965793  82.5013399
  51.2878584   0.0781063  82.3107272  61.2310916  11.1644793  82.1636766
  60.4406460  11.1468932  81.6241266  60.9944270  11.7033087  82.9185803
  61.3508791   8.0137259  79.4769495  61.4006796   7.8487267  80.4185018
  61.2422714   7.1464518  79.0867376  50.2345050  10.6925805  66.7661584
  50.3833170  11.3761269  66.1128256  51.0411493  10.6730895  67.2811039
  58.6412553   3.9968187  80.7928801  59.5422416   3.8574652  80.5012799
  58.7160528   4.1622642  81.7326979  52.9755359   1.3735042  79.6381988
  52.1058668   1.6668608  79.3664576  53.2114839   1.9575487  80.3589251
  62.8526988  10.4334201  79.7211516  62.5611796  10.7964181  80.5574977
  62.2399119   9.7201209  79.5424848  64.0522670   7.9987081  72.2414087
  64.8869561   8.4376885  72.4051647  64.1881799   7.5225734  71.4222332
  61.1014176   5.5566815  78.1891574  61.5768298   5.7494462  77.3810426
  60.1779741   5.6126001  77.9434958  47.9897683   6.7190983  67.7722653
  47.7443725   5.8153313  67.9702863  48.1593597   6.7208133  66.8302131
  55.6794392  -2.4085341  77.1547408  56.1976336  -1.6724314  76.8293897
  55.3249525  -2.1021348  77.9894167  47.2593330   2.4519340  65.2708814
  46.5662575   2.5263695  64.6148850  47.0145082   1.6879684  65.7930331
  53.7340455  13.1873935  64.2373331  53.1614422  13.8064123  63.7843803
  54.3073249  13.7373297  64.7713253  59.8015845   2.4332576  76.4219880
  60.7533268   2.5330673  76.4432104  59.6319295   1.6410844  76.9317964
  57.8230224  -0.4811841  76.6079281  57.2280157  -0.2006829  75.9125769
  57.5379921   0.0082060  77.3796022  56.9537715  13.4711086  65.3681913
  57.8868388  13.4056647  65.5714789  56.8660928  14.3067352  64.9096446
  59.5825732  12.7876956  62.3285861  59.5039363  12.4536820  63.2221619
  60.4035398  13.2798724  62.3277333  62.2803923   5.6538695  75.5362180
  62.2480243   4.7154696  75.7221863  62.8904546   5.7322732  74.8028004
  54.1187254   4.5234748  61.5789384  55.0646358   4.3940956  61.6477802
  53.7401499   3.7849410  62.0558812  62.4298411   2.4449739  75.5820463
  61.9137460   1.6608195  75.3950392  63.3138360   2.1168455  75.7466982
  68.0980473   6.7154702  74.6768216  68.8283861   6.4539990  75.2375920
  67.4887418   5.9783424  74.7170284  66.1795770   4.8562565  75.2742668
  65.4528933   4.7218530  74.6659159  65.7643057   5.1639393  76.0799386
  54.0025946   8.5752494  83.0390041  54.9228956   8.7531093  83.2330087
  53.9675529   7.6308540  82.8869740  52.3030171   2.4484725  61.5144269
  51.3961626   2.1517837  61.5906982  52.5806152   2.1514543  60.6478555
  43.2208111   3.7691088  71.9643315  42.9010895   2.9156396  71.6717689
  42.6741539   3.9839666  72.7201283  46.9988019   6.4853529  75.6812822
  47.2174028   7.4170637  75.7000856  47.4113793   6.1261503  76.4667626
  53.9192236  -3.0078386  67.6688510  53.1092965  -3.3531301  68.0443756
  54.6076653  -3.3170842  68.2576122  51.8715884   2.0586735  85.0715571
  51.7712611   3.0081092  85.0027662  51.6537426   1.7304974  84.1991641
  51.0728955  -0.6928340  61.6556248  51.9348119  -0.3673442  61.9152065
  51.2579300  -1.4796844  61.1429314  43.0896371   7.3893999  73.9336437
  42.3959843   6.9747952  73.4206391  43.8369362   7.4314536  73.3369856
  59.2261592  -1.8199814  68.7991471  58.6460261  -1.1615010  68.4169523
  58.9597525  -2.6422469  68.3878889  57.6765158  -2.4194756  71.0012791
  58.1764937  -2.3078221  70.1927110  58.3200766  -2.7233703  71.6413600
  51.7347154   5.4883874  83.8880632  51.2514236   6.2884234  84.0944521
  51.8208093   5.4991818  82.9348076  45.0033114   7.3212253  71.8102452
  44.9803802   7.4199941  70.8584335  45.3133750   8.1677404  72.1319618
  47.6620492   9.3788408  75.9249066  48.6163745   9.3472351  75.8578998
  47.4633015   8.9179032  76.7399292  48.2519874   7.9489524  78.4919864
  49.0712763   8.4433603  78.5154701  48.5256681   7.0321492  78.4637431
  58.0086470   0.3400277  67.8547819  57.1212325   0.6249927  67.6368014
  58.4240459   0.1794040  67.0075096  61.3601006   0.3646798  71.5702159
  62.1361396   0.8543250  71.8426775  60.6349140   0.7904852  72.0274028
  63.7973565   1.0774417  72.6276099  64.3918055   0.8370153  71.9169407
  63.8700148   0.3581547  73.2549635  46.0170720  14.9208028  72.9419264
  45.8825188  14.1608429  72.3757262  45.6002783  15.6448928  72.4748053
  57.1529683  10.1044951  61.9495839  57.8565533  10.3094954  62.5653495
  56.4292332  10.6721713  62.2144923  57.9827494   5.8554813  68.0698109
  57.9262695   6.3123364  67.2305742  58.5355836   5.0945497  67.8920952
  61.7932300   1.6444544  68.8948229  61.5369234   1.2441180  69.7256437
  61.1685168   2.3588338  68.7698368  66.1044637   4.3840618  71.4019520
  65.5444195   4.4533807  72.1751082  65.4988141   4.2081602  70.6819017
  49.1739846  15.8177345  73.1537707  49.0572230  16.7622777  73.0516397
  48.3532292  15.5150906  73.5423506  59.0616381  10.5427481  63.9994299
  59.8961985  10.1108679  63.8171774  58.9000724  10.3709494  64.9271194
  58.7162273   7.0459594  65.3650639  58.6611077   6.8803865  64.4239083
  58.0908328   7.7535627  65.5212828  43.5054788   2.2827658  79.1912061
  44.1513652   1.7726612  79.6799286  43.2971939   3.0196340  79.7655486
  56.0308180   9.3508506  84.6904201  56.8999340   9.5249158  84.3290836
  55.5514932  10.1702923  84.5679931  52.0258398  -3.4532297  64.9435957
  52.0137068  -2.5090457  65.1004228  52.9181820  -3.6362152  64.6495418
  50.1994360  16.4705607  76.3693635  51.1021607  16.5029217  76.6860130
  49.9731730  15.5406058  76.3839971  51.9547962  15.2236593  73.0303714
  51.0043593  15.2238455  72.9168086  52.2580449  14.4769328  72.5139748
  47.8452279  -0.5704725  83.2887075  48.7083740  -0.9267920  83.4990400
  47.2717690  -0.9090830  83.9762479  67.6900656  21.0597132  74.0949476
  68.3279066  20.9403879  73.3912816  67.5721499  22.0077976  74.1537428
  64.4990362  21.0124560  74.0311001  64.1608874  20.8965624  73.1431536
  65.3680130  20.6115725  74.0112007  60.3577178  22.8660036  70.0207892
  59.7942043  22.7749973  69.2524179  60.2429573  22.0459941  70.5010384
  64.9810145  22.1659411  79.9897206  64.9698786  21.7712210  79.1177710
  65.1430785  21.4325484  80.5830978  57.9041610  24.3611228  72.8592112
  58.6962902  24.0202052  72.4438411  58.1438260  24.4706203  73.7794265
  65.9376737  26.5331004  65.3322357  65.2864716  27.1185084  64.9456370
  66.7321099  27.0637199  65.3917394  59.8632364  23.6220141  65.7309491
  60.6363240  23.0749128  65.5922367  60.2157763  24.4864390  65.9423952
  61.7017406  24.9496523  78.9376390  61.4107272  25.8542154  78.8223057
  62.3374391  24.9913051  79.6520460  62.6273613  22.3273372  75.5277750
  63.2237185  22.1029394  74.8134713  62.6848585  21.5858117  76.1303198
  62.1998642  19.7812807  63.3627941  62.4524162  19.2594328  62.6011404
  61.2623201  19.6178953  63.4654624  67.2441924  18.7848585  71.1702684
  68.0305014  18.3668009  70.8193101  67.5080629  19.6894678  71.3384333
  67.4152002  24.2221436  65.8691341  66.7797835  24.2956062  66.5812246
  67.0849408  24.8115035  65.1910420  72.6450351  18.7223819  72.0735663
  73.3775523  18.1523036  72.3073492  71.8889707  18.3345419  72.5142168
  61.9194930  21.6840913  65.5652316  61.8031188  21.0085816  66.2333400
  62.0297190  21.1973287  64.7484469  64.2626471  21.1451060  69.2699005
  63.8984678  20.6181681  69.9811927  65.1193587  20.7549529  69.0965490
  70.1675772  12.4345393  76.5330271  69.8359097  13.3040804  76.3091486
  69.5721385  12.1181677  77.2124302  63.9031958  16.1740960  64.2660354
  64.0706361  17.0421196  64.6330825  63.7129127  16.3368242  63.3421643
  66.6607291  24.6357939  75.9326184  66.3608014  25.5382978  75.8241991
  66.3158351  24.3690122  76.7847337  60.1119773  21.0871736  71.9662888
  59.1870269  20.9547950  72.1740580  60.3604186  21.8665955  72.4632831
  70.0604435  17.1540479  73.6123621  69.1521312  17.0855887  73.3182382
  70.0092031  17.6312424  74.4405447  63.8821179  18.6298617  65.2507020
  63.7620804  19.0755668  66.0892501  63.1873767  18.9783935  64.6920559
  57.4728584  20.7305009  72.8006677  57.6020965  20.9839488  73.7146089
  56.7926035  21.3232717  72.4811333  61.6428071  31.4002259  68.8997152
  61.5652101  32.3510084  68.9785632  61.0389715  31.0548132  69.5572078
  64.1345301  18.5730125  81.5558519  63.3578635  19.1324045  81.5461383
  64.7735864  19.0586908  82.0773389  71.9266082  15.3556917  75.3901495
  71.2840462  15.6489451  74.7441290  71.4221010  15.2409838  76.1954692
  69.5806245  19.1020091  66.0787354  70.4924101  19.3347477  65.9035052
  69.0715892  19.6857135  65.5162433  62.3891673  21.3815578  81.1176486
  63.1306358  21.9200622  80.8411309  61.6828659  22.0081867  81.2748037
  67.8647013  23.5244718  79.7148647  68.2730369  23.0827129  78.9703279
  67.1424274  22.9497346  79.9682840  64.2178083  18.4617325  77.0882204
  65.0639278  18.8856739  77.2316853  64.1576721  17.8050949  77.7820767
  68.1875828  24.0845909  73.4700936  67.5584690  24.2491623  72.7677004
  67.8001490  24.4987519  74.2411900  72.0665059  25.0200347  70.8245300
  71.3816098  25.3999248  70.2742333  72.1508909  25.6295674  71.5577247
  67.3677528  16.1221694  78.7463378  67.1238460  16.8763754  78.2097653
  67.6437459  16.5007041  79.5810625  69.3215991  22.6660306  77.4240643
  69.5332886  23.3092066  76.7475024  69.2745739  21.8322622  76.9562573
  66.9242220  15.2778127  74.3277215  66.0626699  15.5759380  74.6193953
  66.9504655  15.4948525  73.3958248  63.7403789  23.8220317  70.7351021
  64.2042135  24.1008020  69.9455644  63.4760587  22.9203762  70.5524112
  60.6327870  23.3691799  73.6730784  61.2029228  23.7979067  73.0348269
  61.2235982  23.0874383  74.3714970  62.6772675  19.9443469  67.5440586
  63.3796719  20.3964513  68.0114513  62.3453304  19.3027288  68.1720479
  61.1253037  18.5355226  81.9191796  60.4951698  19.2171507  82.1527192
  61.0189125  18.4238308  80.9744934  56.4198009  18.2027022  72.8457720
  55.6297063  18.4584551  72.3697830  56.9109257  19.0175360  72.9509760
  70.4361819  25.5432261  75.5963001  71.2579263  25.1412449  75.3145682
  70.4324222  25.4400495  76.5479116  58.3712755  18.5671601  69.8041196
  57.5743918  18.6790296  70.3224692  58.1438347  18.9058254  68.9382087
  64.2018422  25.0916305  77.7523711  64.2662855  25.5536712  78.5881883
  63.4929346  24.4613670  77.8806021  54.7035712  18.4557513  75.2772711
  54.9543751  19.3404523  75.5430286  55.2395261  18.2762114  74.5047802
  78.5267812  21.8871010  71.9447972  77.7731520  21.3178408  71.7891976
  78.6615353  21.8533674  72.8918607  63.9166440  26.7584412  67.6202691
  63.7812115  27.6035948  68.0487539  64.4576253  26.9603690  66.8568625
  60.4033780  12.8375992  84.2817047  60.0100725  12.2842191  84.9564691
  61.2199920  13.1486570  84.6723564  57.3695837  24.2759850  68.1930616
  57.8820358  25.0703100  68.3436181  58.0218550  23.5786141  68.1264218
  59.1790722  27.3925606  70.2753370  59.3557350  28.3143571  70.0874354
  59.9747556  27.0784026  70.7047749  63.3201741  14.2533871  81.8737303
  64.0611454  14.8541024  81.7941766  63.5519664  13.5111509  81.3155346
  58.4643079  19.4390238  80.1515533  58.3496594  18.5375496  80.4522632
  57.6087596  19.6853935  79.8000349  65.5434916  27.3807979  81.7503033
  65.0998771  26.5944357  81.4323938  66.2052130  27.5687129  81.0846924
  60.3022038  28.9103780  76.2763712  60.8529463  28.7820844  75.5040706
  59.4633514  29.2098669  75.9258605  67.6416155  27.6610779  79.7784435
  67.6234630  28.4819660  79.2864704  68.5636075  27.5364854  80.0034576
  64.0989209  25.1754908  80.6207943  64.6317545  24.4143196  80.3907251
  63.5703290  24.8828560  81.3632098  67.2658904  10.2814974  76.1501585
  66.9223173  11.1716616  76.0740695  67.6337866  10.0916632  75.2871170
  55.3344754  22.6048504  68.9690187  56.1719976  23.0145513  68.7523895
  55.5123022  21.6647947  68.9390381  67.2309186  20.2723585  64.6574020
  66.7155810  21.0428190  64.8962407  66.9586495  19.5988721  65.2807081
  64.8156297  15.1173286  69.7159258  63.9597894  14.7280136  69.5364897
  65.2283249  15.1965247  68.8559044  66.3455444  12.6519629  74.1150818
  65.8420240  12.6149764  73.3018623  66.6386051  13.5612372  74.1747475
  62.5898330  12.7358359  73.1217000  63.4551327  12.5401168  72.7622889
  62.6575839  12.5068711  74.0486357  72.2043460  23.0255940  66.5927193
  71.4272903  22.6867099  66.1482356  72.8834941  23.0308563  65.9182158
  67.0195490  18.1450677  66.4833801  66.7145625  18.4596826  67.3343944
  67.9725932  18.2232097  66.5261134  65.4641921  24.3040901  68.1326755
  64.9363283  23.5693660  67.8199993  64.9629424  25.0815577  67.8866723
  70.4434767  22.4989921  73.2493801  69.7858442  23.1889182  73.3373930
  71.2475167  22.8886353  73.5927788  60.1960649  14.9660567  70.4933367
  60.7704401  14.7435748  69.7606560  60.7831631  15.0349261  71.2461968
  69.2540226  20.8534294  71.2997743  69.7672108  21.4864286  71.8019453
  69.9041450  20.2535489  70.9341103  60.5230236  16.9965028  64.5129252
  59.6867548  17.3339714  64.8338527  60.3835006  16.8614008  63.5756389
  62.4983317  11.8401816  69.2208436  61.8447729  11.5250833  68.5965051
  62.4563791  11.2177556  69.9468259  63.6094522  22.1221111  61.1361728
  62.7021583  21.8910364  61.3352877  64.1065554  21.3258730  61.3235710
  66.5162600  30.8318618  64.0558414  65.8424299  31.1350315  64.6643372
  66.9028422  31.6347698  63.7063871  65.7321057  18.3283749  73.5456084
  64.8143618  18.5498696  73.3877772  66.1481201  18.4030060  72.6867791
  66.5156105  19.7275165  68.6758764  67.2627924  20.2396562  68.3665886
  66.7847694  19.4059218  69.5363158  64.7882755  22.2233706  65.6585718
  63.8793974  21.9392738  65.7558188  64.8177839  22.6432784  64.7989025
  70.0202022  25.8340295  69.4276886  69.5664349  24.9931205  69.4842076
  69.3895989  26.4701694  69.7651666  68.9634942  16.7632281  70.6577553
  68.2257699  16.2509667  70.9887796  69.2161715  16.3232663  69.8460830
  68.4634962  27.6716792  70.3626704  68.7557936  28.2321849  69.6439070
  68.9733582  27.9645353  71.1179863  69.0646569   9.5408533  71.2519323
  69.3705446   8.6805897  70.9645238  69.7899174  10.1326153  71.0518316
  55.3570925  19.9439220  69.6400920  55.1595325  19.3508580  68.9151987
  54.8017589  19.6391430  70.3576859  63.3367649  19.8362326  71.7595514
  63.3916259  18.8836163  71.6837990  62.5258851  19.9921765  72.2436812
  64.4858843  23.7642449  62.9973797  64.0478273  23.0478308  62.5379434
  65.2269284  23.9918564  62.4358888  61.2760009  18.4539386  69.5185892
  60.4627874  18.7533557  69.9251085  61.7719003  18.0595075  70.2360375
  63.4268587  28.4497143  71.4520157  63.3844766  28.6757989  70.5228689
  64.3431286  28.2160518  71.6005958  66.8734221  18.9181210  78.3500786
  67.2283608  19.1452684  79.2095252  67.5206352  19.2499587  77.7278042
  72.6031958  22.0399646  69.0550115  72.4649856  22.2301242  68.1271305
  72.2468176  22.8019029  69.5118167  60.7674084  16.0257742  75.1347127
  61.4073463  15.8846501  74.4370091  59.9351614  15.7392255  74.7585729
  72.6301337  24.1076173  74.0661387  73.0637844  24.0151462  74.9144441
  73.3432918  24.0833674  73.4281403  61.5434388  25.3260172  71.2482120
  62.3374986  24.8310492  71.0464695  60.8326080  24.7978035  70.8849825
  66.3629232  27.7078267  75.5994487  66.4166254  28.2769204  76.3672203
  65.4944013  27.8780153  75.2348525  57.8517151  19.4703254  67.3241873
  56.9214739  19.4087709  67.5411835  57.9474623  18.9479206  66.5278514
  57.7702700  15.9958066  69.9120114  58.0309517  16.9103400  69.8029275
  58.5919872  15.5282509  70.0616727  59.2427625  17.4095824  77.0818939
  59.9150679  17.2013186  76.4331588  58.4157412  17.2117910  76.6424171
  73.4916887  24.1499874  76.5994272  73.6852777  25.0545685  76.8453547
  73.3917505  23.6907293  77.4332857  65.1453197  14.0357765  79.0984600
  64.4981113  14.7347714  79.0049076  65.9154213  14.4693909  79.4660848
  68.5531995  24.3006617  82.1735153  68.4017502  24.0717168  81.2565237
  68.5436675  25.2577218  82.1866498  65.3217332  21.8738529  77.1581419
  66.2509392  22.0249689  76.9850387  64.9008362  21.9622550  76.3030066
  64.1205664  25.8989194  74.9279957  63.9816749  25.5307978  75.8005895
  63.3320260  26.4136833  74.7563915  64.7153816  30.9998290  66.2705494
  64.8905571  30.5286334  67.0851116  64.0286604  31.6264057  66.4986754
  65.6710879  25.2770797  72.3168795  65.3360711  25.2371567  73.2126445
  65.1714824  24.6115513  71.8439205  59.6455123  20.6838427  77.8421376
  59.5074921  19.9518665  78.4432915  60.5560046  20.5947327  77.5605564
  68.6070070  22.6226831  62.5905854  67.9899241  21.8973659  62.4938907
  68.1386559  23.3836191  62.2472929  62.2737423  20.3958386  77.3305056
  62.9837042  19.7551578  77.2891674  62.2306732  20.6471281  78.2531236
  70.2624202  27.3325739  80.2511635  70.2036748  26.6484959  79.5842218
  70.6643720  28.0744729  79.7992261  60.9866357  17.3823604  79.1500695
  60.4503714  16.9314342  79.8022291  60.3983066  17.5169513  78.4071159
  59.2814901  34.1487653  73.0445354  59.5211499  34.7806177  73.7224372
  58.4384097  33.7975693  73.3310713  60.3968616  16.8412255  61.7127159
  59.5198083  16.7201056  61.3489405  60.8726369  16.0498334  61.4606047
  70.2641609  25.2965323  78.4825614  69.3768388  24.9591245  78.6052013
  70.8340160  24.5648354  78.7194380  51.9170756  21.6289415  71.8068666
  52.6041796  21.3151145  71.2189681  51.7618885  22.5330780  71.5335917
  56.7205479  16.5179612  76.2353690  56.6363667  15.9105281  75.5004099
  55.8988185  17.0088630  76.2363186  63.7942763  29.9566776  75.4486858
  63.7212934  30.7621747  75.9606162  63.3520156  30.1558741  74.6234879
  63.5832542  29.1938546  68.9589679  62.8000064  29.7360226  69.0527904
  64.2825288  29.7112525  69.3583920  66.8929192  15.0033175  71.6023885
  67.3897892  14.2503137  71.2824955  66.1216174  15.0397492  71.0367094
  74.7458950  20.7073541  73.2442176  74.7348826  21.5898256  72.8736109
  73.8776329  20.3545091  73.0496713  66.2541446  29.8553610  77.6045016
  66.9669418  30.4901074  77.5320918  65.7631475  29.9517476  76.7885018
  67.9758973  23.7604862  69.1762308  67.0415252  23.8806325  69.0067012
  68.1535642  22.8577329  68.9122318  63.4764161  17.1450558  71.3295569
  63.1061949  16.5921598  72.0176475  63.9723254  16.5408692  70.7770569
  71.3631524  19.6022182  69.7112342  71.8291977  20.4350173  69.6372645
  71.8139025  19.1367163  70.4157601  61.3053360  27.6048053  78.4250587
  62.0062819  28.2384536  78.5779981  60.8348475  27.9462785  77.6646226
  69.4307756  25.9466003  66.7098494  69.7067600  25.8322597  67.6192368
  68.5612254  25.5483488  66.6710667  69.3348187  11.9702769  73.7503243
  68.4211267  12.2006995  73.9185450  69.7641289  12.0541213  74.6017276
  69.1054646  20.1592661  76.2503137  68.4526096  20.4068568  75.5955590
  69.4835026  19.3456799  75.9165615  66.0661820  30.1952354  70.3531308
  66.2484214  29.3774010  70.8159060  66.8894806  30.4120046  69.9156198
  66.4003985  29.1220539  67.6146356  66.9291752  28.6112993  67.0016518
  66.6632205  28.8063069  68.4791889  65.1542219  20.9012472  82.7369175
  64.4782856  20.8006601  83.4071550  65.9769853  20.7451685  83.2005172
  56.9021078  27.1384408  75.3581690  57.4874515  26.3928096  75.4909594
  56.7045916  27.4488365  76.2418354  59.7559733  30.1735656  70.3744132
  59.0870108  30.6581783  69.8908172  59.6172603  30.4204876  71.2887511
  51.4938733  19.7090008  74.0786133  51.5322832  19.1753599  74.8723251
  50.9879025  19.1825214  73.4597110  63.8965002  32.2079399  76.9726791
  64.4483310  32.3711021  77.7375876  64.2371195  32.7983837  76.3006815
  58.8729495  14.5554549  77.5748675  58.9370821  15.4169380  77.1626073
  58.8096615  13.9428551  76.8421034  58.3481767  16.6277681  81.2221710
  58.9753806  16.2454759  81.8359234  57.4909686  16.4091883  81.5877402
  68.7475876  27.0340657  82.8275445  69.2915780  27.6470615  82.3330400
  68.1662721  27.5920235  83.3442458  55.1247310  18.4354111  67.1540064
  55.4200751  17.5264789  67.1007118  54.2235346  18.4141850  66.8321067
  67.0333389  30.1561375  73.9590473  66.9084528  29.3551114  73.4501418
  67.6912480  30.6507568  73.4704443  58.6541557  16.5110107  73.1367613
  57.9328143  17.1246075  72.9975086  59.4434813  17.0467872  73.0584259
  69.0968297  27.9570395  75.5870023  68.1498633  27.8375746  75.5148350
  69.4451070  27.0692893  75.6696284  61.4567871  13.8464534  79.4108265
  61.9802272  14.0926830  80.1734574  61.2380204  14.6784568  78.9911402
  56.8535152  16.1168208  67.2779390  56.5247858  15.2365587  67.0954495
  57.2074522  16.0615877  68.1655779  66.1014731  27.7523111  71.7874375
  65.9539693  26.8239818  71.9681945  66.9268224  27.7743202  71.3031450
  59.9676975  16.4041178  67.6454867  60.3073047  16.9327099  66.9233476
  60.4149095  16.7421584  68.4213434  69.7048852  28.5751670  72.8739248
  70.6295400  28.3694531  72.7363699  69.5364156  28.3268071  73.7828589
  62.6620416  14.7878229  77.0957935  62.3217236  13.9886042  77.4978615
  61.9559422  15.0879940  76.5234768  63.3136888  11.8727541  75.5485258
  64.1362957  11.3988019  75.4264149  63.5574951  12.6518025  76.0483945
  61.9545122  14.9015800  65.8448160  62.6753485  15.2797052  65.3411877
  61.3310426  15.6204676  65.9483138  66.0976245  15.6060949  66.7806492
  66.3139859  16.4885586  66.4795320  65.6170312  15.2147162  66.0512134
  60.8375466  18.5646662  73.3577237  60.6920047  18.8786965  74.2501518
  60.3600670  19.1831562  72.8048136  62.6971849  15.5549210  73.4058126
  62.6833418  14.6590303  73.0690424  63.4144277  15.5619873  74.0396412
  64.5497980  15.9886550  75.4511254  64.2915758  16.9103621  75.4495584
  64.0183020  15.5916984  76.1411718  69.4944169  29.0937337  68.2301339
  69.6681046  28.5283760  67.4775192  69.9873060  29.8938232  68.0480829
  55.3121128  21.1052006  76.2964898  54.7674597  21.8811814  76.4285172
  56.1900478  21.4522811  76.1384019  62.1008745  14.4363590  68.6745697
  62.2224656  13.5080236  68.8736584  61.8110787  14.4502276  67.7624012
  64.9699936  12.1218500  71.8112416  64.9921632  12.1857834  70.8564396
  65.3867995  11.2823009  72.0052923  75.3483560  21.8573760  69.8491639
  75.7914706  21.1081085  69.4510762  74.4710070  21.8483896  69.4665371
  70.4819341  28.4104101  65.3298238  71.1770246  29.0310794  65.5485552
  70.8242491  27.5599453  65.6050615  56.0987150  20.2321902  79.1895055
  55.3568886  20.3804538  79.7759685  55.7779895  20.4930168  78.3261804
  72.3810764  25.8603807  66.8585568  72.9062088  26.1991080  66.1334888
  72.2933117  24.9250822  66.6748703  64.0430813  29.7737881  78.9875445
  64.3517939  29.5287027  79.8598145  64.8406295  29.9784519  78.4994315
  64.0651425  31.9275790  71.2180821  63.6256415  31.4352169  71.9113678
  64.8159542  31.3848758  70.9772897  56.5443764  28.1187331  71.2205450
  57.3701784  27.8191103  70.8404093  56.1937816  27.3494954  71.6695238
  61.5125297  27.4713799  73.2903123  60.8905306  26.8084504  72.9905351
  62.1830164  27.4974931  72.6076771  54.7452369  26.0373658  72.1794383
  53.9084277  25.6095832  71.9978384  54.7176014  26.2306101  73.1165174
  61.5849825  15.9495587  82.8835629  61.6337980  16.8257710  82.5013399
  62.1272339  15.4072980  82.3107272  72.0704670  26.4936711  82.1636766
  71.2800214  26.4760849  81.6241266  71.8338025  27.0325004  82.9185803
  72.1902545  23.3429177  79.4769495  72.2400550  23.1779184  80.4185018
  72.0816469  22.4756436  79.0867376  61.0738804  26.0217723  66.7661584
  61.2226924  26.7053187  66.1128256  61.8805248  26.0022813  67.2811039
  69.4806308  19.3260105  80.7928801  70.3816171  19.1866570  80.5012799
  69.5554282  19.4914560  81.7326979  63.8149113  16.7026960  79.6381988
  62.9452423  16.9960526  79.3664576  64.0508593  17.2867405  80.3589251
  73.6920742  25.7626119  79.7211516  73.4005551  26.1256099  80.5574977
  73.0792873  25.0493127  79.5424848  74.8916425  23.3278998  72.2414087
  75.7263316  23.7668802  72.4051647  75.0275553  22.8517652  71.4222332
  71.9407930  20.8858733  78.1891574  72.4162052  21.0786379  77.3810426
  71.0173496  20.9417919  77.9434958  58.8291437  22.0482900  67.7722653
  58.5837479  21.1445230  67.9702863  58.9987352  22.0500051  66.8302131
  66.5188147  12.9206577  77.1547408  67.0370091  13.6567604  76.8293897
  66.1643280  13.2270570  77.9894167  58.0987085  17.7811258  65.2708814
  57.4056330  17.8555613  64.6148850  57.8538836  17.0171602  65.7930331
  66.7700741   9.3406859  72.6748305  67.0502495   8.6730048  73.3008731
  67.5551348   9.5335955  72.1622969  64.5734210  28.5165853  64.2373331
  64.0008177  29.1356040  63.7843803  65.1467003  29.0665215  64.7713253
  70.6409599  17.7624493  76.4219880  71.5927022  17.8622591  76.4432104
  70.4713050  16.9702762  76.9317964  68.6623979  14.8480076  76.6079281
  68.0673911  15.1285089  75.9125769  68.3773676  15.3373977  77.3796022
  67.7931469  28.8003003  65.3681913  68.7262143  28.7348565  65.5714789
  67.7054682  29.6359270  64.9096446  70.4219486  28.1168874  62.3285861
  70.3433118  27.7828737  63.2221619  71.2429153  28.6090642  62.3277333
  73.1197677  20.9830613  75.5362180  73.0873997  20.0446614  75.7221863
  73.7298301  21.0614650  74.8028004  64.9581008  19.8526666  61.5789384
  65.9040113  19.7232874  61.6477802  64.5795253  19.1141328  62.0558812
  73.2692166  17.7741656  75.5820463  72.7531214  16.9900113  75.3950392
  74.1532114  17.4460373  75.7466982  70.9302893  11.5182672  71.5416275
  70.7327714  11.2097760  72.4259607  71.5402598  12.2444311  71.6714205
  78.9374227  22.0446620  74.6768216  79.6677616  21.7831908  75.2375920
  78.3281173  21.3075342  74.7170284  77.0189524  20.1854482  75.2742668
  76.2922688  20.0510447  74.6659159  76.6036811  20.4931311  76.0799386
  64.8419701  23.9044412  83.0390041  65.7622710  24.0823011  83.2330087
  64.8069284  22.9600457  82.8869740  63.1423925  17.7776642  61.5144269
  62.2355381  17.4809755  61.5906982  63.4199906  17.4806460  60.6478555
  54.0601866  19.0983006  71.9643315  53.7404650  18.2448314  71.6717689
  53.5135294  19.3131584  72.7201283  57.8381773  21.8145447  75.6812822
  58.0567783  22.7462555  75.7000856  58.2507547  21.4553421  76.4667626
  64.7585991  12.3213532  67.6688510  63.9486719  11.9760617  68.0443756
  65.4470408  12.0121076  68.2576122  66.6876539  11.3991579  69.2912807
  67.2407578  11.8187032  69.9502830  66.9246626  10.4727327  69.3335763
  62.7109638  17.3878652  85.0715571  62.6106365  18.3373009  85.0027662
  62.4931181  17.0596891  84.1991641  61.9122710  14.6363578  61.6556248
  62.7741874  14.9618476  61.9152065  62.0973054  13.8495073  61.1429314
  53.9290126  22.7185917  73.9336437  53.2353597  22.3039870  73.4206391
  54.6763117  22.7606454  73.3369856  70.0655346  13.5092104  68.7991471
  69.4854015  14.1676908  68.4169523  69.7991279  12.6869449  68.3878889
  68.5158913  12.9097162  71.0012791  69.0158691  13.0213696  70.1927110
  69.1594521  12.6058215  71.6413600  62.5740909  20.8175791  83.8880632
  62.0907990  21.6176151  84.0944521  62.6601848  20.8283736  82.9348076
  55.8426868  22.6504171  71.8102452  55.8197556  22.7491858  70.8584335
  56.1527505  23.4969322  72.1319618  58.5014246  24.7080326  75.9249066
  59.4557500  24.6764268  75.8578998  58.3026770  24.2470950  76.7399292
  59.0913628  23.2781442  78.4919864  59.9106517  23.7725521  78.5154701
  59.3650436  22.3613410  78.4637431  68.8480224  15.6692194  67.8547819
  67.9606079  15.9541845  67.6368014  69.2634213  15.5085958  67.0075096
  72.1994761  15.6938715  71.5702159  72.9755151  16.1835168  71.8426775
  71.4742895  16.1196770  72.0274028  74.6367319  16.4066335  72.6276099
  75.2311810  16.1662071  71.9169407  74.7093903  15.6873465  73.2549635
  56.8564475  30.2499945  72.9419264  56.7218943  29.4900346  72.3757262
  56.4396537  30.9740845  72.4748053  67.9923438  25.4336869  61.9495839
  68.6959288  25.6386872  62.5653495  67.2686087  26.0013631  62.2144923
  68.8221248  21.1846730  68.0698109  68.7656450  21.6415282  67.2305742
  69.3749591  20.4237415  67.8920952  72.6326054  16.9736462  68.8948229
  72.3762988  16.5733098  69.7256437  72.0078922  17.6880256  68.7698368
  76.9438392  19.7132535  71.4019520  76.3837950  19.7825725  72.1751082
  76.3381895  19.5373520  70.6819017  60.0133601  31.1469263  73.1537707
  59.8965985  32.0914695  73.0516397  59.1926047  30.8442824  73.5423506
  69.9010135  25.8719398  63.9994299  70.7355739  25.4400597  63.8171774
  69.7394478  25.7001412  64.9271194  69.5556027  22.3751512  65.3650639
  69.5004831  22.2095783  64.4239083  68.9302083  23.0827544  65.5212828
  54.3448542  17.6119576  79.1912061  54.9907406  17.1018530  79.6799286
  54.1365694  18.3488258  79.7655486  66.8701935  24.6800423  84.6904201
  67.7393094  24.8541076  84.3290836  66.3908686  25.4994840  84.5679931
  62.8652153  11.8759621  64.9435957  62.8530823  12.8201460  65.1004228
  63.7575575  11.6929766  64.6495418  61.0388115  31.7997524  76.3693635
  61.9415362  31.8321135  76.6860130  60.8125485  30.8697975  76.3839971
  62.7941717  30.5528511  73.0303714  61.8437348  30.5530373  72.9168086
  63.0974203  29.8061246  72.5139748  66.6804272   8.4702397  69.1981894
  65.9136668   7.9160884  69.3438576  67.0914977   8.5424266  70.0596045
  58.6846033  14.7587193  83.2887075  59.5477495  14.4023998  83.4990400
  58.1111444  14.4201088  83.9762479  78.5294410  36.3889049  74.0949476
  79.1672820  36.2695797  73.3912816  78.4115253  37.3369893  74.1537428
  75.3384117  36.3416477  74.0311001  75.0002628  36.2257542  73.1431536
  76.2073885  35.9407643  74.0112007  71.1970932  38.1951954  70.0207892
  70.6335797  38.1041891  69.2524179  71.0823327  37.3751858  70.5010384
  75.8203900  37.4951329  79.9897206  75.8092540  37.1004127  79.1177710
  75.9824539  36.7617402  80.5830978  68.7435364  39.6903145  72.8592112
  69.5356656  39.3493970  72.4438411  68.9832014  39.7998120  73.7794265
  76.7770491  41.8622922  65.3322357  76.1258471  42.4477002  64.9456370
  77.5714854  42.3929116  65.3917394  70.7026118  38.9512059  65.7309491
  71.4756994  38.4041046  65.5922367  71.0551517  39.8156308  65.9423952
  72.5411161  40.2788441  78.9376390  72.2501027  41.1834072  78.8223057
  73.1768145  40.3204969  79.6520460  73.4667368  37.6565289  75.5277750
  74.0630940  37.4321312  74.8134713  73.5242339  36.9150035  76.1303198
  73.0392396  35.1104725  63.3627941  73.2917917  34.5886246  62.6011404
  72.1016955  34.9470870  63.4654624  78.0835679  34.1140503  71.1702684
  78.8698768  33.6959926  70.8193101  78.3474383  35.0186595  71.3384333
  78.2545756  39.5513353  65.8691341  77.6191589  39.6247980  66.5812246
  77.9243163  40.1406952  65.1910420  83.4844106  34.0515736  72.0735663
  84.2169278  33.4814953  72.3073492  82.7283462  33.6637337  72.5142168
  72.7588685  37.0132831  65.5652316  72.6424943  36.3377734  66.2333400
  72.8690945  36.5265205  64.7484469  75.1020226  36.4742978  69.2699005
  74.7378433  35.9473599  69.9811927  75.9587342  36.0841447  69.0965490
  81.0069526  27.7637310  76.5330271  80.6752851  28.6332721  76.3091486
  80.4115140  27.4473594  77.2124302  74.7425713  31.5032878  64.2660354
  74.9100115  32.3713114  64.6330825  74.5522882  31.6660159  63.3421643
  77.5001046  39.9649856  75.9326184  77.2001769  40.8674895  75.8241991
  77.1552105  39.6982040  76.7847337  70.9513527  36.4163653  71.9662888
  70.0264024  36.2839867  72.1740580  71.1997941  37.1957873  72.4632831
  80.8998190  32.4832397  73.6123621  79.9915067  32.4147805  73.3182382
  80.8485785  32.9604342  74.4405447  74.7214934  33.9590535  65.2507020
  74.6014559  34.4047586  66.0892501  74.0267522  34.3075853  64.6920559
  68.3122338  36.0596927  72.8006677  68.4414720  36.3131406  73.7146089
  67.6319790  36.6524635  72.4811333  72.4821826  46.7294177  68.8997152
  72.4045855  47.6802002  68.9785632  71.8783469  46.3840049  69.5572078
  74.9739055  33.9022042  81.5558519  74.1972389  34.4615962  81.5461383
  75.6129618  34.3878825  82.0773389  82.7659836  30.6848835  75.3901495
  82.1234216  30.9781368  74.7441290  82.2614765  30.5701755  76.1954692
  80.4200000  34.4312008  66.0787354  81.3317856  34.6639395  65.9035052
  79.9109647  35.0149052  65.5162433  73.2285428  36.7107496  81.1176486
  73.9700112  37.2492540  80.8411309  72.5222413  37.3373784  81.2748037
  78.7040767  38.8536636  79.7148647  79.1124123  38.4119047  78.9703279
  77.9818029  38.2789264  79.9682840  75.0571837  33.7909243  77.0882204
  75.9033033  34.2148656  77.2316853  74.9970475  33.1342867  77.7820767
  79.0269582  39.4137827  73.4700936  78.3978444  39.5783541  72.7677004
  78.6395244  39.8279436  74.2411900  82.9058814  40.3492265  70.8245300
  82.2209852  40.7291166  70.2742333  82.9902663  40.9587591  71.5577247
  78.2071283  31.4513611  78.7463378  77.9632215  32.2055672  78.2097653
  78.4831213  31.8298959  79.5810625  80.1609745  37.9952224  77.4240643
  80.3726641  38.6383983  76.7475024  80.1139494  37.1614540  76.9562573
  77.7635974  30.6070044  74.3277215  76.9020453  30.9051298  74.6193953
  77.7898409  30.8240443  73.3958248  74.5797544  39.1512235  70.7351021
  75.0435889  39.4299938  69.9455644  74.3154342  38.2495679  70.5524112
  71.4721625  38.6983716  73.6730784  72.0422982  39.1270985  73.0348269
  72.0629737  38.4166301  74.3714970  73.5166430  35.2735387  67.5440586
  74.2190473  35.7256431  68.0114513  73.1847058  34.6319206  68.1720479
  71.9646791  33.8647144  81.9191796  71.3345452  34.5463425  82.1527192
  71.8582879  33.7530225  80.9744934  67.2591764  33.5318940  72.8457720
  66.4690818  33.7876468  72.3697830  67.7503011  34.3467278  72.9509760
  81.2755573  40.8724179  75.5963001  82.0973017  40.4704366  75.3145682
  81.2717976  40.7692413  76.5479116  69.2106509  33.8963519  69.8041196
  68.4137673  34.0082213  70.3224692  68.9832101  34.2350171  68.9382087
  75.0412177  40.4208222  77.7523711  75.1056609  40.8828630  78.5881883
  74.3323101  39.7905587  77.8806021  65.5429467  33.7849430  75.2772711
  65.7937505  34.6696440  75.5430286  66.0789015  33.6054032  74.5047802
  89.3661566  37.2162927  71.9447972  88.6125275  36.6470326  71.7891976
  89.5009108  37.1825592  72.8918607  74.7560195  42.0876330  67.6202691
  74.6205869  42.9327866  68.0487539  75.2970007  42.2895607  66.8568625
  71.2427534  28.1667910  84.2817047  70.8494480  27.6134108  84.9564691
  72.0593675  28.4778488  84.6723564  68.2089592  39.6051768  68.1930616
  68.7214113  40.3995018  68.3436181  68.8612305  38.9078058  68.1264218
  70.0184477  42.7217524  70.2753370  70.1951105  43.6435489  70.0874354
  70.8141310  42.4075943  70.7047749  74.1595495  29.5825789  81.8737303
  74.9005209  30.1832942  81.7941766  74.3913418  28.8403427  81.3155346
  69.3036833  34.7682156  80.1515533  69.1890348  33.8667413  80.4522632
  68.4481351  35.0145853  79.8000349  76.3828671  42.7099896  81.7503033
  75.9392525  41.9236275  81.4323938  77.0445885  42.8979047  81.0846924
  71.1415792  44.2395698  76.2763712  71.6923217  44.1112761  75.5040706
  70.3027268  44.5390587  75.9258605  78.4809909  42.9902696  79.7784435
  78.4628384  43.8111577  79.2864704  79.4029829  42.8656771  80.0034576
  74.9382963  40.5046826  80.6207943  75.4711300  39.7435114  80.3907251
  74.4097044  40.2120478  81.3632098  78.1052658  25.6106892  76.1501585
  77.7616928  26.5008533  76.0740695  78.4731621  25.4208549  75.2871170
  66.1738509  37.9340422  68.9690187  67.0113731  38.3437430  68.7523895
  66.3516776  36.9939864  68.9390381  78.0702941  35.6015503  64.6574020
  77.5549564  36.3720107  64.8962407  77.7980249  34.9280639  65.2807081
  75.6550052  30.4465204  69.7159258  74.7991648  30.0572054  69.5364897
  76.0677004  30.5257164  68.8559044  77.1849199  27.9811547  74.1150818
  76.6813994  27.9441682  73.3018623  77.4779805  28.8904290  74.1747475
  73.4292084  28.0650277  73.1217000  74.2945081  27.8693085  72.7622889
  73.4969593  27.8360628  74.0486357  83.0437215  38.3547857  66.5927193
  82.2666658  38.0159017  66.1482356  83.7228696  38.3600481  65.9182158
  77.8589244  33.4742595  66.4833801  77.5539380  33.7888744  67.3343944
  78.8119686  33.5524015  66.5261134  76.3035676  39.6332818  68.1326755
  75.7757037  38.8985578  67.8199993  75.8023179  40.4107495  67.8866723
  81.2828522  37.8281839  73.2493801  80.6252196  38.5181100  73.3373930
  82.0868921  38.2178271  73.5927788  71.0354403  30.2952484  70.4933367
  71.6098155  30.0727666  69.7606560  71.6225386  30.3641179  71.2461968
  80.0933981  36.1826211  71.2997743  80.6065862  36.8156203  71.8019453
  80.7435205  35.5827407  70.9341103  71.3623991  32.3256945  64.5129252
  70.5261303  32.6631632  64.8338527  71.2228760  32.1905925  63.5756389
  73.3377071  27.1693733  69.2208436  72.6841484  26.8542751  68.5965051
  73.2957545  26.5469474  69.9468259  74.4488276  37.4513028  61.1361728
  73.5415338  37.2202282  61.3352877  74.9459308  36.6550648  61.3235710
  77.3556355  46.1610536  64.0558414  76.6818054  46.4642232  64.6643372
  77.7422177  46.9639616  63.7063871  76.5714812  33.6575667  73.5456084
  75.6537373  33.8790614  73.3877772  76.9874955  33.7321977  72.6867791
  77.3549859  35.0567083  68.6758764  78.1021678  35.5688480  68.3665886
  77.6241449  34.7351135  69.5363158  75.6276509  37.5525623  65.6585718
  74.7187729  37.2684656  65.7558188  75.6571593  37.9724702  64.7989025
  80.8595777  41.1632213  69.4276886  80.4058104  40.3223123  69.4842076
  80.2289744  41.7993611  69.7651666  79.8028696  32.0924199  70.6577553
  79.0651453  31.5801585  70.9887796  80.0555470  31.6524580  69.8460830
  79.3028716  43.0008710  70.3626704  79.5951691  43.5613767  69.6439070
  79.8127337  43.2937271  71.1179863  79.9040324  24.8700451  71.2519323
  80.2099201  24.0097814  70.9645238  80.6292929  25.4618071  71.0518316
  66.1964680  35.2731137  69.6400920  65.9989080  34.6800498  68.9151987
  65.6411344  34.9683348  70.3576859  74.1761404  35.1654244  71.7595514
  74.2310013  34.2128080  71.6837990  73.3652606  35.3213683  72.2436812
  75.3252597  39.0934367  62.9973797  74.8872027  38.3770226  62.5379434
  76.0663038  39.3210482  62.4358888  72.1153763  33.7831304  69.5185892
  71.3021629  34.0825474  69.9251085  72.6112758  33.3886992  70.2360375
  74.2662341  43.7789061  71.4520157  74.2238520  44.0049907  70.5228689
  75.1825040  43.5452435  71.6005958  77.7127975  34.2473128  78.3500786
  78.0677363  34.4744601  79.2095252  78.3600106  34.5791505  77.7278042
  83.4425712  37.3691564  69.0550115  83.3043611  37.5593160  68.1271305
  83.0861931  38.1310947  69.5118167  71.6067838  31.3549659  75.1347127
  72.2467218  31.2138418  74.4370091  70.7745369  31.0684173  74.7585729
  83.4695092  39.4368091  74.0661387  83.9031598  39.3443380  74.9144441
  84.1826672  39.4125591  73.4281403  72.3828142  40.6552090  71.2482120
  73.1768741  40.1602410  71.0464695  71.6719834  40.1269953  70.8849825
  77.2022987  43.0370185  75.5994487  77.2560009  43.6061121  76.3672203
  76.3337768  43.2072070  75.2348525  68.6910906  34.7995171  67.3241873
  67.7608494  34.7379627  67.5411835  68.7868378  34.2771124  66.5278514
  68.6096455  31.3249984  69.9120114  68.8703272  32.2395317  69.8029275
  69.4313627  30.8574427  70.0616727  70.0821380  32.7387741  77.0818939
  70.7544433  32.5305103  76.4331588  69.2551166  32.5409827  76.6424171
  84.3310641  39.4791792  76.5994272  84.5246531  40.3837602  76.8453547
  84.2311259  39.0199211  77.4332857  75.9846952  29.3649682  79.0984600
  75.3374867  30.0639632  79.0049076  76.7547967  29.7985826  79.4660848
  79.3925750  39.6298534  82.1735153  79.2411256  39.4009086  81.2565237
  79.3830429  40.5869136  82.1866498  76.1611086  37.2030447  77.1581419
  77.0903146  37.3541607  76.9850387  75.7402116  37.2914468  76.3030066
  74.9599418  41.2281112  74.9279957  74.8210504  40.8599896  75.8005895
  74.1714014  41.7428751  74.7563915  75.5547570  46.3290208  66.2705494
  75.7299326  45.8578251  67.0851116  74.8680358  46.9555974  66.4986754
  76.5104633  40.6062714  72.3168795  76.1754466  40.5663484  73.2126445
  76.0108579  39.9407430  71.8439205  70.4848877  36.0130344  77.8421376
  70.3468675  35.2810583  78.4432915  71.3953801  35.9239244  77.5605564
  79.4463825  37.9518749  62.5905854  78.8292996  37.2265577  62.4938907
  78.9780313  38.7128109  62.2472929  73.1131178  35.7250304  77.3305056
  73.8230796  35.0843496  77.2891674  73.0700486  35.9763198  78.2531236
  81.1017957  42.6617657  80.2511635  81.0430503  41.9776877  79.5842218
  81.5037475  43.4036647  79.7992261  71.8260112  32.7115522  79.1500695
  71.2897469  32.2606260  79.8022291  71.2376820  32.8461430  78.4071159
  71.2362371  32.1704173  61.7127159  70.3591837  32.0492974  61.3489405
  71.7120124  31.3790251  61.4606047  81.1035364  40.6257241  78.4825614
  80.2162143  40.2883163  78.6052013  81.6733915  39.8940272  78.7194380
  62.7564511  36.9581333  71.8068666  63.4435551  36.6443063  71.2189681
  62.6012640  37.8622697  71.5335917  67.5599233  31.8471529  76.2353690
  67.4757422  31.2397199  75.5004099  66.7381939  32.3380548  76.2363186
  74.6336517  45.2858693  75.4486858  74.5606689  46.0913665  75.9606162
  74.1913910  45.4850659  74.6234879  74.4226297  44.5230463  68.9589679
  73.6393819  45.0652143  69.0527904  75.1219042  45.0404443  69.3583920
  77.7322947  30.3325093  71.6023885  78.2291646  29.5795055  71.2824955
  76.9609928  30.3689409  71.0367094  85.5852704  36.0365458  73.2442176
  85.5742581  36.9190174  72.8736109  84.7170084  35.6837009  73.0496713
  77.0935201  45.1845527  77.6045016  77.8063173  45.8192992  77.5320918
  76.6025229  45.2809393  76.7885018  78.8152728  39.0896780  69.1762308
  77.8809006  39.2098242  69.0067012  78.9929396  38.1869247  68.9122318
  74.3157916  32.4742476  71.3295569  73.9455703  31.9213516  72.0176475
  74.8117008  31.8700609  70.7770569  82.2025279  34.9314099  69.7112342
  82.6685731  35.7642091  69.6372645  82.6532779  34.4659081  70.4157601
  72.1447114  42.9339971  78.4250587  72.8456574  43.5676454  78.5779981
  71.6742229  43.2754702  77.6646226  80.2701510  41.2757921  66.7098494
  80.5461354  41.1614515  67.6192368  79.4006009  40.8775405  66.6710667
  80.1741942  27.2994686  73.7503243  79.2605022  27.5298913  73.9185450
  80.6035043  27.3833130  74.6017276  79.9448400  35.4884578  76.2503137
  79.2919850  35.7360486  75.5955590  80.3228780  34.6748716  75.9165615
  76.9055574  45.5244271  70.3531308  77.0877969  44.7065927  70.8159060
  77.7288560  45.7411964  69.9156198  77.2397740  44.4512457  67.6146356
  77.7685506  43.9404911  67.0016518  77.5025959  44.1354987  68.4791889
  75.9935973  36.2304389  82.7369175  75.3176610  36.1298519  83.4071550
  76.8163607  36.0743603  83.2005172  67.7414832  42.4676326  75.3581690
  68.3268269  41.7220014  75.4909594  67.5439671  42.7780283  76.2418354
  70.5953488  45.5027573  70.3744132  69.9263863  45.9873701  69.8908172
  70.4566357  45.7496794  71.2887511  62.3332487  35.0381926  74.0786133
  62.3716587  34.5045517  74.8723251  61.8272780  34.5117132  73.4597110
  74.7358756  47.5371317  76.9726791  75.2877064  47.7002938  77.7375876
  75.0764950  48.1275755  76.3006815  69.7123249  29.8846467  77.5748675
  69.7764576  30.7461297  77.1626073  69.6490370  29.2720468  76.8421034
  69.1875522  31.9569599  81.2221710  69.8147561  31.5746676  81.8359234
  68.3303441  31.7383801  81.5877402  79.5869630  42.3632574  82.8275445
  80.1309534  42.9762533  82.3330400  79.0056475  42.9212153  83.3442458
  65.9641065  33.7646028  67.1540064  66.2594506  32.8556707  67.1007118
  65.0629100  33.7433768  66.8321067  77.8727143  45.4853292  73.9590473
  77.7478283  44.6843032  73.4501418  78.5306235  45.9799486  73.4704443
  69.4935312  31.8402025  73.1367613  68.7721897  32.4537992  72.9975086
  70.2828567  32.3759790  73.0584259  79.9362052  43.2862312  75.5870023
  78.9892387  43.1667664  75.5148350  80.2844825  42.3984810  75.6696284
  72.2961625  29.1756451  79.4108265  72.8196027  29.4218748  80.1734574
  72.0773958  30.0076486  78.9911402  67.6928906  31.4460126  67.2779390
  67.3641612  30.5657505  67.0954495  68.0468277  31.3907795  68.1655779
  76.9408485  43.0815029  71.7874375  76.7933448  42.1531736  71.9681945
  77.7661979  43.1035119  71.3031450  70.8070729  31.7333096  67.6454867
  71.1466802  32.2619017  66.9233476  71.2542850  32.0713502  68.4213434
  80.5442607  43.9043587  72.8739248  81.4689154  43.6986449  72.7363699
  80.3757910  43.6559988  73.7828589  73.5014170  30.1170146  77.0957935
  73.1610991  29.3177959  77.4978615  72.7953176  30.4171857  76.5234768
  74.1530642  27.2019459  75.5485258  74.9756711  26.7279937  75.4264149
  74.3968706  27.9809943  76.0483945  72.7938877  30.2307717  65.8448160
  73.5147239  30.6088970  65.3411877  72.1704181  30.9496594  65.9483138
  76.9369999  30.9352866  66.7806492  77.1533614  31.8177504  66.4795320
  76.4564067  30.5439080  66.0512134  71.6769221  33.8938579  73.3577237
  71.5313802  34.2078882  74.2501518  71.1994424  34.5123480  72.8048136
  73.5365604  30.8841127  73.4058126  73.5227172  29.9882221  73.0690424
  74.2538032  30.8911791  74.0396412  75.3891734  31.3178468  75.4511254
  75.1309512  32.2395538  75.4495584  74.8576775  30.9208902  76.1411718
  80.3337923  44.4229255  68.2301339  80.5074801  43.8575677  67.4775192
  80.8266814  45.2230150  68.0480829  66.1514883  36.4343924  76.2964898
  65.6068351  37.2103732  76.4285172  67.0294233  36.7814728  76.1384019
  72.9402500  29.7655508  68.6745697  73.0618411  28.8372154  68.8736584
  72.6504542  29.7794194  67.7624012  75.8093690  27.4510418  71.8112416
  75.8315387  27.5149751  70.8564396  76.2261749  26.6114927  72.0052923
  86.1877314  37.1865678  69.8491639  86.6308460  36.4373003  69.4510762
  85.3103825  37.1775814  69.4665371  81.3213096  43.7396019  65.3298238
  82.0164000  44.3602712  65.5485552  81.6636246  42.8891370  65.6050615
  66.9380905  35.5613820  79.1895055  66.1962641  35.7096455  79.7759685
  66.6173649  35.8222086  78.3261804  83.2204519  41.1895725  66.8585568
  83.7455843  41.5282997  66.1334888  83.1326871  40.2542740  66.6748703
  74.8824567  45.1029798  78.9875445  75.1911694  44.8578945  79.8598145
  75.6800049  45.3076437  78.4994315  74.9045180  47.2567708  71.2180821
  74.4650170  46.7644087  71.9113678  75.6553296  46.7140676  70.9772897
  67.3837518  43.4479249  71.2205450  68.2095538  43.1483021  70.8404093
  67.0331570  42.6786871  71.6695238  72.3519052  42.8005717  73.2903123
  71.7299061  42.1376422  72.9905351  73.0223919  42.8266849  72.6076771
  65.5846124  41.3665575  72.1794383  64.7478032  40.9387750  71.9978384
  65.5569769  41.5598019  73.1165174  72.4243579  31.2787505  82.8835629
  72.4731735  32.1549628  82.5013399  72.9666093  30.7364898  82.3107272
  82.9098425  41.8228628  82.1636766  82.1193969  41.8052767  81.6241266
  82.6731779  42.3616922  82.9185803  83.0296300  38.6721095  79.4769495
  83.0794305  38.5071102  80.4185018  82.9210223  37.8048354  79.0867376
  71.9132559  41.3509640  66.7661584  72.0620679  42.0345105  66.1128256
  72.7199002  41.3314730  67.2811039  80.3200062  34.6552023  80.7928801
  81.2209925  34.5158488  80.5012799  80.3948037  34.8206478  81.7326979
  74.6542868  32.0318877  79.6381988  73.7846177  32.3252444  79.3664576
  74.8902348  32.6159322  80.3589251  84.5314497  41.0918036  79.7211516
  84.2399305  41.4548017  80.5574977  83.9186628  40.3785044  79.5424848
  85.7310179  38.6570916  72.2414087  86.5657070  39.0960720  72.4051647
  85.8669308  38.1809569  71.4222332  82.7801685  36.2150651  78.1891574
  83.2555807  36.4078297  77.3810426  81.8567250  36.2709837  77.9434958
  69.6685192  37.3774818  67.7722653  69.4231233  36.4737148  67.9702863
  69.8381106  37.3791968  66.8302131  77.3581901  28.2498494  77.1547408
  77.8763845  28.9859521  76.8293897  77.0037034  28.5562488  77.9894167
  68.9380839  33.1103176  65.2708814  68.2450084  33.1847531  64.6148850
  68.6932591  32.3463519  65.7930331  77.6094496  24.6698777  72.6748305
  77.8896249  24.0021966  73.3008731  78.3945103  24.8627873  72.1622969
  75.4127964  43.8457771  64.2373331  74.8401931  44.4647958  63.7843803
  75.9860758  44.3957133  64.7713253  81.4803354  33.0916411  76.4219880
  82.4320777  33.1914509  76.4432104  81.3106804  32.2994679  76.9317964
  79.5017733  30.1771994  76.6079281  78.9067666  30.4577007  75.9125769
  79.2167430  30.6665895  77.3796022  78.6325224  44.1294921  65.3681913
  79.5655897  44.0640483  65.5714789  78.5448437  44.9651188  64.9096446
  81.2613241  43.4460791  62.3285861  81.1826872  43.1120655  63.2221619
  82.0822907  43.9382559  62.3277333  83.9591432  36.3122531  75.5362180
  83.9267752  35.3738531  75.7221863  84.5692055  36.3906567  74.8028004
  75.7974763  35.1818584  61.5789384  76.7433867  35.0524792  61.6477802
  75.4189008  34.4433245  62.0558812  84.1085920  33.1033574  75.5820463
  83.5924969  32.3192031  75.3950392  84.9925869  32.7752291  75.7466982
  81.7696647  26.8474590  71.5416275  81.5721468  26.5389678  72.4259607
  82.3796353  27.5736229  71.6714205  89.7767982  37.3738537  74.6768216
  90.5071370  37.1123826  75.2375920  89.1674927  36.6367259  74.7170284
  87.8583279  35.5146400  75.2742668  87.1316442  35.3802365  74.6659159
  87.4430566  35.8223229  76.0799386  75.6813455  39.2336330  83.0390041
  76.6016465  39.4114929  83.2330087  75.6463038  38.2892375  82.8869740
  73.9817680  33.1068560  61.5144269  73.0749135  32.8101673  61.5906982
  74.2593661  32.8098378  60.6478555  64.8995620  34.4274923  71.9643315
  64.5798404  33.5740232  71.6717689  64.3529048  34.6423502  72.7201283
  68.6775528  37.1437364  75.6812822  68.8961537  38.0754472  75.7000856
  69.0901301  36.7845339  76.4667626  75.5979745  27.6505450  67.6688510
  74.7880474  27.3052535  68.0443756  76.2864162  27.3412993  68.2576122
  77.5270294  26.7283496  69.2912807  78.0801332  27.1478950  69.9502830
  77.7640380  25.8019245  69.3335763  73.5503393  32.7170570  85.0715571
  73.4500120  33.6664927  85.0027662  73.3324935  32.3888809  84.1991641
  72.7516464  29.9655495  61.6556248  73.6135628  30.2910393  61.9152065
  72.9366809  29.1786991  61.1429314  64.7683880  38.0477835  73.9336437
  64.0747352  37.6331788  73.4206391  65.5156871  38.0898371  73.3369856
  80.9049101  28.8384022  68.7991471  80.3247770  29.4968826  68.4169523
  80.6385034  28.0161366  68.3878889  79.3552667  28.2389079  71.0012791
  79.8552446  28.3505614  70.1927110  79.9988275  27.9350132  71.6413600
  73.4134663  36.1467709  83.8880632  72.9301745  36.9468069  84.0944521
  73.4995602  36.1575654  82.9348076  66.6820623  37.9796089  71.8102452
  66.6591311  38.0783776  70.8584335  66.9921259  38.8261239  72.1319618
  69.3408001  40.0372244  75.9249066  70.2951254  40.0056186  75.8578998
  69.1420524  39.5762867  76.7399292  69.9307383  38.6073360  78.4919864
  70.7500272  39.1017438  78.5154701  70.2044190  37.6905328  78.4637431
  79.6873979  30.9984112  67.8547819  78.7999834  31.2833763  67.6368014
  80.1027968  30.8377875  67.0075096  83.0388515  31.0230633  71.5702159
  83.8148905  31.5127085  71.8426775  82.3136649  31.4488687  72.0274028
  85.4761074  31.7358252  72.6276099  86.0705564  31.4953988  71.9169407
  85.5487657  31.0165383  73.2549635  67.6958229  45.5791863  72.9419264
  67.5612697  44.8192264  72.3757262  67.2790292  46.3032763  72.4748053
  78.8317192  40.7628787  61.9495839  79.5353042  40.9678789  62.5653495
  78.1079841  41.3305549  62.2144923  79.6615003  36.5138648  68.0698109
  79.6050204  36.9707199  67.2305742  80.2143345  35.7529333  67.8920952
  83.4719809  32.3028380  68.8948229  83.2156743  31.9025015  69.7256437
  82.8472677  33.0172174  68.7698368  87.7832146  35.0424453  71.4019520
  87.2231704  35.1117642  72.1751082  87.1775650  34.8665438  70.6819017
  70.8527355  46.4761180  73.1537707  70.7359739  47.4206613  73.0516397
  70.0319801  46.1734742  73.5423506  80.7403890  41.2011316  63.9994299
  81.5749494  40.7692514  63.8171774  80.5788233  41.0293330  64.9271194
  80.3949782  37.7043429  65.3650639  80.3398586  37.5387701  64.4239083
  79.7695837  38.4119462  65.5212828  65.1842297  32.9411494  79.1912061
  65.8301161  32.4310448  79.6799286  64.9759448  33.6780175  79.7655486
  77.7095689  40.0092341  84.6904201  78.5786849  40.1832993  84.3290836
  77.2302441  40.8286758  84.5679931  73.7045907  27.2051538  64.9435957
  73.6924577  28.1493378  65.1004228  74.5969329  27.0221684  64.6495418
  71.8781869  47.1289442  76.3693635  72.7809116  47.1613052  76.6860130
  71.6519239  46.1989893  76.3839971  73.6335471  45.8820429  73.0303714
  72.6831102  45.8822290  72.9168086  73.9367957  45.1353163  72.5139748
  77.5198027  23.7994315  69.1981894  76.7530423  23.2452802  69.3438576
  77.9308732  23.8716184  70.0596045  69.5239788  30.0879111  83.2887075
  70.3871249  29.7315916  83.4990400  68.9505199  29.7493005  83.9762479
  89.3688165  51.7180967  74.0949476  90.0066575  51.5987714  73.3912816
  89.2509008  52.6661811  74.1537428  86.1777871  51.6708395  74.0311001
  85.8396383  51.5549460  73.1431536  87.0467639  51.2699560  74.0112007
  82.0364687  53.5243872  70.0207892  81.4729552  53.4333808  69.2524179
  81.9217082  52.7043776  70.5010384  86.6597654  52.8243247  79.9897206
  86.6486295  52.4296045  79.1177710  86.8218294  52.0909319  80.5830978
  87.6164246  57.1914839  65.3322357  86.9652225  57.7768920  64.9456370
  88.4108608  57.7221034  65.3917394  83.3804915  55.6080359  78.9376390
  83.0894781  56.5125989  78.8223057  84.0161900  55.6496886  79.6520460
  84.3061122  52.9857207  75.5277750  84.9024694  52.7613230  74.8134713
  84.3636094  52.2441953  76.1303198  83.8786150  50.4396642  63.3627941
  84.1311671  49.9178164  62.6011404  82.9410710  50.2762788  63.4654624
  88.9229433  49.4432421  71.1702684  89.7092523  49.0251844  70.8193101
  89.1868138  50.3478513  71.3384333  89.0939511  54.8805271  65.8691341
  88.4585344  54.9539898  66.5812246  88.7636917  55.4698870  65.1910420
  94.3237860  49.3807654  72.0735663  95.0563032  48.8106871  72.3073492
  93.5677216  48.9929255  72.5142168  83.5982439  52.3424748  65.5652316
  83.4818697  51.6669652  66.2333400  83.7084699  51.8557122  64.7484469
  85.9413980  51.8034896  69.2699005  85.5772187  51.2765517  69.9811927
  86.7981096  51.4133365  69.0965490  91.8463281  43.0929228  76.5330271
  91.5146606  43.9624639  76.3091486  91.2508894  42.7765512  77.2124302
  85.5819467  46.8324795  64.2660354  85.7493869  47.7005032  64.6330825
  85.3916636  46.9952077  63.3421643  88.3394800  55.2941774  75.9326184
  88.0395523  56.1966813  75.8241991  87.9945860  55.0273957  76.7847337
  81.7907282  51.7455571  71.9662888  80.8657778  51.6131785  72.1740580
  82.0391695  52.5249790  72.4632831  91.7391944  47.8124314  73.6123621
  90.8308821  47.7439723  73.3182382  91.6879540  48.2896259  74.4405447
  85.5608688  49.2882453  65.2507020  85.4408313  49.7339504  66.0892501
  84.8661276  49.6367770  64.6920559  79.1516093  51.3888845  72.8006677
  79.2808474  51.6423323  73.7146089  78.4713544  51.9816553  72.4811333
  85.8132810  49.2313960  81.5558519  85.0366144  49.7907880  81.5461383
  86.4523373  49.7170743  82.0773389  93.6053591  46.0140753  75.3901495
  92.9627971  46.3073286  74.7441290  93.1008519  45.8993673  76.1954692
  91.2593754  49.7603926  66.0787354  92.1711610  49.9931313  65.9035052
  90.7503401  50.3440970  65.5162433  84.0679182  52.0399413  81.1176486
  84.8093867  52.5784457  80.8411309  83.3616168  52.6665702  81.2748037
  89.5434522  54.1828554  79.7148647  89.9517878  53.7410964  78.9703279
  88.8211783  53.6081181  79.9682840  85.8965592  49.1201161  77.0882204
  86.7426787  49.5440574  77.2316853  85.8364230  48.4634785  77.7820767
  89.8663336  54.7429744  73.4700936  89.2372199  54.9075459  72.7677004
  89.4788999  55.1571354  74.2411900  93.7452568  55.6784182  70.8245300
  93.0603607  56.0583084  70.2742333  93.8296418  56.2879509  71.5577247
  89.0465037  46.7805529  78.7463378  88.8025969  47.5347589  78.2097653
  89.3224968  47.1590876  79.5810625  91.0003500  53.3244141  77.4240643
  91.2120395  53.9675901  76.7475024  90.9533248  52.4906458  76.9562573
  88.6029729  45.9361962  74.3277215  87.7414208  46.2343215  74.6193953
  88.6292164  46.1532361  73.3958248  85.4191298  54.4804152  70.7351021
  85.8829644  54.7591855  69.9455644  85.1548096  53.5787597  70.5524112
  82.3115379  54.0275634  73.6730784  82.8816736  54.4562902  73.0348269
  82.9023491  53.7458219  74.3714970  84.3560184  50.6027305  67.5440586
  85.0584228  51.0548349  68.0114513  84.0240813  49.9611124  68.1720479
  82.8040546  49.1939061  81.9191796  82.1739207  49.8755342  82.1527192
  82.6976634  49.0822143  80.9744934  78.0985518  48.8610857  72.8457720
  77.3084572  49.1168386  72.3697830  78.5896766  49.6759195  72.9509760
  80.0500264  49.2255437  69.8041196  79.2531427  49.3374131  70.3224692
  79.8225856  49.5642089  68.9382087  85.8805931  55.7500140  77.7523711
  85.9450364  56.2120547  78.5881883  85.1716855  55.1197505  77.8806021
  76.3823221  49.1141348  75.2772711  76.6331260  49.9988358  75.5430286
  76.9182770  48.9345949  74.5047802 100.2055321  52.5454845  71.9447972
  99.4519029  51.9762243  71.7891976 100.3402862  52.5117510  72.8918607
  82.0821289  43.4959827  84.2817047  81.6888234  42.9426026  84.9564691
  82.8987429  43.8070406  84.6723564  84.9989250  44.9117706  81.8737303
  85.7398963  45.5124860  81.7941766  85.2307172  44.1695344  81.3155346
  80.1430588  50.0974074  80.1515533  80.0284103  49.1959331  80.4522632
  79.2875105  50.3437770  79.8000349  85.7776718  55.8338743  80.6207943
  86.3105054  55.0727032  80.3907251  85.2490799  55.5412395  81.3632098
  88.9446413  40.9398809  76.1501585  88.6010682  41.8300451  76.0740695
  89.3125375  40.7500467  75.2871170  88.9096695  50.9307420  64.6574020
  88.3943319  51.7012025  64.8962407  88.6374004  50.2572557  65.2807081
  86.4943806  45.7757121  69.7159258  85.6385403  45.3863972  69.5364897
  86.9070758  45.8549082  68.8559044  88.0242953  43.3103465  74.1150818
  87.5207749  43.2733600  73.3018623  88.3173560  44.2196207  74.1747475
  84.2685839  43.3942194  73.1217000  85.1338836  43.1985003  72.7622889
  84.3363348  43.1652546  74.0486357  93.8830969  53.6839775  66.5927193
  93.1060412  53.3450935  66.1482356  94.5622450  53.6892398  65.9182158
  88.6982998  48.8034513  66.4833801  88.3933134  49.1180662  67.3343944
  89.6513441  48.8815932  66.5261134  87.1429430  54.9624736  68.1326755
  86.6150792  54.2277495  67.8199993  86.6416933  55.7399412  67.8866723
  92.1222276  53.1573756  73.2493801  91.4645951  53.8473018  73.3373930
  92.9262676  53.5470188  73.5927788  81.8748158  45.6244402  70.4933367
  82.4491910  45.4019584  69.7606560  82.4619140  45.6933097  71.2461968
  90.9327735  51.5118129  71.2997743  91.4459617  52.1448121  71.8019453
  91.5828959  50.9119325  70.9341103  82.2017745  47.6548863  64.5129252
  81.3655057  47.9923550  64.8338527  82.0622515  47.5197843  63.5756389
  84.1770826  42.4985651  69.2208436  83.5235238  42.1834668  68.5965051
  84.1351300  41.8761392  69.9468259  85.2882031  52.7804946  61.1361728
  84.3809092  52.5494200  61.3352877  85.7853063  51.9842565  61.3235710
  88.1950109  61.4902453  64.0558414  87.5211808  61.7934150  64.6643372
  88.5815931  62.2931534  63.7063871  87.4108566  48.9867585  73.5456084
  86.4931127  49.2082532  73.3877772  87.8268710  49.0613895  72.6867791
  88.1943614  50.3859000  68.6758764  88.9415433  50.8980397  68.3665886
  88.4635203  50.0643053  69.5363158  86.4670264  52.8817541  65.6585718
  85.5581483  52.5976574  65.7558188  86.4965348  53.3016620  64.7989025
  91.6989531  56.4924130  69.4276886  91.2451858  55.6515040  69.4842076
  91.0683498  57.1285529  69.7651666  90.6422451  47.4216117  70.6577553
  89.9045208  46.9093503  70.9887796  90.8949224  46.9816498  69.8460830
  90.1422471  58.3300627  70.3626704  90.4345445  58.8905684  69.6439070
  90.6521091  58.6229188  71.1179863  90.7434078  40.1992369  71.2519323
  91.0492955  39.3389732  70.9645238  91.4686683  40.7909989  71.0518316
  85.0155158  50.4946162  71.7595514  85.0703768  49.5419998  71.6837990
  84.2046360  50.6505601  72.2436812  86.1646352  54.4226285  62.9973797
  85.7265782  53.7062144  62.5379434  86.9056793  54.6502399  62.4358888
  82.9547518  49.1123221  69.5185892  82.1415383  49.4117392  69.9251085
  83.4506512  48.7178910  70.2360375  88.5521730  49.5765046  78.3500786
  88.9071117  49.8036519  79.2095252  89.1993861  49.9083423  77.7278042
  94.2819467  52.6983482  69.0550115  94.1437365  52.8885078  68.1271305
  93.9255685  53.4602865  69.5118167  82.4461593  46.6841577  75.1347127
  83.0860972  46.5430336  74.4370091  81.6139123  46.3976090  74.7585729
  94.3088846  54.7660009  74.0661387  94.7425353  54.6735298  74.9144441
  95.0220427  54.7417509  73.4281403  79.5304660  50.1287089  67.3241873
  78.6002248  50.0671545  67.5411835  79.6262132  49.6063042  66.5278514
  79.4490209  46.6541902  69.9120114  79.7097026  47.5687235  69.8029275
  80.2707381  46.1866344  70.0616727  80.9215134  48.0679659  77.0818939
  81.5938188  47.8597021  76.4331588  80.0944921  47.8701745  76.6424171
  95.1704396  54.8083709  76.5994272  95.3640286  55.7129520  76.8453547
  95.0705014  54.3491128  77.4332857  86.8240706  44.6941600  79.0984600
  86.1768621  45.3931550  79.0049076  87.5941722  45.1277744  79.4660848
  90.2319504  54.9590452  82.1735153  90.0805011  54.7301004  81.2565237
  90.2224184  55.9161054  82.1866498  87.0004841  52.5322365  77.1581419
  87.9296901  52.6833524  76.9850387  86.5795871  52.6206386  76.3030066
  87.3498388  55.9354632  72.3168795  87.0148220  55.8955402  73.2126445
  86.8502333  55.2699348  71.8439205  81.3242632  51.3422262  77.8421376
  81.1862430  50.6102501  78.4432915  82.2347555  51.2531162  77.5605564
  90.2857579  53.2810666  62.5905854  89.6686750  52.5557494  62.4938907
  89.8174068  54.0420027  62.2472929  83.9524932  51.0542221  77.3305056
  84.6624551  50.4135414  77.2891674  83.9094241  51.3055116  78.2531236
  82.6653866  48.0407439  79.1500695  82.1291223  47.5898178  79.8022291
  82.0770575  48.1753348  78.4071159  82.0756125  47.4996091  61.7127159
  81.1985592  47.3784891  61.3489405  82.5513878  46.7082169  61.4606047
  78.3992988  47.1763447  76.2353690  78.3151176  46.5689116  75.5004099
  77.5775694  47.6672465  76.2363186  88.5716701  45.6617010  71.6023885
  89.0685401  44.9086973  71.2824955  87.8003683  45.6981327  71.0367094
  96.4246459  51.3657376  73.2442176  96.4136335  52.2482091  72.8736109
  95.5563838  51.0128927  73.0496713  89.6546482  54.4188698  69.1762308
  88.7202761  54.5390160  69.0067012  89.8323151  53.5161164  68.9122318
  85.1551670  47.8034393  71.3295569  84.7849458  47.2505434  72.0176475
  85.6510763  47.1992527  70.7770569  93.0419033  50.2606017  69.7112342
  93.5079486  51.0934009  69.6372645  93.4926534  49.7950999  70.4157601
  91.1095265  56.6049838  66.7098494  91.3855108  56.4906433  67.6192368
  90.2399763  56.2067323  66.6710667  91.0135696  42.6286604  73.7503243
  90.0998776  42.8590831  73.9185450  91.4428798  42.7125048  74.6017276
  90.7842155  50.8176496  76.2503137  90.1313605  51.0652403  75.5955590
  91.1622535  50.0040634  75.9165615  86.8329728  51.5596307  82.7369175
  86.1570365  51.4590436  83.4071550  87.6557362  51.4035521  83.2005172
  80.5517004  45.2138384  77.5748675  80.6158330  46.0753215  77.1626073
  80.4884124  44.6012386  76.8421034  80.0269276  47.2861517  81.2221710
  80.6541315  46.9038594  81.8359234  79.1697195  47.0675719  81.5877402
  80.3329066  47.1693942  73.1367613  79.6115652  47.7829910  72.9975086
  81.1222322  47.7051707  73.0584259  83.1355380  44.5048369  79.4108265
  83.6589781  44.7510665  80.1734574  82.9167713  45.3368404  78.9911402
  78.5322661  46.7752044  67.2779390  78.2035367  45.8949422  67.0954495
  78.8862031  46.7199712  68.1655779  81.6464484  47.0625013  67.6454867
  81.9860556  47.5910935  66.9233476  82.0936604  47.4005419  68.4213434
  84.3407925  45.4462064  77.0957935  84.0004745  44.6469877  77.4978615
  83.6346931  45.7463775  76.5234768  84.9924397  42.5311376  75.5485258
  85.8150466  42.0571855  75.4264149  85.2362460  43.3101860  76.0483945
  83.6332631  45.5599635  65.8448160  84.3540994  45.9380888  65.3411877
  83.0097935  46.2788512  65.9483138  87.7763754  46.2644784  66.7806492
  87.9927368  47.1469422  66.4795320  87.2957821  45.8730997  66.0512134
  82.5162975  49.2230497  73.3577237  82.3707556  49.5370800  74.2501518
  82.0388179  49.8415397  72.8048136  84.3759358  46.2133045  73.4058126
  84.3620927  45.3174138  73.0690424  85.0931786  46.2203709  74.0396412
  86.2285489  46.6470385  75.4511254  85.9703267  47.5687456  75.4495584
  85.6970529  46.2500820  76.1411718  91.1731678  59.7521172  68.2301339
  91.3468555  59.1867595  67.4775192  91.6660569  60.5522067  68.0480829
  76.9908637  51.7635841  76.2964898  76.4462106  52.5395649  76.4285172
  77.8687987  52.1106646  76.1384019  83.7796254  45.0947425  68.6745697
  83.9012165  44.1664072  68.8736584  83.4898296  45.1086111  67.7624012
  86.6487444  42.7802336  71.8112416  86.6709141  42.8441669  70.8564396
  87.0655503  41.9406844  72.0052923  97.0271069  52.5157595  69.8491639
  97.4702215  51.7664921  69.4510762  96.1497579  52.5067732  69.4665371
  92.1606850  59.0687937  65.3298238  92.8557755  59.6894629  65.5485552
  92.5030000  58.2183288  65.6050615  77.7774659  50.8905738  79.1895055
  77.0356395  51.0388373  79.7759685  77.4567404  51.1514003  78.3261804
  94.0598273  56.5187642  66.8585568  94.5849597  56.8574915  66.1334888
  93.9720626  55.5834658  66.6748703  83.2637334  46.6079423  82.8835629
  83.3125489  47.4841546  82.5013399  83.8059848  46.0656816  82.3107272
  93.8690054  54.0013012  79.4769495  93.9188059  53.8363020  80.4185018
  93.7603978  53.1340271  79.0867376  91.1593817  49.9843940  80.7928801
  92.0603680  49.8450405  80.5012799  91.2341791  50.1498395  81.7326979
  85.4936622  47.3610795  79.6381988  84.6239931  47.6544361  79.3664576
  85.7296102  47.9451240  80.3589251  95.3708251  56.4209954  79.7211516
  95.0793059  56.7839934  80.5574977  94.7580382  55.7076962  79.5424848
  96.5703934  53.9862834  72.2414087  97.4050825  54.4252638  72.4051647
  96.7063062  53.5101487  71.4222332  93.6195439  51.5442568  78.1891574
  94.0949561  51.7370215  77.3810426  92.6961005  51.6001754  77.9434958
  88.1975656  43.5790412  77.1547408  88.7157600  44.3151439  76.8293897
  87.8430789  43.8854405  77.9894167  79.7774594  48.4395093  65.2708814
  79.0843839  48.5139448  64.6148850  79.5326345  47.6755437  65.7930331
  88.4488250  39.9990695  72.6748305  88.7290004  39.3313884  73.3008731
  89.2338857  40.1919790  72.1622969  92.3197108  48.4208329  76.4219880
  93.2714531  48.5206426  76.4432104  92.1500559  47.6286597  76.9317964
  90.3411488  45.5063912  76.6079281  89.7461420  45.7868925  75.9125769
  90.0561185  45.9957813  77.3796022  89.4718978  59.4586839  65.3681913
  90.4049652  59.3932400  65.5714789  89.3842191  60.2943105  64.9096446
  92.1006995  58.7752709  62.3285861  92.0220627  58.4412573  63.2221619
  92.9216662  59.2674477  62.3277333  94.7985186  51.6414448  75.5362180
  94.7661506  50.7030449  75.7221863  95.4085810  51.7198485  74.8028004
  86.6368517  50.5110501  61.5789384  87.5827622  50.3816709  61.6477802
  86.2582762  49.7725163  62.0558812  94.9479675  48.4325492  75.5820463
  94.4318723  47.6483948  75.3950392  95.8319623  48.1044208  75.7466982
  92.6090402  42.1766507  71.5416275  92.4115223  41.8681595  72.4259607
  93.2190107  42.9028146  71.6714205 100.6161736  52.7030455  74.6768216
 101.3465125  52.4415743  75.2375920 100.0068682  51.9659177  74.7170284
  98.6977033  50.8438318  75.2742668  97.9710197  50.7094283  74.6659159
  98.2824320  51.1515146  76.0799386  86.5207210  54.5628247  83.0390041
  87.4410219  54.7406846  83.2330087  86.4856793  53.6184293  82.8869740
  84.8211434  48.4360478  61.5144269  83.9142890  48.1393590  61.5906982
  85.0987415  48.1390296  60.6478555  79.5169282  52.4729282  75.6812822
  79.7355292  53.4046390  75.7000856  79.9295056  52.1137256  76.4667626
  86.4373500  42.9797367  67.6688510  85.6274228  42.6344452  68.0443756
  87.1257917  42.6704911  68.2576122  88.3664048  42.0575414  69.2912807
  88.9195087  42.4770868  69.9502830  88.6034135  41.1311162  69.3335763
  84.3897147  48.0462488  85.0715571  84.2893874  48.9956845  85.0027662
  84.1718690  47.7180727  84.1991641  83.5910219  45.2947413  61.6556248
  84.4529383  45.6202311  61.9152065  83.7760563  44.5078909  61.1429314
  91.7442855  44.1675939  68.7991471  91.1641524  44.8260743  68.4169523
  91.4778788  43.3453284  68.3878889  90.1946422  43.5680997  71.0012791
  90.6946200  43.6797532  70.1927110  90.8382030  43.2642050  71.6413600
  84.2528418  51.4759627  83.8880632  83.7695499  52.2759987  84.0944521
  84.3389357  51.4867572  82.9348076  80.1801755  55.3664161  75.9249066
  81.1345009  55.3348104  75.8578998  79.9814279  54.9054785  76.7399292
  80.7701137  53.9365277  78.4919864  81.5894026  54.4309356  78.5154701
  81.0437945  53.0197246  78.4637431  90.5267733  46.3276030  67.8547819
  89.6393588  46.6125680  67.6368014  90.9421722  46.1669793  67.0075096
  93.8782269  46.3522551  71.5702159  94.6542660  46.8419003  71.8426775
  93.1530404  46.7780605  72.0274028  96.3154828  47.0650170  72.6276099
  96.9099319  46.8245906  71.9169407  96.3881412  46.3457300  73.2549635
  89.6710947  56.0920704  61.9495839  90.3746797  56.2970707  62.5653495
  88.9473596  56.6597466  62.2144923  90.5008757  51.8430566  68.0698109
  90.4443958  52.2999117  67.2305742  91.0537100  51.0821250  67.8920952
  94.3113563  47.6320297  68.8948229  94.0550497  47.2316933  69.7256437
  93.6866431  48.3464091  68.7698368  98.6225901  50.3716371  71.4019520
  98.0625459  50.4409560  72.1751082  98.0169404  50.1957355  70.6819017
  91.5797644  56.5303234  63.9994299  92.4143248  56.0984432  63.8171774
  91.4181987  56.3585247  64.9271194  91.2343536  53.0335347  65.3650639
  91.1792340  52.8679618  64.4239083  90.6089592  53.7411380  65.5212828
  76.0236051  48.2703411  79.1912061  76.6694915  47.7602365  79.6799286
  75.8153203  49.0072093  79.7655486  88.5489444  55.3384259  84.6904201
  89.4180603  55.5124911  84.3290836  88.0696195  56.1578676  84.5679931
  84.5439662  42.5343456  64.9435957  84.5318332  43.4785296  65.1004228
  85.4363084  42.3513601  64.6495418  88.3591781  39.1286233  69.1981894
  87.5924177  38.5744719  69.3438576  88.7702486  39.2008101  70.0596045
  80.3633542  45.4171028  83.2887075  81.2265004  45.0607833  83.4990400
  79.7898953  45.0784923  83.9762479 100.2081919  67.0472885  74.0949476
 100.8460329  66.9279632  73.3912816 100.0902762  67.9953729  74.1537428
  97.0171626  67.0000313  74.0311001  96.6790137  66.8841377  73.1431536
  97.8861394  66.5991478  74.0112007  92.8758441  68.8535789  70.0207892
  92.3123306  68.7625726  69.2524179  92.7610836  68.0335694  70.5010384
  97.4991409  68.1535165  79.9897206  97.4880049  67.7587963  79.1177710
  97.6612048  67.4201237  80.5830978  90.4222873  70.3486981  72.8592112
  91.2144165  70.0077805  72.4438411  90.6619523  70.4581956  73.7794265
  98.4558000  72.5206757  65.3322357  97.8045980  73.1060837  64.9456370
  99.2502363  73.0512952  65.3917394  92.3813627  69.6095894  65.7309491
  93.1544503  69.0624881  65.5922367  92.7339026  70.4740143  65.9423952
  94.2198670  70.9372276  78.9376390  93.9288536  71.8417907  78.8223057
  94.8555654  70.9788804  79.6520460  95.1454877  68.3149125  75.5277750
  95.7418449  68.0905147  74.8134713  95.2029848  67.5733870  76.1303198
  94.7179905  65.7688560  63.3627941  94.9705426  65.2470081  62.6011404
  93.7804464  65.6054706  63.4654624  99.7623188  64.7724339  71.1702684
 100.5486277  64.3543762  70.8193101 100.0261892  65.6770431  71.3384333
  99.9333265  70.2097189  65.8691341  99.2979098  70.2831815  66.5812246
  99.6030672  70.7990788  65.1910420 105.1631615  64.7099572  72.0735663
 105.8956787  64.1398789  72.3073492 104.4070971  64.3221172  72.5142168
  94.4376194  67.6716666  65.5652316  94.3212452  66.9961570  66.2333400
  94.5478454  67.1849040  64.7484469  96.7807735  67.1326813  69.2699005
  96.4165942  66.6057434  69.9811927  97.6374851  66.7425282  69.0965490
 102.6857035  58.4221146  76.5330271 102.3540360  59.2916557  76.3091486
 102.0902649  58.1057430  77.2124302  96.4213222  62.1616713  64.2660354
  96.5887624  63.0296949  64.6330825  96.2310391  62.3243995  63.3421643
  99.1788555  70.6233692  75.9326184  98.8789278  71.5258731  75.8241991
  98.8339614  70.3565875  76.7847337  92.6301036  67.0747489  71.9662888
  91.7051533  66.9423703  72.1740580  92.8785449  67.8541708  72.4632831
 102.5785699  63.1416232  73.6123621 101.6702576  63.0731640  73.3182382
 102.5273294  63.6188177  74.4405447  96.4002443  64.6174370  65.2507020
  96.2802068  65.0631421  66.0892501  95.7055031  64.9659688  64.6920559
  89.9909847  66.7180762  72.8006677  90.1202228  66.9715241  73.7146089
  89.3107299  67.3108470  72.4811333  94.1609335  77.3878012  68.8997152
  94.0833364  78.3385837  68.9785632  93.5570978  77.0423885  69.5572078
 104.4447345  61.3432670  75.3901495 103.8021725  61.6365204  74.7441290
 103.9402274  61.2285591  76.1954692 102.0987509  65.0895844  66.0787354
 103.0105365  65.3223230  65.9035052 101.5897156  65.6732888  65.5162433
 100.3828276  69.5120471  79.7148647 100.7911632  69.0702882  78.9703279
  99.6605538  68.9373099  79.9682840  96.7359346  64.4493078  77.0882204
  97.5820542  64.8732492  77.2316853  96.6757984  63.7926703  77.7820767
 100.7057091  70.0721662  73.4700936 100.0765953  70.2367376  72.7677004
 100.3182753  70.4863272  74.2411900 104.5846323  71.0076100  70.8245300
 103.8997361  71.3875001  70.2742333 104.6690172  71.6171427  71.5577247
  99.8858792  62.1097447  78.7463378  99.6419724  62.8639507  78.2097653
 100.1618722  62.4882794  79.5810625 101.8397254  68.6536059  77.4240643
 102.0514150  69.2967819  76.7475024 101.7927003  67.8198375  76.9562573
  99.4423483  61.2653880  74.3277215  98.5807962  61.5635133  74.6193953
  99.4685918  61.4824278  73.3958248  96.2585053  69.8096070  70.7351021
  96.7223398  70.0883773  69.9455644  95.9941851  68.9079515  70.5524112
  93.1509134  69.3567552  73.6730784  93.7210491  69.7854820  73.0348269
  93.7417246  69.0750136  74.3714970  95.1953939  65.9319223  67.5440586
  95.8977982  66.3840266  68.0114513  94.8634567  65.2903041  68.1720479
 102.9543082  71.5308014  75.5963001 103.7760526  71.1288202  75.3145682
 102.9505485  71.4276249  76.5479116  90.8894018  64.5547354  69.8041196
  90.0925182  64.6666049  70.3224692  90.6619610  64.8934007  68.9382087
  96.7199686  71.0792058  77.7523711  96.7844118  71.5412465  78.5881883
  96.0110610  70.4489423  77.8806021 111.0449075  67.8746763  71.9447972
 110.2912784  67.3054161  71.7891976 111.1796617  67.8409427  72.8918607
  96.4347704  72.7460165  67.6202691  96.2993378  73.5911701  68.0487539
  96.9757516  72.9479443  66.8568625  89.8877101  70.2635603  68.1930616
  90.4001621  71.0578853  68.3436181  90.5399814  69.5661894  68.1264218
  91.6971986  73.3801359  70.2753370  91.8738614  74.3019324  70.0874354
  92.4928819  73.0659779  70.7047749  98.0616180  73.3683732  81.7503033
  97.6180034  72.5820110  81.4323938  98.7233393  73.5562882  81.0846924
  92.8203301  74.8979533  76.2763712  93.3710726  74.7696597  75.5040706
  91.9814777  75.1974422  75.9258605 100.1597418  73.6486532  79.7784435
 100.1415893  74.4695413  79.2864704 101.0817338  73.5240607  80.0034576
  96.6170472  71.1630661  80.6207943  97.1498809  70.4018949  80.3907251
  96.0884553  70.8704313  81.3632098  99.7840167  56.2690727  76.1501585
  99.4404436  57.1592369  76.0740695 100.1519130  56.0792385  75.2871170
  99.7490450  66.2599338  64.6574020  99.2337073  67.0303943  64.8962407
  99.4767758  65.5864474  65.2807081  97.3337561  61.1049039  69.7159258
  96.4779157  60.7155889  69.5364897  97.7464513  61.1841000  68.8559044
  98.8636707  58.6395382  74.1150818  98.3601503  58.6025517  73.3018623
  99.1567314  59.5488125  74.1747475  95.1079593  58.7234112  73.1217000
  95.9732590  58.5276921  72.7622889  95.1757102  58.4944464  74.0486357
 104.7224724  69.0131693  66.5927193 103.9454167  68.6742852  66.1482356
 105.4016205  69.0184316  65.9182158  99.5376753  64.1326430  66.4833801
  99.2326889  64.4472579  67.3343944 100.4907195  64.2107850  66.5261134
  97.9823185  70.2916654  68.1326755  97.4544546  69.5569413  67.8199993
  97.4810688  71.0691330  67.8866723 102.9616031  68.4865674  73.2493801
 102.3039705  69.1764935  73.3373930 103.7656430  68.8762106  73.5927788
  92.7141912  60.9536320  70.4933367  93.2885664  60.7311501  69.7606560
  93.3012895  61.0225014  71.2461968 101.7721490  66.8410047  71.2997743
 102.2853371  67.4740039  71.8019453 102.4222714  66.2411242  70.9341103
  93.0411500  62.9840781  64.5129252  92.2048812  63.3215467  64.8338527
  92.9016269  62.8489761  63.5756389  95.0164580  57.8277569  69.2208436
  94.3628992  57.5126586  68.5965051  94.9745054  57.2053309  69.9468259
  96.1275785  68.1096864  61.1361728  95.2202847  67.8786117  61.3352877
  96.6246817  67.3134483  61.3235710  99.0343864  76.8194371  64.0558414
  98.3605563  77.1226068  64.6643372  99.4209686  77.6223451  63.7063871
  98.2502321  64.3159502  73.5456084  97.3324882  64.5374449  73.3877772
  98.6662464  64.3905813  72.6867791  99.0337368  65.7150918  68.6758764
  99.7809187  66.2272315  68.3665886  99.3028958  65.3934971  69.5363158
  97.3064018  68.2109459  65.6585718  96.3975238  67.9268491  65.7558188
  97.3359102  68.6308537  64.7989025 102.5383286  71.8216048  69.4276886
 102.0845613  70.9806958  69.4842076 101.9077253  72.4577447  69.7651666
 101.4816205  62.7508034  70.6577553 100.7438962  62.2385420  70.9887796
 101.7342979  62.3108416  69.8460830 100.9816225  73.6592545  70.3626704
 101.2739199  74.2197602  69.6439070 101.4914846  73.9521106  71.1179863
 101.5827833  55.5284286  71.2519323 101.8886710  54.6681650  70.9645238
 102.3080438  56.1201906  71.0518316  95.8548912  65.8238079  71.7595514
  95.9097522  64.8711916  71.6837990  95.0440115  65.9797518  72.2436812
  97.0040106  69.7518202  62.9973797  96.5659536  69.0354061  62.5379434
  97.7450547  69.9794317  62.4358888  93.7941272  64.4415139  69.5185892
  92.9809138  64.7409310  69.9251085  94.2900267  64.0470828  70.2360375
  95.9449850  74.4372896  71.4520157  95.9026029  74.6633742  70.5228689
  96.8612549  74.2036271  71.6005958  99.3915484  64.9056963  78.3500786
  99.7464872  65.1328437  79.2095252 100.0387615  65.2375340  77.7278042
 105.1213221  68.0275399  69.0550115 104.9831120  68.2176995  68.1271305
 104.7649440  68.7894782  69.5118167 105.1482601  70.0951926  74.0661387
 105.5819107  70.0027215  74.9144441 105.8614181  70.0709427  73.4281403
  94.0615651  71.3135925  71.2482120  94.8556250  70.8186245  71.0464695
  93.3507343  70.7853788  70.8849825  98.8810496  73.6954020  75.5994487
  98.9347518  74.2644957  76.3672203  98.0125277  73.8655906  75.2348525
  90.3698415  65.4579007  67.3241873  89.4396003  65.3963462  67.5411835
  90.4655887  64.9354959  66.5278514  90.2883964  61.9833820  69.9120114
  90.5490781  62.8979153  69.8029275  91.1101136  61.5158262  70.0616727
 106.0098150  70.1375627  76.5994272 106.2034040  71.0421438  76.8453547
 105.9098768  69.6783046  77.4332857  97.6634461  60.0233518  79.0984600
  97.0162376  60.7223467  79.0049076  98.4335476  60.4569662  79.4660848
 101.0713259  70.2882370  82.1735153 100.9198765  70.0592921  81.2565237
 101.0617938  71.2452971  82.1866498  97.8398595  67.8614283  77.1581419
  98.7690655  68.0125442  76.9850387  97.4189625  67.9498303  76.3030066
  96.6386927  71.8864947  74.9279957  96.4998013  71.5183731  75.8005895
  95.8501523  72.4012586  74.7563915  97.2335079  76.9874043  66.2705494
  97.4086835  76.5162087  67.0851116  96.5467867  77.6139810  66.4986754
  98.1892142  71.2646550  72.3168795  97.8541975  71.2247320  73.2126445
  97.6896088  70.5991266  71.8439205 101.1251334  68.6102584  62.5905854
 100.5080505  67.8849412  62.4938907 100.6567822  69.3711944  62.2472929
 102.7805466  73.3201492  80.2511635 102.7218012  72.6360712  79.5842218
 103.1824984  74.0620482  79.7992261  91.7996164  80.1363406  73.0445354
  92.0392763  80.7681930  73.7224372  90.9565361  79.7851446  73.3310713
  92.9149880  62.8288008  61.7127159  92.0379346  62.7076809  61.3489405
  93.3907633  62.0374087  61.4606047 102.7822873  71.2841076  78.4825614
 101.8949652  70.9466998  78.6052013 103.3521424  70.5524108  78.7194380
  96.3124026  75.9442529  75.4486858  96.2394198  76.7497500  75.9606162
  95.8701419  76.1434494  74.6234879  96.1013806  75.1814299  68.9589679
  95.3181328  75.7235979  69.0527904  96.8006551  75.6988278  69.3583920
  99.4110456  60.9908928  71.6023885  99.9079155  60.2378890  71.2824955
  98.6397437  61.0273245  71.0367094 107.2640213  66.6949294  73.2442176
 107.2530090  67.5774009  72.8736109 106.3957593  66.3420844  73.0496713
  98.7722710  75.8429363  77.6045016  99.4850682  76.4776827  77.5320918
  98.2812738  75.9393229  76.7885018 100.4940237  69.7480615  69.1762308
  99.5596515  69.8682078  69.0067012 100.6716905  68.8453082  68.9122318
  95.9945425  63.1326311  71.3295569  95.6243212  62.5797351  72.0176475
  96.4904517  62.5284445  70.7770569 103.8812788  65.5897935  69.7112342
 104.3473240  66.4225926  69.6372645 104.3320288  65.1242916  70.4157601
  93.8234623  73.5923806  78.4250587  94.5244083  74.2260289  78.5779981
  93.3529738  73.9338538  77.6646226 101.9489019  71.9341756  66.7098494
 102.2248863  71.8198350  67.6192368 101.0793518  71.5359241  66.6710667
 101.8529451  57.9578522  73.7503243 100.9392531  58.1882748  73.9185450
 102.2822552  58.0416966  74.6017276 101.6235909  66.1468414  76.2503137
 100.9707359  66.3944321  75.5955590 102.0016289  65.3332552  75.9165615
  98.5843083  76.1828107  70.3531308  98.7665478  75.3649763  70.8159060
  99.4076069  76.3995799  69.9156198  98.9185249  75.1096292  67.6146356
  99.4473015  74.5988746  67.0016518  99.1813468  74.7938822  68.4791889
  92.2740997  76.1611409  70.3744132  91.6051372  76.6457536  69.8908172
  92.1353866  76.4080629  71.2887511  96.4146265  78.1955152  76.9726791
  96.9664573  78.3586774  77.7375876  96.7552459  78.7859590  76.3006815
 101.2657139  73.0216410  82.8275445 101.8097043  73.6346368  82.3330400
 100.6843984  73.5795988  83.3442458  87.6428574  64.4229864  67.1540064
  87.9382015  63.5140542  67.1007118  86.7416609  64.4017603  66.8321067
  99.5514652  76.1437128  73.9590473  99.4265792  75.3426867  73.4501418
 100.2093744  76.6383321  73.4704443 101.6149561  73.9446148  75.5870023
 100.6679896  73.8251499  75.5148350 101.9632334  73.0568646  75.6696284
  89.3716415  62.1043961  67.2779390  89.0429121  61.2241340  67.0954495
  89.7255786  62.0491630  68.1655779  98.6195994  73.7398864  71.7874375
  98.4720957  72.8115571  71.9681945  99.4449488  73.7618955  71.3031450
  92.4858238  62.3916931  67.6454867  92.8254311  62.9202852  66.9233476
  92.9330359  62.7297337  68.4213434 102.2230116  74.5627423  72.8739248
 103.1476663  74.3570284  72.7363699 102.0545419  74.3143824  73.7828589
  95.1801679  60.7753982  77.0957935  94.8398500  59.9761795  77.4978615
  94.4740685  61.0755693  76.5234768  95.8318151  57.8603294  75.5485258
  96.6544220  57.3863772  75.4264149  96.0756215  58.6393778  76.0483945
  94.4726386  60.8891553  65.8448160  95.1934748  61.2672805  65.3411877
  93.8491690  61.6080429  65.9483138  98.6157508  61.5936702  66.7806492
  98.8321123  62.4761339  66.4795320  98.1351576  61.2022915  66.0512134
  95.2153113  61.5424963  73.4058126  95.2014681  60.6466056  73.0690424
  95.9325541  61.5495627  74.0396412  97.0679243  61.9762303  75.4511254
  96.8097021  62.8979374  75.4495584  96.5364284  61.5792738  76.1411718
 102.0125432  75.0813090  68.2301339 102.1862310  74.5159513  67.4775192
 102.5054323  75.8813985  68.0480829  94.6190009  60.4239343  68.6745697
  94.7405920  59.4955989  68.8736584  94.3292051  60.4378029  67.7624012
  97.4881199  58.1094253  71.8112416  97.5102896  58.1733587  70.8564396
  97.9049258  57.2698762  72.0052923 107.8664823  67.8449513  69.8491639
 108.3095969  67.0956838  69.4510762 106.9891334  67.8359649  69.4665371
 103.0000605  74.3979854  65.3298238 103.6951509  75.0186547  65.5485552
 103.3423755  73.5475206  65.6050615 104.8992028  71.8479560  66.8585568
 105.4243352  72.1866833  66.1334888 104.8114380  70.9126575  66.6748703
  96.5612076  75.7613634  78.9875445  96.8699203  75.5162780  79.8598145
  97.3587558  75.9660272  78.4994315  96.5832688  77.9151543  71.2180821
  96.1437679  77.4227922  71.9113678  97.3340805  77.3724511  70.9772897
  89.0625027  74.1063084  71.2205450  89.8883047  73.8066856  70.8404093
  88.7119079  73.3370707  71.6695238  94.0306561  73.4589552  73.2903123
  93.4086570  72.7960257  72.9905351  94.7011428  73.4850684  72.6076771
  87.2633633  72.0249411  72.1794383  86.4265541  71.5971585  71.9978384
  87.2357278  72.2181854  73.1165174 104.5885934  72.4812464  82.1636766
 103.7981478  72.4636603  81.6241266 104.3519288  73.0200757  82.9185803
 104.7083809  69.3304930  79.4769495 104.7581814  69.1654937  80.4185018
 104.5997732  68.4632189  79.0867376  93.5920068  72.0093476  66.7661584
  93.7408188  72.6928940  66.1128256  94.3986511  71.9898566  67.2811039
 101.9987571  65.3135858  80.7928801 102.8997434  65.1742323  80.5012799
 102.0735546  65.4790313  81.7326979 106.2102006  71.7501872  79.7211516
 105.9186814  72.1131852  80.5574977 105.5974137  71.0368880  79.5424848
 107.4097688  69.3154751  72.2414087 108.2444579  69.7544555  72.4051647
 107.5456817  68.8393405  71.4222332 104.4589194  66.8734486  78.1891574
 104.9343316  67.0662132  77.3810426 103.5354759  66.9293672  77.9434958
  91.3472701  68.0358653  67.7722653  91.1018742  67.1320983  67.9702863
  91.5168615  68.0375804  66.8302131  99.0369410  58.9082330  77.1547408
  99.5551354  59.6443357  76.8293897  98.6824543  59.2146323  77.9894167
  90.6168348  63.7687011  65.2708814  89.9237593  63.8431366  64.6148850
  90.3720100  63.0047355  65.7930331  99.2882005  55.3282612  72.6748305
  99.5683758  54.6605801  73.3008731 100.0732611  55.5211708  72.1622969
  97.0915473  74.5041606  64.2373331  96.5189440  75.1231793  63.7843803
  97.6648267  75.0540968  64.7713253 103.1590863  63.7500246  76.4219880
 104.1108286  63.8498344  76.4432104 102.9894313  62.9578515  76.9317964
 101.1805242  60.8355829  76.6079281 100.5855175  61.1160842  75.9125769
 100.8954939  61.3249730  77.3796022 100.3112733  74.7878756  65.3681913
 101.2443406  74.7224318  65.5714789 100.2235946  75.6235023  64.9096446
 102.9400750  74.1044627  62.3285861 102.8614381  73.7704490  63.2221619
 103.7610416  74.5966395  62.3277333 105.6378941  66.9706366  75.5362180
 105.6055261  66.0322367  75.7221863 106.2479564  67.0490403  74.8028004
  97.4762272  65.8402419  61.5789384  98.4221376  65.7108627  61.6477802
  97.0976517  65.1017081  62.0558812 105.7873429  63.7617409  75.5820463
 105.2712478  62.9775866  75.3950392 106.6713378  63.4336126  75.7466982
 103.4484156  57.5058425  71.5416275 103.2508977  57.1973513  72.4259607
 104.0583862  58.2320064  71.6714205 111.4555491  68.0322373  74.6768216
 112.1858879  67.7707661  75.2375920 110.8462436  67.2951095  74.7170284
 109.5370788  66.1730235  75.2742668 108.8103951  66.0386200  74.6659159
 109.1218075  66.4807064  76.0799386  95.6605189  63.7652395  61.5144269
  94.7536644  63.4685508  61.5906982  95.9381170  63.4682213  60.6478555
  97.2767254  58.3089285  67.6688510  96.4667983  57.9636370  68.0443756
  97.9651671  57.9996829  68.2576122  99.2057803  57.3867332  69.2912807
  99.7588841  57.8062785  69.9502830  99.4427889  56.4603080  69.3335763
  94.4303973  60.6239331  61.6556248  95.2923137  60.9494229  61.9152065
  94.6154318  59.8370826  61.1429314 102.5836610  59.4967857  68.7991471
 102.0035279  60.1552661  68.4169523 102.3172543  58.6745202  68.3878889
 101.0340176  58.8972915  71.0012791 101.5339955  59.0089449  70.1927110
 101.6775784  58.5933968  71.6413600  88.3608132  68.6379924  71.8102452
  88.3378820  68.7367611  70.8584335  88.6708768  69.4845075  72.1319618
  91.0195510  70.6956079  75.9249066  91.9738763  70.6640021  75.8578998
  90.8208033  70.2346703  76.7399292 101.3661488  61.6567947  67.8547819
 100.4787343  61.9417598  67.6368014 101.7815477  61.4961711  67.0075096
 104.7176024  61.6814468  71.5702159 105.4936414  62.1710921  71.8426775
 103.9924158  62.1072523  72.0274028 107.1548583  62.3942088  72.6276099
 107.7493073  62.1537824  71.9169407 107.2275166  61.6749218  73.2549635
  89.3745738  76.2375699  72.9419264  89.2400206  75.4776099  72.3757262
  88.9577801  76.9616598  72.4748053 100.5104701  71.4212622  61.9495839
 101.2140551  71.6262625  62.5653495  99.7867350  71.9889384  62.2144923
 101.3402512  67.1722483  68.0698109 101.2837713  67.6291035  67.2305742
 101.8930854  66.4113168  67.8920952 105.1507318  62.9612215  68.8948229
 104.8944252  62.5608851  69.7256437 104.5260186  63.6756009  68.7698368
 109.4619655  65.7008288  71.4019520 108.9019213  65.7701478  72.1751082
 108.8563159  65.5249273  70.6819017  92.5314864  77.1345016  73.1537707
  92.4147248  78.0790448  73.0516397  91.7107310  76.8318577  73.5423506
 102.4191399  71.8595151  63.9994299 103.2537003  71.4276350  63.8171774
 102.2575742  71.6877165  64.9271194 102.0737291  68.3627265  65.3650639
 102.0186095  68.1971536  64.4239083 101.4483346  69.0703297  65.5212828
  99.3883198  70.6676176  84.6904201 100.2574358  70.8416829  84.3290836
  98.9089950  71.4870593  84.5679931  95.3833416  57.8635374  64.9435957
  95.3712086  58.8077213  65.1004228  96.2756838  57.6805519  64.6495418
  93.5569378  77.7873277  76.3693635  94.4596625  77.8196888  76.6860130
  93.3306748  76.8573728  76.3839971  95.3122980  76.5404264  73.0303714
  94.3618611  76.5406126  72.9168086  95.6155466  75.7936999  72.5139748
  99.1985536  54.4578150  69.1981894  98.4317932  53.9036637  69.3438576
  99.6096241  54.5300019  70.0596045 111.0475674  82.3764802  74.0949476
 111.6854084  82.2571550  73.3912816 110.9296517  83.3245646  74.1537428
 107.8565380  82.3292230  74.0311001 107.5183892  82.2133295  73.1431536
 108.7255148  81.9283396  74.0112007 103.7152196  84.1827707  70.0207892
 103.1517061  84.0917644  69.2524179 103.6004591  83.3627611  70.5010384
 108.3385163  83.4827082  79.9897206 108.3273804  83.0879880  79.1177710
 108.5005803  82.7493155  80.5830978 101.2616628  85.6778898  72.8592112
 102.0537920  85.3369723  72.4438411 101.5013278  85.7873874  73.7794265
 109.2951755  87.8498675  65.3322357 108.6439734  88.4352755  64.9456370
 110.0896117  88.3804869  65.3917394 103.2207382  84.9387812  65.7309491
 103.9938258  84.3916799  65.5922367 103.5732781  85.8032061  65.9423952
 105.0592424  86.2664194  78.9376390 104.7682290  87.1709825  78.8223057
 105.6949409  86.3080722  79.6520460 105.9848631  83.6441043  75.5277750
 106.5812203  83.4197065  74.8134713 106.0423603  82.9025788  76.1303198
 105.5573659  81.0980478  63.3627941 105.8099180  80.5761999  62.6011404
 104.6198219  80.9346623  63.4654624 110.6016942  80.1016256  71.1702684
 111.3880032  79.6835679  70.8193101 110.8655647  81.0062348  71.3384333
 110.7727020  85.5389107  65.8691341 110.1372853  85.6123733  66.5812246
 110.4424426  86.1282705  65.1910420 116.0025369  80.0391489  72.0735663
 116.7350541  79.4690706  72.3073492 115.2464725  79.6513090  72.5142168
 105.2769948  83.0008584  65.5652316 105.1606206  82.3253487  66.2333400
 105.3872208  82.5140958  64.7484469 107.6201489  82.4618731  69.2699005
 107.2559696  81.9349352  69.9811927 108.4768605  82.0717200  69.0965490
 113.5250790  73.7513064  76.5330271 113.1934115  74.6208474  76.3091486
 112.9296403  73.4349348  77.2124302 107.2606976  77.4908631  64.2660354
 107.4281378  78.3588867  64.6330825 107.0704145  77.6535912  63.3421643
 110.0182309  85.9525610  75.9326184 109.7183032  86.8550648  75.8241991
 109.6733369  85.6857793  76.7847337 103.4694791  82.4039406  71.9662888
 102.5445287  82.2715620  72.1740580 103.7179204  83.1833626  72.4632831
 113.4179453  78.4708150  73.6123621 112.5096330  78.4023558  73.3182382
 113.3667049  78.9480095  74.4405447 107.2396197  79.9466288  65.2507020
 107.1195822  80.3923339  66.0892501 106.5448785  80.2951606  64.6920559
 100.8303602  82.0472680  72.8006677 100.9595983  82.3007159  73.7146089
 100.1501053  82.6400388  72.4811333 105.0003089  92.7169930  68.8997152
 104.9227119  93.6677755  68.9785632 104.3964733  92.3715802  69.5572078
 107.4920319  79.8897795  81.5558519 106.7153653  80.4491715  81.5461383
 108.1310882  80.3754578  82.0773389 115.2841099  76.6724588  75.3901495
 114.6415480  76.9657121  74.7441290 114.7796028  76.5577508  76.1954692
 112.9381263  80.4187761  66.0787354 113.8499119  80.6515148  65.9035052
 112.4290910  81.0024805  65.5162433 105.7466691  82.6983249  81.1176486
 106.4881376  83.2368293  80.8411309 105.0403677  83.3249537  81.2748037
 111.2222031  84.8412389  79.7148647 111.6305387  84.3994800  78.9703279
 110.4999292  84.2665017  79.9682840 107.5753101  79.7784996  77.0882204
 108.4214296  80.2024409  77.2316853 107.5151739  79.1218620  77.7820767
 111.5450845  85.4013580  73.4700936 110.9159708  85.5659294  72.7677004
 111.1576508  85.8155189  74.2411900 115.4240077  86.3368018  70.8245300
 114.7391116  86.7166919  70.2742333 115.5083927  86.9463344  71.5577247
 110.7252546  77.4389364  78.7463378 110.4813478  78.1931425  78.2097653
 111.0012477  77.8174712  79.5810625 112.6791009  83.9827977  77.4240643
 112.8907904  84.6259737  76.7475024 112.6320757  83.1490293  76.9562573
 110.2817238  76.5945797  74.3277215 109.4201717  76.8927051  74.6193953
 110.3079673  76.8116196  73.3958248 107.0978807  85.1387988  70.7351021
 107.5617153  85.4175691  69.9455644 106.8335605  84.2371432  70.5524112
 103.9902888  84.6859469  73.6730784 104.5604245  85.1146738  73.0348269
 104.5811000  84.4042054  74.3714970 106.0347693  81.2611140  67.5440586
 106.7371737  81.7132184  68.0114513 105.7028322  80.6194959  68.1720479
 104.4828055  79.8522897  81.9191796 103.8526716  80.5339178  82.1527192
 104.3764143  79.7405978  80.9744934  99.7773027  79.5194693  72.8457720
  98.9872081  79.7752221  72.3697830 100.2684275  80.3343031  72.9509760
 113.7936837  86.8599932  75.5963001 114.6154281  86.4580119  75.3145682
 113.7899240  86.7568166  76.5479116 101.7287773  79.8839272  69.8041196
 100.9318936  79.9957966  70.3224692 101.5013365  80.2225924  68.9382087
 107.5593440  86.4083975  77.7523711 107.6237873  86.8704383  78.5881883
 106.8504364  85.7781340  77.8806021  98.0610730  79.7725183  75.2772711
  98.3118769  80.6572193  75.5430286  98.5970279  79.5929785  74.5047802
 107.2741458  88.0752083  67.6202691 107.1387133  88.9203619  68.0487539
 107.8151271  88.2771360  66.8568625 103.7608798  74.1543663  84.2817047
 103.3675743  73.6009861  84.9564691 104.5774938  74.4654241  84.6723564
 100.7270855  85.5927521  68.1930616 101.2395376  86.3870771  68.3436181
 101.3793568  84.8953811  68.1264218 102.5365740  88.7093277  70.2753370
 102.7132368  89.6311242  70.0874354 103.3322574  88.3951696  70.7047749
 106.6776759  75.5701542  81.8737303 107.4186472  76.1708695  81.7941766
 106.9094681  74.8279180  81.3155346 101.8218097  80.7557909  80.1515533
 101.7071612  79.8543166  80.4522632 100.9662614  81.0021606  79.8000349
 108.9009934  88.6975649  81.7503033 108.4573789  87.9112028  81.4323938
 109.5627148  88.8854800  81.0846924 103.6597056  90.2271451  76.2763712
 104.2104481  90.0988514  75.5040706 102.8208531  90.5266340  75.9258605
 110.9991172  88.9778449  79.7784435 110.9809648  89.7987330  79.2864704
 111.9211093  88.8532524  80.0034576 107.4564227  86.4922579  80.6207943
 107.9892563  85.7310867  80.3907251 106.9278308  86.1996231  81.3632098
 110.6233922  71.5982645  76.1501585 110.2798191  72.4884286  76.0740695
 110.9912884  71.4084302  75.2871170  98.6919772  83.9216175  68.9690187
  99.5294994  84.3313184  68.7523895  98.8698040  82.9815617  68.9390381
 110.5884204  81.5891256  64.6574020 110.0730828  82.3595860  64.8962407
 110.3161513  80.9156392  65.2807081 108.1731315  76.4340957  69.7159258
 107.3172912  76.0447807  69.5364897 108.5858267  76.5132917  68.8559044
 109.7030462  73.9687300  74.1150818 109.1995258  73.9317435  73.3018623
 109.9961069  74.8780043  74.1747475 105.9473348  74.0526030  73.1217000
 106.8126345  73.8568838  72.7622889 106.0150857  73.8236381  74.0486357
 115.5618478  84.3423610  66.5927193 114.7847921  84.0034770  66.1482356
 116.2409959  84.3476234  65.9182158 110.3770507  79.4618348  66.4833801
 110.0720643  79.7764497  67.3343944 111.3300950  79.5399768  66.5261134
 108.8216939  85.6208571  68.1326755 108.2938301  84.8861331  67.8199993
 108.3204442  86.3983248  67.8866723 113.8009785  83.8157592  73.2493801
 113.1433460  84.5056853  73.3373930 114.6050185  84.2054024  73.5927788
 103.5535667  76.2828238  70.4933367 104.1279419  76.0603419  69.7606560
 104.1406649  76.3516932  71.2461968 112.6115244  82.1701964  71.2997743
 113.1247126  82.8031956  71.8019453 113.2616468  81.5703160  70.9341103
 103.8805254  78.3132699  64.5129252 103.0442566  78.6507385  64.8338527
 103.7410024  78.1781678  63.5756389 105.8558335  73.1569486  69.2208436
 105.2022747  72.8418504  68.5965051 105.8138809  72.5345227  69.9468259
 106.9669539  83.4388781  61.1361728 106.0596601  83.2078035  61.3352877
 107.4640571  82.6426401  61.3235710 109.8737618  92.1486289  64.0558414
 109.1999317  92.4517985  64.6643372 110.2603440  92.9515369  63.7063871
 109.0896075  79.6451420  73.5456084 108.1718636  79.8666367  73.3877772
 109.5056219  79.7197730  72.6867791 109.8731123  81.0442836  68.6758764
 110.6202942  81.5564233  68.3665886 110.1422712  80.7226888  69.5363158
 108.1457773  83.5401376  65.6585718 107.2368992  83.2560409  65.7558188
 108.1752857  83.9600455  64.7989025 113.3777040  87.1507966  69.4276886
 112.9239367  86.3098876  69.4842076 112.7471007  87.7869364  69.7651666
 112.3209960  78.0799952  70.6577553 111.5832717  77.5677338  70.9887796
 112.5736733  77.6400333  69.8460830 111.8209980  88.9884463  70.3626704
 112.1132954  89.5489520  69.6439070 112.3308600  89.2813024  71.1179863
 112.4221587  70.8576204  71.2519323 112.7280464  69.9973567  70.9645238
 113.1474192  71.4493824  71.0518316  98.7145943  81.2606890  69.6400920
  98.5170343  80.6676251  68.9151987  98.1592607  80.9559101  70.3576859
 106.6942667  81.1529997  71.7595514 106.7491277  80.2003833  71.6837990
 105.8833869  81.3089436  72.2436812 107.8433861  85.0810120  62.9973797
 107.4053291  84.3645979  62.5379434 108.5844302  85.3086235  62.4358888
 104.6335027  79.7707057  69.5185892 103.8202892  80.0701227  69.9251085
 105.1294021  79.3762745  70.2360375 106.7843605  89.7664814  71.4520157
 106.7419784  89.9925660  70.5228689 107.7006304  89.5328188  71.6005958
 110.2309239  80.2348881  78.3500786 110.5858626  80.4620354  79.2095252
 110.8781370  80.5667258  77.7278042 115.9606976  83.3567317  69.0550115
 115.8224874  83.5468913  68.1271305 115.6043194  84.1186700  69.5118167
 104.1249102  77.3425412  75.1347127 104.7648481  77.2014171  74.4370091
 103.2926632  77.0559926  74.7585729 115.9876355  85.4243844  74.0661387
 116.4212862  85.3319133  74.9144441 116.7007936  85.4001345  73.4281403
 104.9009406  86.6427843  71.2482120 105.6950004  86.1478163  71.0464695
 104.1901098  86.1145706  70.8849825 109.7204250  89.0245938  75.5994487
 109.7741272  89.5936874  76.3672203 108.8519031  89.1947823  75.2348525
 101.2092169  80.7870924  67.3241873 100.2789757  80.7255380  67.5411835
 101.3049641  80.2646877  66.5278514 101.1277718  77.3125737  69.9120114
 101.3884535  78.2271070  69.8029275 101.9494890  76.8450180  70.0616727
 102.6002643  78.7263494  77.0818939 103.2725697  78.5180857  76.4331588
 101.7732430  78.5285580  76.6424171 116.8491905  85.4667545  76.5994272
 117.0427795  86.3713355  76.8453547 116.7492523  85.0074964  77.4332857
 108.5028215  75.3525435  79.0984600 107.8556130  76.0515385  79.0049076
 109.2729231  75.7861579  79.4660848 111.9107013  85.6174287  82.1735153
 111.7592520  85.3884839  81.2565237 111.9011693  86.5744889  82.1866498
 108.6792350  83.1906200  77.1581419 109.6084410  83.3417360  76.9850387
 108.2583380  83.2790221  76.3030066 107.4780682  87.2156865  74.9279957
 107.3391767  86.8475649  75.8005895 106.6895278  87.7304504  74.7563915
 108.0728834  92.3165961  66.2705494 108.2480589  91.8454004  67.0851116
 107.3861622  92.9431727  66.4986754 109.0285897  86.5938467  72.3168795
 108.6935729  86.5539237  73.2126445 108.5289842  85.9283183  71.8439205
 103.0030141  82.0006097  77.8421376 102.8649939  81.2686336  78.4432915
 103.9135064  81.9114997  77.5605564 111.9645088  83.9394502  62.5905854
 111.3474259  83.2141330  62.4938907 111.4961577  84.7003862  62.2472929
 105.6312441  81.7126057  77.3305056 106.3412060  81.0719249  77.2891674
 105.5881749  81.9638952  78.2531236 113.6199220  88.6493410  80.2511635
 113.5611766  87.9652630  79.5842218 114.0218738  89.3912400  79.7992261
 104.3441375  78.6991275  79.1500695 103.8078732  78.2482013  79.8022291
 103.7558084  78.8337183  78.4071159 102.6389919  95.4655324  73.0445354
 102.8786517  96.0973848  73.7224372 101.7959115  95.1143364  73.3310713
 103.7543634  78.1579926  61.7127159 102.8773101  78.0368727  61.3489405
 104.2301387  77.3666004  61.4606047 113.6216627  86.6132994  78.4825614
 112.7343406  86.2758916  78.6052013 114.1915178  85.8816025  78.7194380
  95.2745774  82.9457086  71.8068666  95.9616814  82.6318816  71.2189681
  95.1193903  83.8498450  71.5335917 100.0780497  77.8347282  76.2353690
  99.9938685  77.2272952  75.5004099  99.2563203  78.3256301  76.2363186
 107.1517781  91.2734446  75.4486858 107.0787952  92.0789418  75.9606162
 106.7095174  91.4726412  74.6234879 106.9407560  90.5106216  68.9589679
 106.1575082  91.0527897  69.0527904 107.6400305  91.0280196  69.3583920
 110.2504210  76.3200846  71.6023885 110.7472910  75.5670808  71.2824955
 109.4791192  76.3565162  71.0367094 118.1033968  82.0241211  73.2442176
 118.0923844  82.9065927  72.8736109 117.2351347  81.6712762  73.0496713
 109.6116464  91.1721280  77.6045016 110.3244436  91.8068745  77.5320918
 109.1206493  91.2685146  76.7885018 111.3333991  85.0772533  69.1762308
 110.3990270  85.1973995  69.0067012 111.5110660  84.1745000  68.9122318
 106.8339179  78.4618229  71.3295569 106.4636967  77.9089269  72.0176475
 107.3298272  77.8576362  70.7770569 114.7206542  80.9189852  69.7112342
 115.1866995  81.7517844  69.6372645 115.1714043  80.4534834  70.4157601
 104.6628378  88.9215724  78.4250587 105.3637837  89.5552207  78.5779981
 104.1923493  89.2630455  77.6646226 112.7882774  87.2633674  66.7098494
 113.0642617  87.1490268  67.6192368 111.9187272  86.8651158  66.6710667
 112.6923205  73.2870439  73.7503243 111.7786285  73.5174666  73.9185450
 113.1216307  73.3708883  74.6017276 112.4629664  81.4760331  76.2503137
 111.8101114  81.7236239  75.5955590 112.8410044  80.6624469  75.9165615
 109.4236838  91.5120024  70.3531308 109.6059232  90.6941680  70.8159060
 110.2469824  91.7287717  69.9156198 109.7579003  90.4388210  67.6146356
 110.2866769  89.9280664  67.0016518 110.0207223  90.1230740  68.4791889
 108.5117237  82.2180142  82.7369175 107.8357874  82.1174272  83.4071550
 109.3344871  82.0619356  83.2005172 100.2596096  88.4552079  75.3581690
 100.8449533  87.7095767  75.4909594 100.0620934  88.7656036  76.2418354
 103.1134751  91.4903326  70.3744132 102.4445126  91.9749454  69.8908172
 102.9747621  91.7372547  71.2887511  94.8513751  81.0257679  74.0786133
  94.8897850  80.4921270  74.8723251  94.3454043  80.4992885  73.4597110
 107.2540020  93.5247070  76.9726791 107.8058328  93.6878691  77.7375876
 107.5946213  94.1151508  76.3006815 102.2304513  75.8722220  77.5748675
 102.2945839  76.7337050  77.1626073 102.1671633  75.2596221  76.8421034
 101.7056785  77.9445352  81.2221710 102.3328824  77.5622429  81.8359234
 100.8484704  77.7259554  81.5877402 112.1050894  88.3508327  82.8275445
 112.6490798  88.9638286  82.3330400 111.5237739  88.9087906  83.3442458
  98.4822328  79.7521781  67.1540064  98.7775769  78.8432460  67.1007118
  97.5810364  79.7309521  66.8321067 110.3908407  91.4729045  73.9590473
 110.2659546  90.6718785  73.4501418 111.0487498  91.9675239  73.4704443
 102.0116575  77.8277778  73.1367613 101.2903161  78.4413745  72.9975086
 102.8009831  78.3635543  73.0584259 112.4543315  89.2738065  75.5870023
 111.5073651  89.1543417  75.5148350 112.8026088  88.3860563  75.6696284
 104.8142889  75.1632204  79.4108265 105.3377290  75.4094501  80.1734574
 104.5955222  75.9952239  78.9911402 100.2110170  77.4335879  67.2779390
  99.8822876  76.5533258  67.0954495 100.5649540  77.3783548  68.1655779
 109.4589749  89.0690782  71.7874375 109.3114711  88.1407489  71.9681945
 110.2843242  89.0910872  71.3031450 103.3251993  77.7208849  67.6454867
 103.6648065  78.2494770  66.9233476 103.7724113  78.0589255  68.4213434
 113.0623870  89.8919340  72.8739248 113.9870418  89.6862202  72.7363699
 112.8939174  89.6435741  73.7828589 106.0195434  76.1045899  77.0957935
 105.6792254  75.3053712  77.4978615 105.3134440  76.4047610  76.5234768
 106.6711905  73.1895212  75.5485258 107.4937975  72.7155690  75.4264149
 106.9149969  73.9685696  76.0483945 105.3120140  76.2183470  65.8448160
 106.0328502  76.5964723  65.3411877 104.6885444  76.9372347  65.9483138
 109.4551263  76.9228619  66.7806492 109.6714877  77.8053257  66.4795320
 108.9745330  76.5314833  66.0512134 104.1950484  79.8814332  73.3577237
 104.0495065  80.1954636  74.2501518 103.7175688  80.4999233  72.8048136
 106.0546867  76.8716880  73.4058126 106.0408436  75.9757974  73.0690424
 106.7719295  76.8787544  74.0396412 107.9072998  77.3054221  75.4511254
 107.6490776  78.2271291  75.4495584 107.3758038  76.9084655  76.1411718
 112.8519187  90.4105008  68.2301339 113.0256064  89.8451430  67.4775192
 113.3448078  91.2105903  68.0480829  98.6696146  82.4219677  76.2964898
  98.1249614  83.1979485  76.4285172  99.5475496  82.7690481  76.1384019
 105.4583763  75.7531261  68.6745697 105.5799674  74.8247907  68.8736584
 105.1685805  75.7669947  67.7624012 108.3274953  73.4386171  71.8112416
 108.3496650  73.5025504  70.8564396 108.7443012  72.5990680  72.0052923
 113.8394359  89.7271772  65.3298238 114.5345264  90.3478465  65.5485552
 114.1817509  88.8767123  65.6050615  99.4562168  81.5489573  79.1895055
  98.7143904  81.6972208  79.7759685  99.1354913  81.8097839  78.3261804
 115.7385782  87.1771478  66.8585568 116.2637106  87.5158750  66.1334888
 115.6508135  86.2418493  66.6748703 107.4005831  91.0905551  78.9875445
 107.7092957  90.8454698  79.8598145 108.1981313  91.2952190  78.4994315
 107.4226443  93.2443461  71.2180821 106.9831433  92.7519840  71.9113678
 108.1734560  92.7016429  70.9772897  99.9018782  89.4355002  71.2205450
 100.7276802  89.1358774  70.8404093  99.5512834  88.6662624  71.6695238
 104.8700315  88.7881470  73.2903123 104.2480324  88.1252175  72.9905351
 105.5405182  88.8142602  72.6076771  98.1027387  87.3541328  72.1794383
  97.2659295  86.9263503  71.9978384  98.0751032  87.5473772  73.1165174
 104.9424843  77.2663258  82.8835629 104.9912998  78.1425381  82.5013399
 105.4847357  76.7240651  82.3107272 115.4279688  87.8104381  82.1636766
 114.6375232  87.7928520  81.6241266 115.1913043  88.3492675  82.9185803
 115.5477563  84.6596848  79.4769495 115.5975568  84.4946855  80.4185018
 115.4391487  83.7924107  79.0867376 104.4313822  87.3385393  66.7661584
 104.5801942  88.0220858  66.1128256 105.2380265  87.3190483  67.2811039
 112.8381326  80.6427776  80.7928801 113.7391188  80.5034241  80.5012799
 112.9129300  80.8082231  81.7326979 107.1724131  78.0194630  79.6381988
 106.3027440  78.3128197  79.3664576 107.4083611  78.6035075  80.3589251
 117.0495760  87.0793789  79.7211516 116.7580568  87.4423770  80.5574977
 116.4367891  86.3660798  79.5424848 115.2982948  82.2026404  78.1891574
 115.7737070  82.3954050  77.3810426 114.3748514  82.2585590  77.9434958
 102.1866455  83.3650571  67.7722653 101.9412497  82.4612901  67.9702863
 102.3562370  83.3667721  66.8302131 109.8763165  74.2374247  77.1547408
 110.3945109  74.9735274  76.8293897 109.5218298  74.5438241  77.9894167
 101.4562103  79.0978929  65.2708814 100.7631347  79.1723284  64.6148850
 101.2113854  78.3339272  65.7930331 110.1275759  70.6574530  72.6748305
 110.4077513  69.9897719  73.3008731 110.9126366  70.8503626  72.1622969
 107.9309228  89.8333524  64.2373331 107.3583195  90.4523711  63.7843803
 108.5042021  90.3832886  64.7713253 113.9984617  79.0792164  76.4219880
 114.9502040  79.1790262  76.4432104 113.8288068  78.2870432  76.9317964
 112.0198997  76.1647747  76.6079281 111.4248929  76.4452760  75.9125769
 111.7348694  76.6541648  77.3796022 111.1506487  90.1170674  65.3681913
 112.0837160  90.0516236  65.5714789 111.0629700  90.9526941  64.9096446
 113.7794504  89.4336544  62.3285861 113.7008136  89.0996408  63.2221619
 114.6004171  89.9258312  62.3277333 116.4772695  82.2998284  75.5362180
 116.4449015  81.3614284  75.7221863 117.0873319  82.3782320  74.8028004
 108.3156026  81.1694337  61.5789384 109.2615131  81.0400545  61.6477802
 107.9370271  80.4308999  62.0558812 116.6267184  79.0909327  75.5820463
 116.1106232  78.3067784  75.3950392 117.5107132  78.7628044  75.7466982
 114.2877911  72.8350343  71.5416275 114.0902732  72.5265431  72.4259607
 114.8977616  73.5611982  71.6714205 108.1994719  85.2212083  83.0390041
 109.1197728  85.3990682  83.2330087 108.1644302  84.2768128  82.8869740
 106.4998943  79.0944313  61.5144269 105.5930399  78.7977426  61.5906982
 106.7774924  78.7974131  60.6478555  97.4176884  80.4150676  71.9643315
  97.0979668  79.5615985  71.6717689  96.8710312  80.6299255  72.7201283
 101.1956791  83.1313117  75.6812822 101.4142801  84.0630225  75.7000856
 101.6082565  82.7721092  76.4667626 108.1161009  73.6381203  67.6688510
 107.3061737  73.2928288  68.0443756 108.8045426  73.3288746  68.2576122
 110.0451557  72.7159250  69.2912807 110.5982596  73.1354703  69.9502830
 110.2821644  71.7894998  69.3335763 106.0684656  78.7046323  85.0715571
 105.9681383  79.6540680  85.0027662 105.8506199  78.3764562  84.1991641
 105.2697728  75.9531248  61.6556248 106.1316892  76.2786147  61.9152065
 105.4548072  75.1662744  61.1429314  97.2865144  84.0353588  73.9336437
  96.5928615  83.6207541  73.4206391  98.0338135  84.0774124  73.3369856
 113.4230364  74.8259775  68.7991471 112.8429033  75.4844579  68.4169523
 113.1566297  74.0037119  68.3878889 111.8733931  74.2264832  71.0012791
 112.3733709  74.3381367  70.1927110 112.5169539  73.9225885  71.6413600
 105.9315927  82.1343462  83.8880632 105.4483008  82.9343822  84.0944521
 106.0176866  82.1451407  82.9348076  99.2001886  83.9671842  71.8102452
  99.1772574  84.0659529  70.8584335  99.5102523  84.8136992  72.1319618
 101.8589264  86.0247997  75.9249066 102.8132518  85.9931939  75.8578998
 101.6601788  85.5638620  76.7399292 102.4488646  84.5949113  78.4919864
 103.2681535  85.0893191  78.5154701 102.7225454  83.6781081  78.4637431
 112.2055242  76.9859865  67.8547819 111.3181097  77.2709516  67.6368014
 112.6209231  76.8253628  67.0075096 115.5569778  77.0106386  71.5702159
 116.3330169  77.5002838  71.8426775 114.8317913  77.4364440  72.0274028
 100.2139493  91.5667616  72.9419264 100.0793961  90.8068017  72.3757262
  99.7971555  92.2908516  72.4748053 111.3498456  86.7504540  61.9495839
 112.0534306  86.9554542  62.5653495 110.6261105  87.3181302  62.2144923
 112.1796266  82.5014401  68.0698109 112.1231467  82.9582952  67.2305742
 112.7324609  81.7405086  67.8920952 115.9901072  78.2904133  68.8948229
 115.7338006  77.8900769  69.7256437 115.3653940  79.0047927  68.7698368
 103.3708619  92.4636933  73.1537707 103.2541003  93.4082366  73.0516397
 102.5501065  92.1610495  73.5423506 113.2585153  87.1887069  63.9994299
 114.0930757  86.7568267  63.8171774 113.0969496  87.0169083  64.9271194
 112.9131045  83.6919182  65.3650639 112.8579849  83.5263454  64.4239083
 112.2877101  84.3995215  65.5212828  97.7023560  78.9287247  79.1912061
  98.3482424  78.4186201  79.6799286  97.4940711  79.6655928  79.7655486
 110.2276953  85.9968094  84.6904201 111.0968112  86.1708746  84.3290836
 109.7483704  86.8162511  84.5679931 106.2227171  73.1927291  64.9435957
 106.2105841  74.1369131  65.1004228 107.1150593  73.0097437  64.6495418
 104.3963133  93.1165195  76.3693635 105.2990379  93.1488805  76.6860130
 104.1700503  92.1865646  76.3839971 106.1516735  91.8696182  73.0303714
 105.2012366  91.8698043  72.9168086 106.4549221  91.1228916  72.5139748
 110.0379290  69.7870068  69.1981894 109.2711686  69.2328555  69.3438576
 110.4489995  69.8591937  70.0596045 102.0421051  76.0754864  83.2887075
 102.9052513  75.7191669  83.4990400 101.4686462  75.7368759  83.9762479
 114.5545950  99.5119625  70.0207892 113.9910815  99.4209561  69.2524179
 114.4398345  98.6919529  70.5010384 112.1010382 101.0070816  72.8592112
 112.8931674 100.6661641  72.4438411 112.3407032 101.1165791  73.7794265
 114.0601136 100.2679729  65.7309491 114.8332012  99.7208716  65.5922367
 114.4126535 101.1323979  65.9423952 115.8986179 101.5956112  78.9376390
 115.6076045 102.5001743  78.8223057 116.5343163 101.6372639  79.6520460
 116.8242386  98.9732960  75.5277750 117.4205958  98.7488983  74.8134713
 116.8817357  98.2317706  76.1303198 116.3967414  96.4272396  63.3627941
 116.6492935  95.9053917  62.6011404 115.4591973  96.2638541  63.4654624
 116.1163703  98.3300501  65.5652316 115.9999961  97.6545405  66.2333400
 116.2265963  97.8432875  64.7484469 118.1000731  92.8200548  64.2660354
 118.2675133  93.6880785  64.6330825 117.9097900  92.9827830  63.3421643
 114.3088545  97.7331324  71.9662888 113.3839042  97.6007538  72.1740580
 114.5572958  98.5125543  72.4632831 118.0789951  95.2758206  65.2507020
 117.9589577  95.7215257  66.0892501 117.3842540  95.6243523  64.6920559
 111.6697356  97.3764598  72.8006677 111.7989737  97.6299077  73.7146089
 110.9894808  97.9692306  72.4811333 116.5860446  98.0275166  81.1176486
 117.3275130  98.5660210  80.8411309 115.8797431  98.6541455  81.2748037
 114.8296643 100.0151387  73.6730784 115.3998000 100.4438655  73.0348269
 115.4204755  99.7333972  74.3714970 116.8741448  96.5903058  67.5440586
 117.5765491  97.0424102  68.0114513 116.5422076  95.9486877  68.1720479
 115.3221809  95.1814814  81.9191796 114.6920470  95.8631095  82.1527192
 115.2157897  95.0697896  80.9744934 110.6166782  94.8486611  72.8457720
 109.8265836  95.1044139  72.3697830 111.1078029  95.6634948  72.9509760
 112.5681527  95.2131190  69.8041196 111.7712690  95.3249884  70.3224692
 112.3407119  95.5517842  68.9382087 108.9004485  95.1017101  75.2772711
 109.1512523  95.9864111  75.5430286 109.4364033  94.9221703  74.5047802
 114.6002552  89.4835580  84.2817047 114.2069498  88.9301779  84.9564691
 115.4168692  89.7946159  84.6723564 111.5664610 100.9219439  68.1930616
 112.0789130 101.7162689  68.3436181 112.2187323 100.2245729  68.1264218
 117.5170513  90.8993459  81.8737303 118.2580227  91.5000613  81.7941766
 117.7488436  90.1571097  81.3155346 112.6611851  96.0849827  80.1515533
 112.5465366  95.1835084  80.4522632 111.8056369  96.3313523  79.8000349
 109.5313527  99.2508093  68.9690187 110.3688749  99.6605101  68.7523895
 109.7091794  98.3107535  68.9390381 116.7867102  89.3817947  73.1217000
 117.6520099  89.1860756  72.7622889 116.8544611  89.1528299  74.0486357
 114.3929421  91.6120155  70.4933367 114.9673173  91.3895337  69.7606560
 114.9800404  91.6808850  71.2461968 114.7199009  93.6424616  64.5129252
 113.8836321  93.9799303  64.8338527 114.5803778  93.5073596  63.5756389
 116.6952089  88.4861404  69.2208436 116.0416501  88.1710421  68.5965051
 116.6532563  87.8637145  69.9468259 117.8063294  98.7680699  61.1361728
 116.8990356  98.5369953  61.3352877 118.3034326  97.9718318  61.3235710
 109.5539698  96.5898808  69.6400920 109.3564098  95.9968169  68.9151987
 108.9986362  96.2851018  70.3576859 117.5336421  96.4821915  71.7595514
 117.5885031  95.5295751  71.6837990 116.7227623  96.6381354  72.2436812
 115.4728781  95.0998974  69.5185892 114.6596647  95.3993145  69.9251085
 115.9687776  94.7054663  70.2360375 114.9642856  92.6717330  75.1347127
 115.6042235  92.5306089  74.4370091 114.1320387  92.3851843  74.7585729
 115.7403160 101.9719760  71.2482120 116.5343759 101.4770080  71.0464695
 115.0294852 101.4437623  70.8849825 112.0485924  96.1162842  67.3241873
 111.1183512  96.0547298  67.5411835 112.1443396  95.5938795  66.5278514
 111.9671473  92.6417655  69.9120114 112.2278290  93.5562988  69.8029275
 112.7888645  92.1742097  70.0616727 113.4396398  94.0555412  77.0818939
 114.1119451  93.8472774  76.4331588 112.6126184  93.8577498  76.6424171
 113.8423895  97.3298015  77.8421376 113.7043693  96.5978254  78.4432915
 114.7528819  97.2406915  77.5605564 116.4706196  97.0417974  77.3305056
 117.1805814  96.4011167  77.2891674 116.4275504  97.2930869  78.2531236
 115.1835130  94.0283192  79.1500695 114.6472487  93.5773931  79.8022291
 114.5951838  94.1629101  78.4071159 114.5937389  93.4871844  61.7127159
 113.7166855  93.3660644  61.3489405 115.0695142  92.6957922  61.4606047
 106.1139529  98.2749003  71.8068666 106.8010569  97.9610733  71.2189681
 105.9587658  99.1790368  71.5335917 110.9174251  93.1639200  76.2353690
 110.8332440  92.5564869  75.5004099 110.0956957  93.6548218  76.2363186
 117.6732934  93.7910146  71.3295569 117.3030721  93.2381187  72.0176475
 118.1692026  93.1868280  70.7770569 111.0989850 103.7843997  75.3581690
 111.6843287 103.0387684  75.4909594 110.9014689 104.0947953  76.2418354
 105.6907505  96.3549597  74.0786133 105.7291605  95.8213187  74.8723251
 105.1847798  95.8284802  73.4597110 113.0698267  91.2014137  77.5748675
 113.1339594  92.0628968  77.1626073 113.0065388  90.5888139  76.8421034
 112.5450540  93.2737270  81.2221710 113.1722579  92.8914347  81.8359234
 111.6878459  93.0551472  81.5877402 109.3216083  95.0813699  67.1540064
 109.6169524  94.1724377  67.1007118 108.4204118  95.0601438  66.8321067
 112.8510330  93.1569695  73.1367613 112.1296915  93.7705663  72.9975086
 113.6403585  93.6927460  73.0584259 115.6536643  90.4924122  79.4108265
 116.1771045  90.7386418  80.1734574 115.4348976  91.3244157  78.9911402
 111.0503924  92.7627797  67.2779390 110.7216630  91.8825175  67.0954495
 111.4043295  92.7075465  68.1655779 114.1645747  93.0500766  67.6454867
 114.5041820  93.5786688  66.9233476 114.6117868  93.3881172  68.4213434
 116.8589188  91.4337817  77.0957935 116.5186009  90.6345630  77.4978615
 116.1528194  91.7339528  76.5234768 116.1513894  91.5475388  65.8448160
 116.8722257  91.9256641  65.3411877 115.5279199  92.2664265  65.9483138
 115.0344239  95.2106250  73.3577237 114.8888819  95.5246553  74.2501518
 114.5569442  95.8291150  72.8048136 116.8940622  92.2008798  73.4058126
 116.8802190  91.3049891  73.0690424 117.6113050  92.2079462  74.0396412
 109.5089901  97.7511595  76.2964898 108.9643369  98.5271402  76.4285172
 110.3869251  98.0982399  76.1384019 116.2977518  91.0823178  68.6745697
 116.4193429  90.1539825  68.8736584 116.0079560  91.0961864  67.7624012
 110.2955923  96.8781491  79.1895055 109.5537659  97.0264126  79.7759685
 109.9748667  97.1389756  78.3261804 110.7412536 104.7646920  71.2205450
 111.5670556 104.4650691  70.8404093 110.3906588 103.9954542  71.6695238
 108.9421141 102.6833246  72.1794383 108.1053050 102.2555420  71.9978384
 108.9144787 102.8765689  73.1165174 115.7818597  92.5955176  82.8835629
 115.8306753  93.4717299  82.5013399 116.3241111  92.0532569  82.3107272
 118.0117886  93.3486548  79.6381988 117.1421195  93.6420114  79.3664576
 118.2477366  93.9326993  80.3589251 113.0260209  98.6942489  67.7722653
 112.7806251  97.7904819  67.9702863 113.1956124  98.6959639  66.8302131
 112.2955857  94.4270846  65.2708814 111.6025102  94.5015201  64.6148850
 112.0507609  93.6631190  65.7930331 117.3392698  94.4236231  61.5144269
 116.4324153  94.1269343  61.5906982 117.6168679  94.1266049  60.6478555
 108.2570638  95.7442594  71.9643315 107.9373422  94.8907902  71.6717689
 107.7104066  95.9591172  72.7201283 112.0350546  98.4605035  75.6812822
 112.2536555  99.3922143  75.7000856 112.4476319  98.1013009  76.4667626
 116.9078411  94.0338241  85.0715571 116.8075138  94.9832598  85.0027662
 116.6899953  93.7056480  84.1991641 116.1091482  91.2823166  61.6556248
 116.9710646  91.6078064  61.9152065 116.2941826  90.4954662  61.1429314
 108.1258898  99.3645506  73.9336437 107.4322370  98.9499458  73.4206391
 108.8731889  99.4066042  73.3369856 116.7709681  97.4635380  83.8880632
 116.2876763  98.2635740  84.0944521 116.8570620  97.4743325  82.9348076
 110.0395641  99.2963759  71.8102452 110.0166329  99.3951447  70.8584335
 110.3496277 100.1428910  72.1319618 112.6983018 101.3539914  75.9249066
 113.6526272 101.3223857  75.8578998 112.4995542 100.8930538  76.7399292
 113.2882401  99.9241030  78.4919864 114.1075290 100.4185109  78.5154701
 113.5619208  99.0072999  78.4637431 108.5417315  94.2579164  79.1912061
 109.1876178  93.7478118  79.6799286 108.3334466  94.9947846  79.7655486
 117.0620925  88.5219209  64.9435957 117.0499595  89.4661049  65.1004228
 117.9544347  88.3389354  64.6495418 112.8814806  91.4046781  83.2887075
 113.7446267  91.0483586  83.4990400 112.3080217  91.0660676  83.9762479
  48.4421148  -4.1742142  59.7690660  48.6817746  -3.5423618  60.4469679
  47.5990344  -4.5254102  60.0556020  60.3577179  -0.1277841  56.7453198
  59.7942044  -0.2187904  55.9769486  60.2429574  -0.9477937  57.2255691
  57.9041611   1.3673350  59.5837419  58.6962903   1.0264175  59.1683718
  58.1438261   1.4768325  60.5039572  65.9376738   3.5393126  52.0567663
  65.2864718   4.1247207  51.6701677  66.7321101   4.0699321  52.1162701
  59.8632365   0.6282264  52.4554798  60.6363241   0.0811251  52.3167673
  60.2157764   1.4926513  52.6669259  61.7017408   1.9558646  65.6621697
  61.4107273   2.8604277  65.5468363  62.3374392   1.9975173  66.3765766
  62.6273614  -0.6664506  62.2523057  63.2237187  -0.8908483  61.5380019
  62.6848586  -1.4079760  62.8548504  67.4152003   1.2283558  52.5936648
  66.7797836   1.3018185  53.3057552  67.0849409   1.8177157  51.9155727
  61.9194932  -1.3096964  52.2897622  61.8031190  -1.9852061  52.9578707
  62.0297191  -1.7964590  51.4729776  66.6607293   1.6420061  62.6571491
  66.3608016   2.5445100  62.5487298  66.3158352   1.3752245  63.5092643
  60.1119774  -1.9066142  58.6908195  59.1870271  -2.0389928  58.8985887
  60.3604187  -1.1271923  59.1878137  57.4728585  -2.2632868  59.5251984
  57.6020966  -2.0098389  60.4391396  56.7926036  -1.6705160  59.2056639
  61.6428072   8.4064382  55.6242458  61.5652102   9.3572207  55.7030939
  61.0389716   8.0610254  56.2817385  62.3891674  -1.6122299  67.8421792
  63.1306359  -1.0737256  67.5656616  61.6828660  -0.9856011  67.9993344
  68.1875829   1.0908032  60.1946243  67.5584691   1.2553746  59.4922310
  67.8001491   1.5049641  60.9657207  72.0665061   2.0262469  57.5490606
  71.3816099   2.4061371  56.9987640  72.1508910   2.6357796  58.2822554
  63.7403791   0.8282440  57.4596328  64.2042136   1.1070143  56.6700950
  63.4760589  -0.0734116  57.2769418  60.6327872   0.3753921  60.3976091
  61.2029229   0.8041190  59.7593575  61.2235984   0.0936506  61.0960277
  70.4361820   2.5494384  62.3208307  71.2579264   2.1474571  62.0390989
  70.4324223   2.4462618  63.2724423  64.2018424   2.0978427  64.4769018
  64.2662856   2.5598834  65.3127190  63.4929348   1.4675792  64.6051328
  63.9166441   3.7646535  54.3447998  63.7812116   4.6098070  54.7732846
  64.4576254   3.9665812  53.5813932  57.3695839   1.2821973  54.9175923
  57.8820359   2.0765223  55.0681488  58.0218552   0.5848263  54.8509525
  59.1790723   4.3987729  56.9998676  59.3557352   5.3205694  56.8119660
  59.9747557   4.0846148  57.4293056  65.5434918   4.3870101  68.4748340
  65.0998772   3.6006480  68.1569245  66.2052131   4.5749252  67.8092231
  60.3022039   5.9165903  63.0009019  60.8529464   5.7882966  62.2286013
  59.4633515   6.2160792  62.6503911  67.6416156   4.6672901  66.5029741
  67.6234631   5.4881782  66.0110011  68.5636076   4.5426976  66.7279883
  64.0989210   2.1817031  67.3453250  64.6317547   1.4205319  67.1152558
  63.5703291   1.8890682  68.0877404  55.3344755  -0.3889373  55.6935494
  56.1719977   0.0207635  55.4769201  55.5123023  -1.3289931  55.6635688
  65.4641923   1.3103023  54.8572062  64.9363284   0.5755783  54.5445299
  64.9629425   2.0877699  54.6112030  66.5162602   7.8380741  50.7803721
  65.8424300   8.1412437  51.3888679  66.9028424   8.6409821  50.4309178
  64.7882756  -0.7704172  52.3831025  63.8793976  -1.0545139  52.4803495
  64.8177840  -0.3505093  51.5234332  70.0202024   2.8402418  56.1522192
  69.5664351   1.9993328  56.2087383  69.3895990   3.4763816  56.4896973
  68.4634963   4.6778914  57.0872011  68.7557937   5.2383972  56.3684376
  68.9733583   4.9707475  57.8425170  55.3570927  -3.0498658  56.3646227
  55.1595326  -3.6429297  55.6397294  54.8017591  -3.3546447  57.0822166
  64.4858844   0.7704572  49.7219103  64.0478274   0.0540431  49.2624741
  65.2269285   0.9980687  49.1604195  63.4268588   5.4559266  58.1765464
  63.3844767   5.6820112  57.2473996  64.3431287   5.2222640  58.3251265
  61.5434389   2.3322295  57.9727427  62.3374987   1.8372615  57.7710001
  60.8326081   1.8040158  57.6095132  66.3629233   4.7140390  62.3239794
  66.4166256   5.2831326  63.0917510  65.4944015   4.8842275  61.9593831
  68.5531997   1.3068739  68.8980460  68.4017503   1.0779291  67.9810543
  68.5436676   2.2639341  68.9111805  64.1205665   2.9051317  61.6525264
  63.9816751   2.5370101  62.5251202  63.3320261   3.4198956  61.4809221
  64.7153817   8.0060413  52.9950800  64.8905573   7.5348456  53.8096423
  64.0286605   8.6326179  53.2232061  65.6710880   2.2832919  59.0414101
  65.3360713   2.2433689  59.9371751  65.1714826   1.6177635  58.5684512
  70.2624203   4.3387862  66.9756941  70.2036749   3.6547082  66.3087524
  70.6643722   5.0806852  66.5237567  59.2814902  11.1549776  59.7690660
  59.5211500  11.7868300  60.4469679  58.4384099  10.8037816  60.0556020
  70.2641611   2.3027446  65.2070921  69.3768389   1.9653368  65.3297320
  70.8340162   1.5710477  65.4439686  51.9170758  -1.3648462  58.5313972
  52.6041798  -1.6786732  57.9434988  51.7618886  -0.4607098  58.2581224
  63.7942764   6.9628898  62.1732164  63.7212935   7.7683870  62.6851469
  63.3520157   7.1620864  61.3480186  63.5832544   6.2000668  55.6834986
  62.8000065   6.7422348  55.7773210  64.2825289   6.7174648  56.0829227
  66.2541448   6.8615732  64.3290323  66.9669420   7.4963197  64.2566224
  65.7631476   6.9579598  63.5130325  61.3053361   4.6110176  65.1495894
  62.0062821   5.2446659  65.3025288  60.8348476   4.9524907  64.3891533
  69.4307757   2.9528125  53.4343801  69.7067601   2.8384720  54.3437675
  68.5612256   2.5545610  53.3955974  66.0661821   7.2014476  57.0776614
  66.2484215   6.3836132  57.5404367  66.8894807   7.4182169  56.6401504
  66.4003986   6.1282661  54.3391663  66.9291753   5.6175116  53.7261825
  66.6632206   5.8125192  55.2037196  56.9021079   4.1446531  62.0826996
  57.4874516   3.3990219  62.2154901  56.7045918   4.4550487  62.9663660
  59.7559734   7.1797778  57.0989439  59.0870110   7.6643906  56.6153479
  59.6172604   7.4266999  58.0132817  51.4938734  -3.2847869  60.8031440
  51.5322833  -3.8184278  61.5968558  50.9879027  -3.8112664  60.1842417
  63.8965003   9.2141522  63.6972097  64.4483311   9.3773143  64.4621182
  64.2371196   9.8045959  63.0252122  68.7475877   4.0402779  69.5520752
  69.2915781   4.6532737  69.0575706  68.1662722   4.5982358  70.0687765
  67.0333390   7.1623497  60.6835779  66.9084530   6.3613237  60.1746725
  67.6912481   7.6569691  60.1949749  69.0968299   4.9632517  62.3115329
  68.1498634   4.8437868  62.2393656  69.4451072   4.0755015  62.3941591
  66.1014732   4.7585233  58.5119682  65.9539694   3.8301941  58.6927252
  66.9268225   4.7805324  58.0276757  69.7048854   5.5813792  59.5984554
  70.6295401   5.3756654  59.4609006  69.5364157   5.3330193  60.5073896
  69.4944170   6.0999460  54.9546646  69.6681047   5.5345882  54.2020498
  69.9873061   6.9000355  54.7726136  55.3121130  -1.8885871  63.0210205
  54.7674598  -1.1126063  63.1530479  56.1900480  -1.5415067  62.8629326
  70.4819342   5.4166224  52.0543544  71.1770247   6.0372917  52.2730859
  70.8242493   4.5661575  52.3295922  56.0987152  -2.7615975  65.9140362
  55.3568888  -2.6133340  66.5004992  55.7779896  -2.5007709  65.0507111
  72.3810766   2.8665930  53.5830875  72.9062090   3.2053202  52.8580195
  72.2933118   1.9312945  53.3994010  64.0430814   6.7800003  65.7120752
  64.3517941   6.5349150  66.5843451  64.8406296   6.9846642  65.2239622
  64.0651426   8.9337913  57.9426128  63.6256417   8.4414292  58.6358985
  64.8159543   8.3910881  57.7018203  56.5443765   5.1249454  57.9450756
  57.3701785   4.8253226  57.5649400  56.1937817   4.3557076  58.3940545
  61.5125298   4.4775922  60.0148430  60.8905308   3.8146627  59.7150658
  62.1830165   4.5037054  59.3322078  54.7452370   3.0435780  58.9039690
  53.9084279   2.6157955  58.7223691  54.7176016   3.2368224  59.8410481
  72.0704672   3.4998833  68.8882073  71.2800215   3.4822972  68.3486572
  71.8338026   4.0387127  69.6431109  61.0738805   3.0279845  53.4906890
  61.2226926   3.7115310  52.8373563  61.8805249   3.0084935  54.0056346
  73.6920743   2.7688241  66.4456823  73.4005552   3.1318222  67.2820284
  73.0792875   2.0555249  66.2670155  58.8291438  -0.9454977  54.4967959
  58.5837480  -1.8492647  54.6948169  58.9987353  -0.9437827  53.5547437
  64.5734211   5.5227976  50.9618638  64.0008178   6.1418163  50.5089110
  65.1467005   6.0727337  51.4958560  67.7931471   5.8065126  52.0927220
  68.7262144   5.7410688  52.2960096  67.7054683   6.6421393  51.6341753
  70.4219487   5.1230996  49.0531168  70.3433119   4.7890860  49.9466926
  71.2429154   5.6152764  49.0522640  64.8419702   0.9106535  69.7635347
  65.7622711   1.0885134  69.9575394  64.8069285  -0.0337420  69.6115046
  54.0601867  -3.8954872  58.6888622  53.7404651  -4.7489564  58.3962996
  53.5135295  -3.6806294  59.4446589  57.8381774  -1.1792431  62.4058128
  58.0567784  -0.2475323  62.4246162  58.2507548  -1.5384456  63.1912932
  53.9290127  -0.2751960  60.6581743  53.2353598  -0.6898007  60.1451698
  54.6763118  -0.2331424  60.0615162  55.8426869  -0.3433706  58.5347758
  55.8197558  -0.2446019  57.5829641  56.1527506   0.5031444  58.8564924
  58.5014247   1.7142449  62.6494373  59.4557501   1.6826391  62.5824304
  58.3026771   1.2533072  63.4644599  59.0913629   0.2843565  65.2165170
  59.9106518   0.7787643  65.2400008  59.3650437  -0.6324467  65.1882738
  56.8564476   7.2562068  59.6664571  56.7218944   6.4962469  59.1002569
  56.4396538   7.9802968  59.1993360  67.9923439   2.4398992  48.6741146
  68.6959289   2.6448994  49.2898802  67.2686088   3.0075754  48.9390229
  60.0133602   8.1531385  59.8783013  59.8965986   9.0976818  59.7761704
  59.1926048   7.8504947  60.2668812  69.9010136   2.8781521  50.7239606
  70.7355740   2.4462719  50.5417081  69.7394479   2.7063535  51.6516500
  66.8701936   1.6862546  71.4149508  67.7393095   1.8603198  71.0536143
  66.3908687   2.5056963  71.2925237  61.0388116   8.8059647  63.0938942
  61.9415363   8.8383257  63.4105437  60.8125486   7.8760098  63.1085277
  62.7941718   7.5590634  59.7549020  61.8437349   7.5592495  59.6413393
  63.0974204   6.8123368  59.2385055  78.5294412  13.3951172  60.8194783
  79.1672822  13.2757919  60.1158123  78.4115254  14.3432016  60.8782735
  75.3384118  13.3478600  60.7556307  75.0002629  13.2319665  59.8676842
  76.2073886  12.9469765  60.7357314  71.1970934  15.2014076  56.7453198
  70.6335799  15.1104013  55.9769486  71.0823329  14.3813981  57.2255691
  75.8203901  14.5013452  66.7142513  75.8092542  14.1066250  65.8423017
  75.9824540  13.7679524  67.3076284  68.7435366  16.6965268  59.5837419
  69.5356657  16.3556093  59.1683718  68.9832016  16.8060243  60.5039572
  76.7770492  18.8685044  52.0567663  76.1258472  19.4539125  51.6701677
  77.5714855  19.3991239  52.1162701  70.7026119  15.9574181  52.4554798
  71.4756995  15.4103168  52.3167673  71.0551518  16.8218431  52.6669259
  72.5411162  17.2850564  65.6621697  72.2501028  18.1896194  65.5468363
  73.1768146  17.3267091  66.3765766  73.4667369  14.6627412  62.2523057
  74.0630941  14.4383434  61.5380019  73.5242340  13.9212158  62.8548504
  73.0392397  12.1166847  50.0873248  73.2917918  11.5948369  49.3256711
  72.1016956  11.9532993  50.1899931  78.0835680  11.1202626  57.8947991
  78.8698769  10.7022049  57.5438408  78.3474384  12.0248718  58.0629639
  78.2545757  16.5575476  52.5936648  77.6191590  16.6310103  53.3057552
  77.9243164  17.1469075  51.9155727  83.4844107  11.0577859  58.7980969
  84.2169279  10.4877076  59.0318799  82.7283463  10.6699459  59.2387475
  72.7588686  14.0194953  52.2897622  72.6424944  13.3439857  52.9578707
  72.8690946  13.5327327  51.4729776  75.1020227  13.4805100  55.9944312
  74.7378434  12.9535721  56.7057233  75.9587343  13.0903570  55.8210797
  81.0069528   4.7699433  63.2575578  80.6752852   5.6394844  63.0336793
  80.4115141   4.4535717  63.9369608  74.7425714   8.5095000  50.9905660
  74.9100116   9.3775237  51.3576131  74.5522883   8.6722282  50.0666949
  77.5001047  16.9711979  62.6571491  77.2001770  17.8737018  62.5487298
  77.1552107  16.7044162  63.5092643  70.9513529  13.4225776  58.6908195
  70.0264025  13.2901990  58.8985887  71.1997942  14.2019995  59.1878137
  80.8998191   9.4894519  60.3368928  79.9915068   9.4209928  60.0427689
  80.8485787   9.9666464  61.1650753  74.7214935  10.9652658  51.9752327
  74.6014560  11.4109708  52.8137807  74.0267523  11.3137975  51.4165865
  68.3122340  13.0659049  59.5251984  68.4414721  13.3193528  60.4391396
  67.6319791  13.6586757  59.2056639  72.4821827  23.7356299  55.6242458
  72.4045857  24.6864125  55.7030939  71.8783470  23.3902172  56.2817385
  74.9739057  10.9084165  68.2803825  74.1972391  11.4678085  68.2706690
  75.6129620  11.3940948  68.8018695  82.7659837   7.6910958  62.1146802
  82.1234218   7.9843491  61.4686596  82.2614766   7.5763878  62.9199999
  80.4200001  11.4374131  52.8032661  81.3317857  11.6701518  52.6280359
  79.9109648  12.0211175  52.2407740  73.2285429  13.7169618  67.8421792
  73.9700113  14.2554662  67.5656616  72.5222414  14.3435907  67.9993344
  78.7040769  15.8598759  66.4393954  79.1124125  15.4181169  65.6948586
  77.9818030  15.2851386  66.6928147  75.0571839  10.7971365  63.8127511
  75.9033034  11.2210779  63.9562160  74.9970476  10.1404990  64.5066074
  79.0269583  16.4199949  60.1946243  78.3978446  16.5845663  59.4922310
  78.6395245  16.8341559  60.9657207  82.9058815  17.3554387  57.5490606
  82.2209853  17.7353289  56.9987640  82.9902664  17.9649714  58.2822554
  78.2071284   8.4575734  65.4708684  77.9632216   9.2117794  64.9342960
  78.4831214   8.8361081  66.3055931  80.1609747  15.0014346  64.1485950
  80.3726642  15.6446106  63.4720331  80.1139495  14.1676663  63.6807880
  77.7635976   7.6132167  61.0522522  76.9020455   7.9113420  61.3439260
  77.7898410   7.8302566  60.1203555  74.5797545  16.1574357  57.4596328
  75.0435891  16.4362060  56.6700950  74.3154343  15.2557802  57.2769418
  71.4721626  15.7045839  60.3976091  72.0422983  16.1333107  59.7593575
  72.0629738  15.4228424  61.0960277  73.5166431  12.2797510  54.2685893
  74.2190475  12.7318553  54.7359819  73.1847060  11.6381329  54.8965786
  71.9646793  10.8709266  68.6437102  71.3345453  11.5525547  68.8772499
  71.8582881  10.7592348  67.6990240  67.2591765  10.5381062  59.5703026
  66.4690819  10.7938591  59.0943137  67.7503013  11.3529400  59.6755067
  81.2755575  17.8786302  62.3208307  82.0973018  17.4766489  62.0390989
  81.2717978  17.7754536  63.2724423  69.2106511  10.9025642  56.5286503
  68.4137674  11.0144336  57.0469999  68.9832103  11.2412294  55.6627394
  75.0412178  17.4270345  64.4769018  75.1056611  17.8890752  65.3127190
  74.3323102  16.7967710  64.6051328  65.5429468  10.7911553  62.0018017
  65.7937507  11.6758563  62.2675593  66.0789017  10.6116154  61.2293109
  89.3661568  14.2225050  58.6693279  88.6125276  13.6532448  58.5137283
  89.5009109  14.1887715  59.6163913  74.7560196  19.0938452  54.3447998
  74.6205871  19.9389988  54.7732846  75.2970008  19.2957730  53.5813932
  71.2427535   5.1730032  71.0062353  70.8494481   4.6196231  71.6809997
  72.0593676   5.4840611  71.3968871  68.2089593  16.6113890  54.9175923
  68.7214114  17.4057141  55.0681488  68.8612306  15.9140181  54.8509525
  70.0184478  19.7279647  56.9998676  70.1951106  20.6497611  56.8119660
  70.8141311  19.4138066  57.4293056  74.1595496   6.5887911  68.5982610
  74.9005210   7.1895064  68.5187072  74.3913419   5.8465549  68.0400652
  69.3036834  11.7744279  66.8760839  69.1890350  10.8729536  67.1767938
  68.4481352  12.0207975  66.5245656  76.3828672  19.7162019  68.4748340
  75.9392526  18.9298397  68.1569245  77.0445886  19.9041169  67.8092231
  71.1415793  21.2457820  63.0009019  71.6923218  21.1174884  62.2286013
  70.3027269  21.5452710  62.6503911  78.4809910  19.9964819  66.5029741
  78.4628386  20.8173700  66.0110011  79.4029830  19.8718894  66.7279883
  74.9382964  17.5108948  67.3453250  75.4711301  16.7497236  67.1152558
  74.4097046  17.2182600  68.0877404  66.1738510  14.9402545  55.6935494
  67.0113732  15.3499553  55.4769201  66.3516778  14.0001987  55.6635688
  78.0702942  12.6077625  51.3819327  77.5549566  13.3782230  51.6207714
  77.7980251  11.9342762  52.0052388  75.6550053   7.4527326  56.4404565
  74.7991649   7.0634177  56.2610204  76.0677005   7.5319287  55.5804351
  77.1849200   4.9873669  60.8396125  76.6813995   4.9503805  60.0263930
  77.4779807   5.8966412  60.8992781  73.4292086   5.0712399  59.8462306
  74.2945082   4.8755208  59.4868196  73.4969595   4.8422751  60.7731663
  83.0437216  15.3609980  53.3172500  82.2666659  15.0221140  52.8727662
  83.7228697  15.3662603  52.6427465  77.8589245  10.4804717  53.2079108
  77.5539381  10.7950867  54.0589251  78.8119687  10.5586137  53.2506441
  76.3035677  16.6394941  54.8572062  75.7757039  15.9047700  54.5445299
  75.8023180  17.4169617  54.6112030  81.2828523  14.8343961  59.9739108
  80.6252198  15.5243223  60.0619237  82.0868922  15.2240393  60.3173094
  71.0354405   7.3014607  57.2178673  71.6098157   7.0789789  56.4851866
  71.6225387   7.3703302  57.9707275  80.0933982  13.1888334  58.0243050
  80.6065864  13.8218326  58.5264760  80.7435206  12.5889529  57.6586410
  71.3623992   9.3319068  51.2374559  70.5261304   9.6693755  51.5583833
  71.2228761   9.1968048  50.3001696  73.3377072   4.1755856  55.9453743
  72.6841485   3.8604873  55.3210357  73.2957547   3.5531596  56.6713566
  74.4488277  14.4575151  47.8607035  73.5415339  14.2264404  48.0598184
  74.9459309  13.6612770  48.0481016  77.3556356  23.1672658  50.7803721
  76.6818055  23.4704355  51.3888679  77.7422178  23.9701739  50.4309178
  76.5714813  10.6637790  60.2701390  75.6537374  10.8852737  60.1123078
  76.9874956  10.7384100  59.4113098  77.3549861  12.0629205  55.4004071
  78.1021680  12.5750602  55.0911193  77.6241450  11.7413258  56.2608464
  75.6276511  14.5587746  52.3831025  74.7187730  14.2746779  52.4803495
  75.6571595  14.9786824  51.5234332  80.8595778  18.1694335  56.1522192
  80.4058105  17.3285245  56.2087383  80.2289745  18.8055734  56.4896973
  79.8028698   9.0986321  57.3822860  79.0651455   8.5863708  57.7133102
  80.0555471   8.6586703  56.5706137  79.3028717  20.0070832  57.0872011
  79.5951692  20.5675889  56.3684376  79.8127338  20.2999393  57.8425170
  66.1964681  12.2793260  56.3646227  65.9989081  11.6862621  55.6397294
  65.6411345  11.9745470  57.0822166  74.1761405  12.1716367  58.4840820
  74.2310015  11.2190203  58.4083297  73.3652607  12.3275806  58.9682119
  75.3252599  16.0996490  49.7219103  74.8872028  15.3832349  49.2624741
  76.0663039  16.3272604  49.1604195  72.1153765  10.7893426  56.2431199
  71.3021630  11.0887597  56.6496391  72.6112759  10.3949115  56.9605681
  74.2662343  20.7851183  58.1765464  74.2238521  21.0112029  57.2473996
  75.1825041  20.5514558  58.3251265  77.7127976  11.2535251  65.0746093
  78.0677364  11.4806724  65.9340559  78.3600108  11.5853628  64.4523348
  83.4425713  14.3753687  55.7795422  83.3043612  14.5655283  54.8516611
  83.0861932  15.1373069  56.2363473  71.6067839   8.3611782  61.8592434
  72.2467219   8.2200541  61.1615397  70.7745370   8.0746295  61.4831036
  83.4695093  16.4430214  60.7906694  83.9031600  16.3505503  61.6389748
  84.1826674  16.4187714  60.1526710  72.3828143  17.6614212  57.9727427
  73.1768742  17.1664532  57.7710001  71.6719836  17.1332075  57.6095132
  77.2022988  20.0432308  62.3239794  77.2560010  20.6123244  63.0917510
  76.3337769  20.2134193  61.9593831  68.6910907  11.8057294  54.0487179
  67.7608495  11.7441749  54.2657141  68.7868379  11.2833247  53.2523820
  68.6096456   8.3312107  56.6365421  68.8703273   9.2457440  56.5274581
  69.4313628   7.8636549  56.7862034  70.0821381   9.7449864  63.8064245
  70.7544435   9.5367226  63.1576894  69.2551168   9.5471950  63.3669478
  84.3310642  16.4853914  63.3239579  84.5246533  17.3899725  63.5698854
  84.2311261  16.0261333  64.1578164  75.9846953   6.3711805  65.8229906
  75.3374868   7.0701755  65.7294383  76.7547969   6.8047949  66.1906154
  79.3925751  16.6360657  68.8980460  79.2411258  16.4071209  67.9810543
  79.3830431  17.5931258  68.9111805  76.1611088  14.2092570  63.8826726
  77.0903148  14.3603729  63.7095693  75.7402118  14.2976591  63.0275373
  74.9599419  18.2343234  61.6525264  74.8210505  17.8662019  62.5251202
  74.1714016  18.7490874  61.4809221  75.5547571  23.3352331  52.9950800
  75.7299327  22.8640374  53.8096423  74.8680359  23.9618097  53.2232061
  76.5104634  17.6124837  59.0414101  76.1754467  17.5725607  59.9371751
  76.0108580  16.9469553  58.5684512  70.4848878  13.0192467  64.5666683
  70.3468676  12.2872706  65.1678222  71.3953802  12.9301367  64.2850870
  79.4463826  14.9580871  49.3151161  78.8292997  14.2327699  49.2184214
  78.9780315  15.7190232  48.9718235  73.1131179  12.7312426  64.0550362
  73.8230798  12.0905618  64.0136981  73.0700487  12.9825321  64.9776543
  81.1017958  19.6679780  66.9756941  81.0430504  18.9839000  66.3087524
  81.5037476  20.4098770  66.5237567  71.8260113   9.7177644  65.8746002
  71.2897470   9.2668383  66.5267598  71.2376822   9.8523553  65.1316466
  70.1208657  26.4841693  59.7690660  70.3605255  27.1160218  60.4469679
  69.2777853  26.1329733  60.0556020  71.2362372   9.1766296  48.4372465
  70.3591838   9.0555096  48.0734712  71.7120125   8.3852374  48.1851354
  81.1035365  17.6319364  65.2070921  80.2162144  17.2945285  65.3297320
  81.6733916  16.9002395  65.4439686  62.7564512  13.9643455  58.5313972
  63.4435552  13.6505185  57.9434988  62.6012641  14.8684820  58.2581224
  67.5599234   8.8533652  62.9598996  67.4757423   8.2459321  62.2249406
  66.7381941   9.3442670  62.9608493  74.6336518  22.2920816  62.1732164
  74.5606690  23.0975787  62.6851469  74.1913912  22.4912782  61.3480186
  74.4226298  21.5292586  55.6834986  73.6393820  22.0714266  55.7773210
  75.1219043  22.0466566  56.0829227  77.7322948   7.3387215  58.3269191
  78.2291648   6.5857178  58.0070261  76.9609930   7.3751532  57.7612401
  85.5852706  13.0427581  59.9687483  85.5742582  13.9252296  59.5981416
  84.7170085  12.6899132  59.7742020  77.0935202  22.1907650  64.3290323
  77.8063174  22.8255115  64.2566224  76.6025231  22.2871516  63.5130325
  78.8152729  16.0958903  55.9007615  77.8809008  16.2160365  55.7312319
  78.9929397  15.1931369  55.6367624  74.3157917   9.4804598  58.0540876
  73.9455704   8.9275639  58.7421781  74.8117009   8.8762732  57.5015876
  82.2025280  11.9376222  56.4357649  82.6685732  12.7704213  56.3617951
  82.6532781  11.4721203  57.1402907  72.1447116  19.9402093  65.1495894
  72.8456575  20.5738576  65.3025288  71.6742231  20.2816825  64.3891533
  80.2701511  18.2820043  53.4343801  80.5461355  18.1676638  54.3437675
  79.4006010  17.8837528  53.3955974  79.9448401  12.4946701  62.9748444
  79.2919852  12.7422608  62.3200897  80.3228781  11.6810839  62.6410921
  76.9055575  22.5306394  57.0776614  77.0877970  21.7128050  57.5404367
  77.7288561  22.7474086  56.6401504  77.2397741  21.4574579  54.3391663
  77.7685507  20.9467034  53.7261825  77.5025960  21.1417109  55.2037196
  75.9935975  13.2366512  69.4614481  75.3176612  13.1360641  70.1316856
  76.8163608  13.0805726  69.9250478  67.7414834  19.4738448  62.0826996
  68.3268270  18.7282136  62.2154901  67.5439672  19.7842405  62.9663660
  70.5953489  22.5089696  57.0989439  69.9263864  22.9935823  56.6153479
  70.4566359  22.7558916  58.0132817  62.3332488  12.0444049  60.8031440
  62.3716588  11.5107639  61.5968558  61.8272781  11.5179254  60.1842417
  74.7358757  24.5433439  63.6972097  75.2877065  24.7065061  64.4621182
  75.0764951  25.1337877  63.0252122  69.7123251   6.8908589  64.2993982
  69.7764577   7.7523420  63.8871380  69.6490371   6.2782591  63.5666340
  69.1875523   8.9631722  67.9467016  69.8147562   8.5808799  68.5604540
  68.3303442   8.7445924  68.3122709  79.5869632  19.3694697  69.5520752
  80.1309536  19.9824655  69.0575706  79.0056477  19.9274275  70.0687765
  65.9641066  10.7708151  53.8785371  66.2594507   9.8618829  53.8252425
  65.0629102  10.7495890  53.5566373  77.8727145  22.4915415  60.6835779
  77.7478284  21.6905155  60.1746725  78.5306236  22.9861608  60.1949749
  69.4935313   8.8464147  59.8612920  68.7721899   9.4600115  59.7220393
  70.2828569   9.3821912  59.7829566  79.9362053  20.2924435  62.3115329
  78.9892389  20.1729786  62.2393656  80.2844826  19.4046933  62.3941591
  72.2961626   6.1818574  66.1353571  72.8196028   6.4280870  66.8979881
  72.0773960   7.0138609  65.7156709  67.6928907   8.4522248  54.0024696
  67.3641614   7.5719627  53.8199802  68.0468278   8.3969917  54.8901085
  76.9408486  20.0877151  58.5119682  76.7933449  19.1593859  58.6927252
  77.7661980  20.1097242  58.0276757  70.8070731   8.7395218  54.3700174
  71.1466803   9.2681139  53.6478782  71.2542851   9.0775624  55.1458740
  80.5442608  20.9105710  59.5984554  81.4689156  20.7048571  59.4609006
  80.3757912  20.6622111  60.5073896  73.5014171   7.1232269  63.8203242
  73.1610992   6.3240082  64.2223922  72.7953178   7.4233980  63.2480075
  74.1530643   4.2081581  62.2730565  74.9756713   3.7342060  62.1509455
  74.3968707   4.9872065  62.7729251  72.7938878   7.2369840  52.5693467
  73.5147240   7.6151093  52.0657183  72.1704182   7.9558717  52.6728445
  76.9370001   7.9414989  53.5051799  77.1533615   8.8239627  53.2040627
  76.4564068   7.5501202  52.7757441  71.6769222  10.9000702  60.0822544
  71.5313803  11.2141005  60.9746825  71.1994426  11.5185602  59.5293442
  73.5365605   7.8903250  60.1303433  73.5227174   6.9944343  59.7935731
  74.2538033   7.8973914  60.7641719  75.3891736   8.3240590  62.1756560
  75.1309513   9.2457661  62.1740891  74.8576776   7.9271025  62.8657025
  80.3337924  21.4291377  54.9546646  80.5074802  20.8637800  54.2020498
  80.8266816  22.2292272  54.7726136  66.1514884  13.4406046  63.0210205
  65.6068352  14.2165854  63.1530479  67.0294234  13.7876851  62.8629326
  72.9402501   6.7717630  55.3991003  73.0618412   5.8434276  55.5981891
  72.6504543   6.7856316  54.4869319  75.8093691   4.4572541  58.5357723
  75.8315388   4.5211874  57.5809703  76.2261750   3.6177049  58.7298229
  86.1877316  14.1927800  56.5736946  86.6308462  13.4435125  56.1756069
  85.3103826  14.1837937  56.1910678  81.3213097  20.7458142  52.0543544
  82.0164002  21.3664834  52.2730859  81.6636247  19.8953493  52.3295922
  66.9380906  12.5675943  65.9140362  66.1962642  12.7158578  66.5004992
  66.6173650  12.8284208  65.0507111  83.2204520  18.1957847  53.5830875
  83.7455844  18.5345120  52.8580195  83.1326873  17.2604863  53.3994010
  74.8824569  22.1091921  65.7120752  75.1911695  21.8641068  66.5843451
  75.6800051  22.3138559  65.2239622  74.9045181  24.2629831  57.9426128
  74.4650171  23.7706209  58.6358985  75.6553298  23.7202798  57.7018203
  67.3837520  20.4541371  57.9450756  68.2095540  20.1545143  57.5649400
  67.0331572  19.6848994  58.3940545  72.3519053  19.8067840  60.0148430
  71.7299062  19.1438545  59.7150658  73.0223920  19.8328972  59.3322078
  65.5846125  18.3727698  58.9039690  64.7478033  17.9449872  58.7223691
  65.5569770  18.5660141  59.8410481  72.4243580   8.2849628  69.6080936
  72.4731736   9.1611750  69.2258705  72.9666095   7.7427021  69.0352579
  82.9098426  18.8290751  68.8882073  82.1193970  18.8114890  68.3486572
  82.6731781  19.3679045  69.6431109  83.0296301  15.6783217  66.2014801
  83.0794306  15.5133225  67.1430324  82.9210224  14.8110476  65.8112682
  71.9132560  18.3571763  53.4906890  72.0620680  19.0407227  52.8373563
  72.7199003  18.3376853  54.0056346  80.3200064  11.6614145  67.5174108
  81.2209926  11.5220610  67.2258106  80.3948038  11.8268600  68.4572286
  74.6542869   9.0381000  66.3627294  73.7846178   9.3314566  66.0909883
  74.8902349   9.6221445  67.0834558  84.5314498  18.0980159  66.4456823
  84.2399306  18.4610139  67.2820284  83.9186629  17.3847167  66.2670155
  85.7310180  15.6633039  58.9659393  86.5657072  16.1022843  59.1296954
  85.8669309  15.1871692  58.1467639  82.7801686  13.2212773  64.9136881
  83.2555808  13.4140420  64.1055732  81.8567252  13.2771959  64.6680265
  69.6685193  14.3836941  54.4967959  69.4231235  13.4799271  54.6948169
  69.8381107  14.3854091  53.5547437  77.3581903   5.2560617  63.8792715
  77.8763847   5.9921644  63.5539203  77.0037035   5.5624610  64.7139474
  68.9380840  10.1165298  51.9954121  68.2450085  10.1909653  51.3394157
  68.6932592   9.3525642  52.5175638  75.4127965  20.8519893  50.9618638
  74.8401932  21.4710081  50.5089110  75.9860759  21.4019255  51.4958560
  81.4803355  10.0978534  63.1465187  82.4320778  10.1976631  63.1677411
  81.3106806   9.3056802  63.6563271  79.5017735   7.1834117  63.3324587
  78.9067667   7.4639129  62.6371076  79.2167431   7.6728018  64.1041329
  78.6325225  21.1357044  52.0927220  79.5655898  21.0702605  52.2960096
  78.5448438  21.9713310  51.6341753  81.2613242  20.4522914  49.0531168
  81.1826873  20.1182777  49.9466926  82.0822909  20.9444682  49.0522640
  83.9591433  13.3184653  62.2607486  83.9267753  12.3800654  62.4467170
  84.5692057  13.3968690  61.5273311  75.7974764  12.1880706  48.3034690
  76.7433869  12.0586914  48.3723108  75.4189009  11.4495368  48.7804118
  84.1085921  10.1095697  62.3065769  83.5924970   9.3254153  62.1195698
  84.9925870   9.7814413  62.4712289  89.7767983  14.3800660  61.4013523
  90.5071371  14.1185948  61.9621226  89.1674928  13.6429382  61.4415591
  87.8583280  12.5208523  61.9987974  87.1316444  12.3864488  61.3904466
  87.4430567  12.8285351  62.8044692  75.6813456  16.2398452  69.7635347
  76.6016466  16.4177051  69.9575394  75.6463039  15.2954498  69.6115046
  73.9817681  10.1130683  48.2389575  73.0749136   9.8163795  48.3152289
  74.2593662   9.8160501  47.3723862  64.8995621  11.4337046  58.6888622
  64.5798406  10.5802354  58.3962996  64.3529050  11.6485624  59.4446589
  68.6775529  14.1499487  62.4058128  68.8961539  15.0816595  62.4246162
  69.0901303  13.7907461  63.1912932  75.5979747   4.6567572  54.3933817
  74.7880475   4.3114657  54.7689063  76.2864164   4.3475116  54.9821428
  73.5503394   9.7232693  71.7960877  73.4500121  10.6727050  71.7272968
  73.3324936   9.3950932  70.9236947  72.7516466   6.9717618  48.3801555
  73.6135630   7.2972516  48.6397372  72.9366810   6.1849114  47.8674620
  64.7683881  15.0539957  60.6581743  64.0747353  14.6393910  60.1451698
  65.5156872  15.0960494  60.0615162  80.9049102   5.8446144  55.5236778
  80.3247771   6.5030948  55.1414830  80.6385035   5.0223489  55.1124195
  79.3552668   5.2451202  57.7258098  79.8552447   5.3567736  56.9172417
  79.9988276   4.9412255  58.3658906  73.4134664  13.1529832  70.6125939
  72.9301746  13.9530192  70.8189828  73.4995603  13.1637776  69.6593383
  66.6820624  14.9858211  58.5347758  66.6591312  15.0845899  57.5829641
  66.9921260  15.8323362  58.8564924  69.3408002  17.0434366  62.6494373
  70.2951255  17.0118309  62.5824304  69.1420525  16.5824990  63.4644599
  69.9307384  15.6135482  65.2165170  70.7500273  16.1079561  65.2400008
  70.2044192  14.6967450  65.1882738  79.6873980   8.0046235  54.5793126
  78.7999835   8.2895885  54.3613321  80.1027969   7.8439998  53.7320403
  83.0388516   8.0292756  58.2947465  83.8148906   8.5189208  58.5672082
  82.3136650   8.4550810  58.7519335  85.4761075   8.7420375  59.3521406
  86.0705566   8.5016111  58.6414714  85.5487659   8.0227505  59.9794942
  67.6958231  22.5853986  59.6664571  67.5612699  21.8254387  59.1002569
  67.2790293  23.3094886  59.1993360  78.8317194  17.7690909  48.6741146
  79.5353044  17.9740912  49.2898802  78.1079842  18.3367671  48.9390229
  79.6615004  13.5200771  54.7943416  79.6050205  13.9769322  53.9551048
  80.2143346  12.7591455  54.6166259  83.4719810   9.3090502  55.6193536
  83.2156744   8.9087138  56.4501743  82.8472678  10.0234296  55.4943675
  87.7832148  12.0486576  58.1264827  87.2231706  12.1179765  58.8996389
  87.1775651  11.8727560  57.4064323  70.8527356  23.4823303  59.8783013
  70.7359741  24.4268735  59.7761704  70.0319803  23.1796864  60.2668812
  80.7403891  18.2073438  50.7239606  81.5749495  17.7754637  50.5417081
  80.5788234  18.0355452  51.6516500  80.3949783  14.7105552  52.0895945
  80.3398587  14.5449823  51.1484389  79.7695838  15.4181585  52.2458135
  65.1842298   9.9473616  65.9157367  65.8301162   9.4372570  66.4044593
  64.9759449  10.6842298  66.4900793  77.7095690  17.0154464  71.4149508
  78.5786850  17.1895116  71.0536143  77.2302442  17.8348880  71.2925237
  73.7045909   4.2113661  51.6681264  73.6924578   5.1555501  51.8249535
  74.5969331   4.0283806  51.3740725  71.8781871  24.1351565  63.0938942
  72.7809117  24.1675175  63.4105437  71.6519241  23.2052016  63.1085277
  73.6335473  22.8882551  59.7549020  72.6831104  22.8884413  59.6413393
  73.9367959  22.1415286  59.2385055  69.5239789   7.0941233  70.0132382
  70.3871251   6.7378038  70.2235706  68.9505200   6.7555128  70.7007786
  89.3688166  28.7243090  60.8194783  90.0066576  28.6049837  60.1158123
  89.2509009  29.6723934  60.8782735  86.1777872  28.6770518  60.7556307
  85.8396384  28.5611582  59.8676842  87.0467641  28.2761683  60.7357314
  82.0364688  30.5305994  56.7453198  81.4729553  30.4395931  55.9769486
  81.9217083  29.7105899  57.2255691  86.6597655  29.8305369  66.7142513
  86.6486296  29.4358168  65.8423017  86.8218295  29.0971442  67.3076284
  79.5829120  32.0257186  59.5837419  80.3750412  31.6848010  59.1683718
  79.8225770  32.1352161  60.5039572  87.6164247  34.1976962  52.0567663
  86.9652227  34.7831042  51.6701677  88.4108610  34.7283157  52.1162701
  81.5419874  31.2866099  52.4554798  82.3150750  30.7395086  52.3167673
  81.8945273  32.1510348  52.6669259  83.3804916  32.6142481  65.6621697
  83.0894782  33.5188112  65.5468363  84.0161901  32.6559009  66.3765766
  84.3061123  29.9919330  62.2523057  84.9024696  29.7675352  61.5380019
  84.3636095  29.2504075  62.8548504  83.8786152  27.4458765  50.0873248
  84.1311672  26.9240286  49.3256711  82.9410711  27.2824911  50.1899931
  88.9229435  26.4494543  57.8947991  89.7092524  26.0313967  57.5438408
  89.1868139  27.3540636  58.0629639  89.0939512  31.8867394  52.5936648
  88.4585345  31.9602020  53.3057552  88.7636918  32.4760993  51.9155727
  94.3237862  26.3869777  58.7980969  95.0563034  25.8168993  59.0318799
  93.5677217  25.9991377  59.2387475  83.5982440  29.3486871  52.2897622
  83.4818699  28.6731774  52.9578707  83.7084700  28.8619245  51.4729776
  85.9413981  28.8097018  55.9944312  85.5772189  28.2827639  56.7057233
  86.7981097  28.4195487  55.8210797  91.8463282  20.0991351  63.2575578
  91.5146607  20.9686762  63.0336793  91.2508895  19.7827635  63.9369608
  85.5819468  23.8386918  50.9905660  85.7493871  24.7067154  51.3576131
  85.3916637  24.0014200  50.0666949  88.3394802  32.3003897  62.6571491
  88.0395525  33.2028936  62.5487298  87.9945861  32.0336080  63.5092643
  81.7907283  28.7517694  58.6908195  80.8657780  28.6193908  58.8985887
  82.0391696  29.5311913  59.1878137  91.7391945  24.8186437  60.3368928
  90.8308823  24.7501845  60.0427689  91.6879541  25.2958382  61.1650753
  85.5608689  26.2944575  51.9752327  85.4408314  26.7401626  52.8137807
  84.8661278  26.6429893  51.4165865  79.1516094  28.3950967  59.5251984
  79.2808475  28.6485446  60.4391396  78.4713545  28.9878675  59.2056639
  83.3215581  39.0648217  55.6242458  83.2439611  40.0156042  55.7030939
  82.7177225  38.7194090  56.2817385  85.8132811  26.2376083  68.2803825
  85.0366145  26.7970003  68.2706690  86.4523374  26.7232866  68.8018695
  93.6053592  23.0202875  62.1146802  92.9627972  23.3135408  61.4686596
  93.1008520  22.9055796  62.9199999  91.2593755  26.7666049  52.8032661
  92.1711612  26.9993435  52.6280359  90.7503403  27.3503093  52.2407740
  84.0679183  29.0461536  67.8421792  84.8093868  29.5846580  67.5656616
  83.3616169  29.6727825  67.9993344  89.5434523  31.1890676  66.4393954
  89.9517879  30.7473087  65.6948586  88.8211785  30.6143304  66.6928147
  85.8965593  26.1263283  63.8127511  86.7426788  26.5502697  63.9562160
  85.8364231  25.4696907  64.5066074  89.8663338  31.7491867  60.1946243
  89.2372200  31.9137581  59.4922310  89.4789000  32.1633477  60.9657207
  93.7452570  32.6846305  57.5490606  93.0603608  33.0645206  56.9987640
  93.8296419  33.2941631  58.2822554  89.0465038  23.7867651  65.4708684
  88.8025970  24.5409712  64.9342960  89.3224969  24.1652999  66.3055931
  91.0003501  30.3306264  64.1485950  91.2120396  30.9738024  63.4720331
  90.9533249  29.4968580  63.6807880  88.6029730  22.9424084  61.0522522
  87.7414209  23.2405338  61.3439260  88.6292165  23.1594483  60.1203555
  85.4191300  31.4866275  57.4596328  85.8829645  31.7653978  56.6700950
  85.1548098  30.5849720  57.2769418  82.3115381  31.0337757  60.3976091
  82.8816738  31.4625025  59.7593575  82.9023493  30.7520341  61.0960277
  84.3560186  27.6089427  54.2685893  85.0584229  28.0610471  54.7359819
  84.0240814  26.9673246  54.8965786  82.8040547  26.2001184  68.6437102
  82.1739208  26.8817465  68.8772499  82.6976635  26.0884266  67.6990240
  78.0985520  25.8672980  59.5703026  77.3084574  26.1230509  59.0943137
  78.5896767  26.6821318  59.6755067  92.1149329  33.2078219  62.3208307
  92.9366773  32.8058407  62.0390989  92.1111732  33.1046453  63.2724423
  80.0500265  26.2317559  56.5286503  79.2531428  26.3436254  57.0469999
  79.8225857  26.5704212  55.6627394  85.8805933  32.7562263  64.4769018
  85.9450365  33.2182670  65.3127190  85.1716857  32.1259627  64.6051328
  76.3823223  26.1203471  62.0018017  76.6331261  27.0050480  62.2675593
  76.9182771  25.9408072  61.2293109 100.2055322  29.5516968  58.6693279
  99.4519031  28.9824366  58.5137283 100.3402863  29.5179632  59.6163913
  85.5953950  34.4230370  54.3447998  85.4599625  35.2681906  54.7732846
  86.1363763  34.6249648  53.5813932  82.0821290  20.5021950  71.0062353
  81.6888235  19.9488148  71.6809997  82.8987430  20.8132528  71.3968871
  79.0483348  31.9405808  54.9175923  79.5607868  32.7349058  55.0681488
  79.7006061  31.2432099  54.8509525  80.8578232  35.0571564  56.9998676
  81.0344861  35.9789529  56.8119660  81.6535066  34.7429984  57.4293056
  84.9989251  21.9179829  68.5982610  85.7398964  22.5186982  68.5187072
  85.2307174  21.1757467  68.0400652  80.1430589  27.1036196  66.8760839
  80.0284104  26.2021453  67.1767938  79.2875107  27.3499893  66.5245656
  87.2222427  35.0453937  68.4748340  86.7786281  34.2590315  68.1569245
  87.8839640  35.2333087  67.8092231  81.9809548  36.5749738  63.0009019
  82.5316973  36.4466802  62.2286013  81.1421024  36.8744627  62.6503911
  89.3203665  35.3256736  66.5029741  89.3022140  36.1465618  66.0110011
  90.2423585  35.2010812  66.7279883  85.7776719  32.8400866  67.3453250
  86.3105056  32.0789154  67.1152558  85.2490800  32.5474518  68.0877404
  88.9446414  17.9460932  62.8746891  88.6010683  18.8362574  62.7986002
  89.3125376  17.7562590  62.0116477  77.0132264  30.2694462  55.6935494
  77.8507486  30.6791471  55.4769201  77.1910532  29.3293905  55.6635688
  88.9096697  27.9369543  51.3819327  88.3943320  28.7074148  51.6207714
  88.6374005  27.2634679  52.0052388  86.4943808  22.7819244  56.4404565
  85.6385404  22.3926094  56.2610204  86.9070759  22.8611205  55.5804351
  88.0242954  20.3165587  60.8396125  87.5207750  20.2795722  60.0263930
  88.3173561  21.2258330  60.8992781  84.2685840  20.4004317  59.8462306
  85.1338837  20.2047125  59.4868196  84.3363349  20.1714669  60.7731663
  93.8830971  30.6901898  53.3172500  93.1060413  30.3513057  52.8727662
  94.5622452  30.6954521  52.6427465  88.6983000  25.8096635  53.2079108
  88.3933135  26.1242784  54.0589251  89.6513442  25.8878055  53.2506441
  87.1429432  31.9686858  54.8572062  86.6150793  31.2339618  54.5445299
  86.6416934  32.7461535  54.6112030  92.1222278  30.1635879  59.9739108
  91.4645952  30.8535140  60.0619237  92.9262677  30.5532311  60.3173094
  81.8748159  22.6306525  57.2178673  82.4491911  22.4081706  56.4851866
  82.4619142  22.6995219  57.9707275  90.9327736  28.5180252  58.0243050
  91.4459618  29.1510243  58.5264760  91.5828960  27.9181447  57.6586410
  82.2017746  24.6610986  51.2374559  81.3655059  24.9985672  51.5583833
  82.0622516  24.5259966  50.3001696  84.1770827  19.5047774  55.9453743
  83.5235239  19.1896791  55.3210357  84.1351301  18.8823514  56.6713566
  85.2882032  29.7867069  47.8607035  84.3809094  29.5556322  48.0598184
  85.7853064  28.9904688  48.0481016  88.1950111  38.4964576  50.7803721
  87.5211809  38.7996273  51.3888679  88.5815933  39.2993656  50.4309178
  87.4108567  25.9929707  60.2701390  86.4931129  26.2144654  60.1123078
  87.8268711  26.0676018  59.4113098  88.1943615  27.3921123  55.4004071
  88.9415434  27.9042520  55.0911193  88.4635205  27.0705176  56.2608464
  86.4670265  29.8879664  52.3831025  85.5581484  29.6038696  52.4803495
  86.4965349  30.3078742  51.5234332  91.6989533  33.4986253  56.1522192
  91.2451860  32.6577163  56.2087383  91.0683499  34.1347651  56.4896973
  90.6422452  24.4278239  57.3822860  89.9045209  23.9155625  57.7133102
  90.8949226  23.9878621  56.5706137  90.1422472  35.3362750  57.0872011
  90.4345446  35.8967807  56.3684376  90.6521092  35.6291311  57.8425170
  90.7434080  17.2054491  57.9764629  91.0492956  16.3451855  57.6890544
  91.4686684  17.7972111  57.7763623  77.0358436  27.6085178  56.3646227
  76.8382835  27.0154538  55.6397294  76.4805100  27.3037388  57.0822166
  85.0155159  27.5008284  58.4840820  85.0703769  26.5482121  58.4083297
  84.2046361  27.6567723  58.9682119  86.1646353  31.4288407  49.7219103
  85.7265783  30.7124266  49.2624741  86.9056794  31.6564522  49.1604195
  82.9547519  26.1185344  56.2431199  82.1415385  26.4179514  56.6496391
  83.4506513  25.7241033  56.9605681  85.1056097  36.1143101  58.1765464
  85.0632276  36.3403947  57.2473996  86.0218796  35.8806475  58.3251265
  88.5521731  26.5827168  65.0746093  88.9071119  26.8098642  65.9340559
  89.1993862  26.9145545  64.4523348  94.2819468  29.7045604  55.7795422
  94.1437366  29.8947200  54.8516611  93.9255687  30.4664987  56.2363473
  82.4461594  23.6903699  61.8592434  83.0860973  23.5492459  61.1615397
  81.6139124  23.4038213  61.4831036  94.3088847  31.7722131  60.7906694
  94.7425354  31.6797420  61.6389748  95.0220428  31.7479632  60.1526710
  83.2221898  32.9906130  57.9727427  84.0162496  32.4956450  57.7710001
  82.5113590  32.4623993  57.6095132  88.0416742  35.3724225  62.3239794
  88.0953765  35.9415162  63.0917510  87.1731524  35.5426110  61.9593831
  79.5304661  27.1349212  54.0487179  78.6002249  27.0733667  54.2657141
  79.6262133  26.6125164  53.2523820  79.4490210  23.6604024  56.6365421
  79.7097028  24.5749358  56.5274581  80.2707383  23.1928467  56.7862034
  80.9215136  25.0741782  63.8064245  81.5938189  24.8659144  63.1576894
  80.0944922  24.8763868  63.3669478  95.1704397  31.8145832  63.3239579
  95.3640287  32.7191642  63.5698854  95.0705015  31.3553251  64.1578164
  86.8240708  21.7003723  65.8229906  86.1768623  22.3993672  65.7294383
  87.5941723  22.1339866  66.1906154  90.2319506  31.9652575  68.8980460
  90.0805012  31.7363126  67.9810543  90.2224185  32.9223176  68.9111805
  87.0004842  29.5384487  63.8826726  87.9296902  29.6895647  63.7095693
  86.5795872  29.6268508  63.0275373  85.7993174  33.5635152  61.6525264
  85.6604260  33.1953936  62.5251202  85.0107770  34.0782791  61.4809221
  86.3941326  38.6644248  52.9950800  86.5693081  38.1932292  53.8096423
  85.7074114  39.2910015  53.2232061  87.3498389  32.9416755  59.0414101
  87.0148222  32.9017525  59.9371751  86.8502335  32.2761470  58.5684512
  81.3242633  28.3484385  64.5666683  81.1862431  27.6164623  65.1678222
  82.2347556  28.2593285  64.2850870  90.2857581  30.2872789  49.3151161
  89.6686751  29.5619617  49.2184214  89.8174069  31.0482149  48.9718235
  83.9524934  28.0604344  64.0550362  84.6624552  27.4197536  64.0136981
  83.9094242  28.3117239  64.9776543  91.9411712  34.9971697  66.9756941
  91.8824258  34.3130917  66.3087524  92.3431231  35.7390687  66.5237567
  82.6653868  25.0469562  65.8746002  82.1291225  24.5960300  66.5267598
  82.0770576  25.1815471  65.1316466  80.9602411  41.8133611  59.7690660
  81.1999009  42.4452135  60.4469679  80.1171608  41.4621651  60.0556020
  82.0756127  24.5058213  48.4372465  81.1985593  24.3847014  48.0734712
  82.5513880  23.7144292  48.1851354  91.9429120  32.9611281  65.2070921
  91.0555898  32.6237203  65.3297320  92.5127671  32.2294312  65.4439686
  73.5958267  29.2935373  58.5313972  74.2829307  28.9797103  57.9434988
  73.4406395  30.1976738  58.2581224  78.3992989  24.1825569  62.9598996
  78.3151178  23.5751239  62.2249406  77.5775695  24.6734588  62.9608493
  85.4730273  37.6212734  62.1732164  85.4000444  38.4267705  62.6851469
  85.0307666  37.8204699  61.3480186  85.2620053  36.8584504  55.6834986
  84.4787574  37.4006184  55.7773210  85.9612798  37.3758483  56.0829227
  88.5716703  22.6679133  58.3269191  89.0685402  21.9149095  58.0070261
  87.8003684  22.7043450  57.7612401  96.4246460  28.3719499  59.9687483
  96.4136336  29.2544214  59.5981416  95.5563840  28.0191049  59.7742020
  87.9328956  37.5199568  64.3290323  88.6456929  38.1547032  64.2566224
  87.4418985  37.6163434  63.5130325  89.6546483  31.4250820  55.9007615
  88.7202762  31.5452283  55.7312319  89.8323152  30.5223287  55.6367624
  85.1551671  24.8096516  58.0540876  84.7849459  24.2567556  58.7421781
  85.6510764  24.2054649  57.5015876  93.0419035  27.2668140  56.4357649
  93.5079487  28.0996131  56.3617951  93.4926535  26.8013121  57.1402907
  82.9840870  35.2694011  65.1495894  83.6850330  35.9030494  65.3025288
  82.5135985  35.6108743  64.3891533  91.1095266  33.6111961  53.4343801
  91.3855110  33.4968555  54.3437675  90.2399765  33.2129446  53.3955974
  91.0135697  19.6348727  60.4748550  90.0998777  19.8652953  60.6430757
  91.4428799  19.7187171  61.3262582  90.7842156  27.8238618  62.9748444
  90.1313606  28.0714526  62.3200897  91.1622536  27.0102757  62.6410921
  87.7449330  37.8598312  57.0776614  87.9271724  37.0419968  57.5404367
  88.5682316  38.0766004  56.6401504  88.0791495  36.7866497  54.3391663
  88.6079262  36.2758951  53.7261825  88.3419715  36.4709027  55.2037196
  86.8329729  28.5658430  69.4614481  86.1570366  28.4652559  70.1316856
  87.6557363  28.4097643  69.9250478  78.5808588  34.8030366  62.0826996
  79.1662025  34.0574054  62.2154901  78.3833427  35.1134323  62.9663660
  81.4347243  37.8381613  57.0989439  80.7657619  38.3227741  56.6153479
  81.2960113  38.0850834  58.0132817  73.1726243  27.3735966  60.8031440
  73.2110342  26.8399557  61.5968558  72.6666536  26.8471172  60.1842417
  85.5752512  39.8725357  63.6972097  86.1270820  40.0356978  64.4621182
  85.9158705  40.4629795  63.0252122  80.5517005  22.2200507  64.2993982
  80.6158332  23.0815338  63.8871380  80.4884125  21.6074508  63.5666340
  80.0269278  24.2923639  67.9467016  80.6541316  23.9100717  68.5604540
  79.1697196  24.0737841  68.3122709  90.4263386  34.6986615  69.5520752
  90.9703290  35.3116573  69.0575706  89.8450231  35.2566193  70.0687765
  76.8034820  26.1000068  53.8785371  77.0988261  25.1910747  53.8252425
  75.9022856  26.0787808  53.5566373  88.7120899  37.8207333  60.6835779
  88.5872039  37.0197072  60.1746725  89.3699990  38.3153526  60.1949749
  80.3329067  24.1756065  59.8612920  79.6115653  24.7892033  59.7220393
  81.1222323  24.7113830  59.7829566  90.7755808  35.6216353  62.3115329
  89.8286143  35.5021704  62.2393656  91.1238581  34.7338851  62.3941591
  83.1355381  21.5110492  66.1353571  83.6589783  21.7572788  66.8979881
  82.9167714  22.3430526  65.7156709  78.5322662  23.7814166  54.0024696
  78.2035368  22.9011545  53.8199802  78.8862033  23.7261835  54.8901085
  87.7802241  35.4169069  58.5119682  87.6327203  34.4885776  58.6927252
  88.6055734  35.4389160  58.0276757  81.6464485  24.0687136  54.3700174
  81.9860558  24.5973057  53.6478782  82.0936606  24.4067542  55.1458740
  91.3836363  36.2397628  59.5984554  92.3082910  36.0340489  59.4609006
  91.2151666  35.9914029  60.5073896  84.3407926  22.4524187  63.8203242
  84.0004746  21.6532000  64.2223922  83.6346932  22.7525897  63.2480075
  84.9924398  19.5373499  62.2730565  85.8150467  19.0633977  62.1509455
  85.2362461  20.3163983  62.7729251  83.6332632  22.5661757  52.5693467
  84.3540995  22.9443010  52.0657183  83.0097936  23.2850634  52.6728445
  87.7763755  23.2706906  53.5051799  87.9927370  24.1531544  53.2040627
  87.2957822  22.8793120  52.7757441  82.5162977  26.2292620  60.0822544
  82.3707557  26.5432923  60.9746825  82.0388180  26.8477520  59.5293442
  84.3759359  23.2195168  60.1303433  84.3620928  22.3236261  59.7935731
  85.0931788  23.2265831  60.7641719  86.2285490  23.6532508  62.1756560
  85.9703268  24.5749579  62.1740891  85.6970531  23.2562942  62.8657025
  91.1731679  36.7583295  54.9546646  91.3468556  36.1929717  54.2020498
  91.6660570  37.5584190  54.7726136  76.9908639  28.7697964  63.0210205
  76.4462107  29.5457772  63.1530479  77.8687989  29.1168769  62.8629326
  83.7796255  22.1009548  55.3991003  83.9012167  21.1726194  55.5981891
  83.4898298  22.1148234  54.4869319  86.6487446  19.7864458  58.5357723
  86.6709143  19.8503791  57.5809703  87.0655505  18.9468967  58.7298229
  97.0271070  29.5219718  56.5736946  97.4702216  28.7727043  56.1756069
  96.1497580  29.5129854  56.1910678  92.1606851  36.0750059  52.0543544
  92.8557756  36.6956752  52.2730859  92.5030002  35.2245411  52.3295922
  77.7774661  27.8967860  65.9140362  77.0356397  28.0450496  66.5004992
  77.4567405  28.1576126  65.0507111  94.0598275  33.5249765  53.5830875
  94.5849599  33.8637038  52.8580195  93.9720627  32.5896780  53.3994010
  85.7218323  37.4383839  65.7120752  86.0305450  37.1932985  66.5843451
  86.5193805  37.6430477  65.2239622  85.7438935  39.5921748  57.9426128
  85.3043926  39.0998127  58.6358985  86.4947052  39.0494716  57.7018203
  78.2231274  35.7833289  57.9450756  79.0489294  35.4837061  57.5649400
  77.8725326  35.0140912  58.3940545  83.1912807  35.1359757  60.0148430
  82.5692817  34.4730462  59.7150658  83.8617674  35.1620889  59.3322078
  76.4239879  33.7019616  58.9039690  75.5871788  33.2741790  58.7223691
  76.3963525  33.8952059  59.8410481  83.2637335  23.6141545  69.6080936
  83.3125490  24.4903668  69.2258705  83.8059849  23.0718938  69.0352579
  93.7492181  34.1582669  68.8882073  92.9587724  34.1406807  68.3486572
  93.5125535  34.6970962  69.6431109  93.8690056  31.0075135  66.2014801
  93.9188061  30.8425142  67.1430324  93.7603979  30.1402394  65.8112682
  82.7526314  33.6863681  53.4906890  82.9014435  34.3699145  52.8373563
  83.5592758  33.6668771  54.0056346  91.1593818  26.9906063  67.5174108
  92.0603681  26.8512528  67.2258106  91.2341793  27.1560518  68.4572286
  85.4936623  24.3672918  66.3627294  84.6239933  24.6606484  66.0909883
  85.7296104  24.9513363  67.0834558  95.3708252  33.4272076  66.4456823
  95.0793061  33.7902057  67.2820284  94.7580384  32.7139085  66.2670155
  96.5703935  30.9924956  58.9659393  97.4050826  31.4314760  59.1296954
  96.7063064  30.5163609  58.1467639  93.6195441  28.5504691  64.9136881
  94.0949562  28.7432337  64.1055732  92.6961006  28.6063877  64.6680265
  80.5078947  29.7128858  54.4967959  80.2624989  28.8091188  54.6948169
  80.6774862  29.7146009  53.5547437  88.1975657  20.5852535  63.8792715
  88.7157601  21.3213562  63.5539203  87.8430790  20.8916528  64.7139474
  79.7774595  25.4457216  51.9954121  79.0843840  25.5201571  51.3394157
  79.5326347  24.6817559  52.5175638  88.4488251  17.0052817  59.3993611
  88.7290005  16.3376006  60.0254038  89.2338858  17.1981913  58.8868275
  86.2521720  36.1811811  50.9618638  85.6795687  36.8001998  50.5089110
  86.8254514  36.7311173  51.4958560  92.3197110  25.4270451  63.1465187
  93.2714533  25.5268549  63.1677411  92.1500560  24.6348720  63.6563271
  90.3411489  22.5126034  63.3324587  89.7461421  22.7931047  62.6371076
  90.0561186  23.0019935  64.1041329  89.4718980  36.4648961  52.0927220
  90.4049653  36.3994523  52.2960096  89.3842192  37.3005228  51.6341753
  92.1006996  35.7814832  49.0531168  92.0220628  35.4474695  49.9466926
  92.9216663  36.2736599  49.0522640  94.7985187  28.6476571  62.2607486
  94.7661508  27.7092572  62.4467170  95.4085811  28.7260608  61.5273311
  86.6368518  27.5172624  48.3034690  87.5827623  27.3878832  48.3723108
  86.2582763  26.7787286  48.7804118  94.9479676  25.4387614  62.3065769
  94.4318725  24.6546071  62.1195698  95.8319624  25.1106331  62.4712289
  92.6090403  19.1828630  58.2661582  92.4115224  18.8743718  59.1504914
  93.2190108  19.9090269  58.3959512 100.6161737  29.7092578  61.4013523
 101.3465126  29.4477866  61.9621226 100.0068683  28.9721300  61.4415591
  98.6977034  27.8500440  61.9987974  97.9710198  27.7156405  61.3904466
  98.2824321  28.1577269  62.8044692  86.5207211  31.5690370  69.7635347
  87.4410220  31.7468969  69.9575394  86.4856794  30.6246415  69.6115046
  84.8211435  25.4422600  48.2389575  83.9142891  25.1455713  48.3152289
  85.0987416  25.1452418  47.3723862  75.7389376  26.7628964  58.6888622
  75.4192160  25.9094272  58.3962996  75.1922804  26.9777542  59.4446589
  79.5169283  29.4791405  62.4058128  79.7355293  30.4108512  62.4246162
  79.9295057  29.1199379  63.1912932  86.4373501  19.9859490  54.3933817
  85.6274230  19.6406575  54.7689063  87.1257918  19.6767034  54.9821428
  88.3664049  19.0637537  56.0158113  88.9195088  19.4832990  56.6748137
  88.6034136  18.1373285  56.0581069  84.3897149  25.0524610  71.7960877
  84.2893876  26.0018967  71.7272968  84.1718691  24.7242849  70.9236947
  83.5910220  22.3009535  48.3801555  84.4529384  22.6264434  48.6397372
  83.7760564  21.5141031  47.8674620  75.6077636  30.3831875  60.6581743
  74.9141107  29.9685828  60.1451698  76.3550627  30.4252412  60.0615162
  91.7442857  21.1738062  55.5236778  91.1641526  21.8322866  55.1414830
  91.4778789  20.3515407  55.1124195  90.1946423  20.5743120  57.7258098
  90.6946201  20.6859654  56.9172417  90.8382031  20.2704172  58.3658906
  84.2528419  28.4821749  70.6125939  83.7695500  29.2822109  70.8189828
  84.3389358  28.4929694  69.6593383  77.5214378  30.3150129  58.5347758
  77.4985067  30.4137816  57.5829641  77.8315015  31.1615280  58.8564924
  80.1801756  32.3726284  62.6494373  81.1345010  32.3410226  62.5824304
  79.9814280  31.9116908  63.4644599  80.7701138  30.9427400  65.2165170
  81.5894027  31.4371479  65.2400008  81.0437946  30.0259368  65.1882738
  90.5267735  23.3338152  54.5793126  89.6393590  23.6187803  54.3613321
  90.9421724  23.1731916  53.7320403  93.8782271  23.3584673  58.2947465
  94.6542661  23.8481126  58.5672082  93.1530405  23.7842727  58.7519335
  96.3154829  24.0712292  59.3521406  96.9099320  23.8308028  58.6414714
  96.3881413  23.3519423  59.9794942  78.5351985  37.9145903  59.6664571
  78.4006453  37.1546304  59.1002569  78.1184047  38.6386803  59.1993360
  89.6710948  33.0982827  48.6741146  90.3746798  33.3032829  49.2898802
  88.9473597  33.6659589  48.9390229  90.5008758  28.8492688  54.7943416
  90.4443960  29.3061240  53.9551048  91.0537101  28.0883373  54.6166259
  94.3113564  24.6382420  55.6193536  94.0550498  24.2379056  56.4501743
  93.6866432  25.3526214  55.4943675  98.6225902  27.3778493  58.1264827
  98.0625460  27.4471683  58.8996389  98.0169405  27.2019478  57.4064323
  81.6921111  38.8115220  59.8783013  81.5753495  39.7560653  59.7761704
  80.8713557  38.5088782  60.2668812  91.5797645  33.5365356  50.7239606
  92.4143249  33.1046555  50.5417081  91.4181988  33.3647370  51.6516500
  91.2343538  30.0397469  52.0895945  91.1792341  29.8741741  51.1484389
  90.6089593  30.7473502  52.2458135  76.0236053  25.2765534  65.9157367
  76.6694916  24.7664488  66.4044593  75.8153204  26.0134215  66.4900793
  88.5489445  32.3446381  71.4149508  89.4180604  32.5187034  71.0536143
  88.0696196  33.1640798  71.2925237  84.5439663  19.5405578  51.6681264
  84.5318333  20.4847418  51.8249535  85.4363085  19.3575724  51.3740725
  82.7175625  39.4643482  63.0938942  83.6202872  39.4967093  63.4105437
  82.4912995  38.5343933  63.1085277  84.4729227  38.2174469  59.7549020
  83.5224858  38.2176330  59.6413393  84.7761713  37.4707203  59.2385055
  88.3591783  16.1348355  55.9227200  87.5924178  15.5806842  56.0683883
  88.7702488  16.2070224  56.7841352  80.3633544  22.4233151  70.0132382
  81.2265005  22.0669956  70.2235706  79.7898954  22.0847046  70.7007786
 100.2081921  44.0535007  60.8194783 100.8460331  43.9341755  60.1158123
 100.0902763  45.0015851  60.8782735  97.0171627  44.0062435  60.7556307
  96.6790138  43.8903500  59.8676842  97.8861395  43.6053600  60.7357314
  92.8758443  45.8597912  56.7453198  92.3123308  45.7687849  55.9769486
  92.7610838  45.0397816  57.2255691  97.4991410  45.1597287  66.7142513
  97.4880051  44.7650085  65.8423017  97.6612049  44.4263360  67.3076284
  90.4222874  47.3549103  59.5837419  91.2144166  47.0139928  59.1683718
  90.6619525  47.4644078  60.5039572  98.4558001  49.5268879  52.0567663
  97.8045981  50.1122960  51.6701677  99.2502364  50.0575074  52.1162701
  92.3813628  46.6158017  52.4554798  93.1544504  46.0687004  52.3167673
  92.7339027  47.4802266  52.6669259  94.2198671  47.9434399  65.6621697
  93.9288537  48.8480030  65.5468363  94.8555655  47.9850927  66.3765766
  95.1454878  45.3211247  62.2523057  95.7418450  45.0967270  61.5380019
  95.2029849  44.5795993  62.8548504  94.7179906  42.7750683  50.0873248
  94.9705427  42.2532204  49.3256711  93.7804465  42.6116828  50.1899931
  99.7623189  41.7786461  57.8947991 100.5486278  41.3605884  57.5438408
 100.0261893  42.6832553  58.0629639  99.9333266  47.2159311  52.5936648
  99.2979099  47.2893938  53.3057552  99.6030673  47.8052910  51.9155727
 105.1631616  41.7161694  58.7980969 105.8956788  41.1460911  59.0318799
 104.4070972  41.3283295  59.2387475  94.4376195  44.6778789  52.2897622
  94.3212453  44.0023692  52.9578707  94.5478455  44.1911163  51.4729776
  96.7807736  44.1388936  55.9944312  96.4165943  43.6119557  56.7057233
  97.6374852  43.7487405  55.8210797 102.6857037  35.4283268  63.2575578
 102.3540361  36.2978679  63.0336793 102.0902650  35.1119552  63.9369608
  96.4213223  39.1678836  50.9905660  96.5887625  40.0359072  51.3576131
  96.2310392  39.3306117  50.0666949  99.1788556  47.6295814  62.6571491
  98.8789279  48.5320853  62.5487298  98.8339616  47.3627998  63.5092643
  92.6301038  44.0809611  58.6908195  91.7051534  43.9485825  58.8985887
  92.8785451  44.8603831  59.1878137 102.5785700  40.1478355  60.3368928
 101.6702577  40.0793763  60.0427689 102.5273296  40.6250300  61.1650753
  96.4002444  41.6236493  51.9752327  96.2802069  42.0693544  52.8137807
  95.7055032  41.9721811  51.4165865  89.9909849  43.7242885  59.5251984
  90.1202230  43.9777364  60.4391396  89.3107300  44.3170593  59.2056639
  94.1609336  54.3940135  55.6242458  94.0833366  55.3447960  55.7030939
  93.5570979  54.0486007  56.2817385  96.6526566  41.5668000  68.2803825
  95.8759900  42.1261920  68.2706690  97.2917129  42.0524783  68.8018695
 104.4447346  38.3494793  62.1146802 103.8021727  38.6427326  61.4686596
 103.9402275  38.2347713  62.9199999 102.0987510  42.0957966  52.8032661
 103.0105366  42.3285353  52.6280359 101.5897157  42.6795010  52.2407740
  94.9072938  44.3753454  67.8421792  95.6487622  44.9138498  67.5656616
  94.2009923  45.0019742  67.9993344 100.3828278  46.5182594  66.4393954
 100.7911634  46.0765005  65.6948586  99.6605539  45.9435222  66.6928147
  96.7359348  41.4555201  63.8127511  97.5820543  41.8794614  63.9562160
  96.6757985  40.7988825  64.5066074 100.7057092  47.0783785  60.1946243
 100.0765955  47.2429499  59.4922310 100.3182754  47.4925394  60.9657207
 104.5846324  48.0138223  57.5490606 103.8997362  48.3937124  56.9987640
 104.6690173  48.6233549  58.2822554  99.8858793  39.1159569  65.4708684
  99.6419725  39.8701630  64.9342960 100.1618723  39.4944917  66.3055931
 101.8397256  45.6598182  64.1485950 102.0514151  46.3029941  63.4720331
 101.7927004  44.8260498  63.6807880  99.4423485  38.2716002  61.0522522
  98.5807964  38.5697256  61.3439260  99.4685919  38.4886401  60.1203555
  96.2585054  46.8158193  57.4596328  96.7223400  47.0945896  56.6700950
  95.9941852  45.9141637  57.2769418  93.1509135  46.3629674  60.3976091
  93.7210492  46.7916943  59.7593575  93.7417247  46.0812259  61.0960277
  95.1953940  42.9381345  54.2685893  95.8977984  43.3902389  54.7359819
  94.8634569  42.2965164  54.8965786  93.6434302  41.5293102  68.6437102
  93.0132962  42.2109383  68.8772499  93.5370390  41.4176183  67.6990240
  88.9379274  41.1964898  59.5703026  88.1478328  41.4522426  59.0943137
  89.4290521  42.0113236  59.6755067 102.9543084  48.5370137  62.3208307
 103.7760527  48.1350324  62.0390989 102.9505487  48.4338371  63.2724423
  90.8894020  41.5609477  56.5286503  90.0925183  41.6728171  57.0469999
  90.6619612  41.8996129  55.6627394  96.7199687  48.0854180  64.4769018
  96.7844120  48.5474587  65.3127190  96.0110611  47.4551545  64.6051328
  87.2216977  41.4495388  62.0018017  87.4725016  42.3342398  62.2675593
  87.7576526  41.2699990  61.2293109 111.0449077  44.8808885  58.6693279
 110.2912785  44.3116284  58.5137283 111.1796618  44.8471550  59.6163913
  96.4347705  49.7522288  54.3447998  96.2993380  50.5973823  54.7732846
  96.9757517  49.9541565  53.5813932  92.9215044  35.8313868  71.0062353
  92.5281990  35.2780066  71.6809997  93.7381185  36.1424446  71.3968871
  89.8877102  47.2697726  54.9175923  90.4001623  48.0640976  55.0681488
  90.5399815  46.5724016  54.8509525  91.6971987  50.3863482  56.9998676
  91.8738615  51.3081447  56.8119660  92.4928820  50.0721901  57.4293056
  95.8383005  37.2471747  68.5982610  96.5792719  37.8478900  68.5187072
  96.0700928  36.5049384  68.0400652  90.9824343  42.4328114  66.8760839
  90.8677859  41.5313371  67.1767938  90.1268861  42.6791811  66.5245656
  98.0616181  50.3745854  68.4748340  97.6180035  49.5882233  68.1569245
  98.7233395  50.5625005  67.8092231  92.8203302  51.9041656  63.0009019
  93.3710727  51.7758719  62.2286013  91.9814778  52.2036545  62.6503911
 100.1597419  50.6548654  66.5029741 100.1415895  51.4757535  66.0110011
 101.0817339  50.5302729  66.7279883  96.6170473  48.1692784  67.3453250
  97.1498810  47.4081072  67.1152558  96.0884554  47.8766435  68.0877404
  99.7840168  33.2752850  62.8746891  99.4404438  34.1654491  62.7986002
 100.1519131  33.0854507  62.0116477  87.8526019  45.5986380  55.6935494
  88.6901241  46.0083388  55.4769201  88.0304287  44.6585822  55.6635688
  99.7490451  43.2661461  51.3819327  99.2337075  44.0366065  51.6207714
  99.4767760  42.5926597  52.0052388  97.3337562  38.1111162  56.4404565
  96.4779158  37.7218012  56.2610204  97.7464514  38.1903122  55.5804351
  98.8636709  35.6457505  60.8396125  98.3601504  35.6087640  60.0263930
  99.1567316  36.5550247  60.8992781  95.1079595  35.7296234  59.8462306
  95.9732591  35.5339043  59.4868196  95.1757104  35.5006586  60.7731663
 104.7224725  46.0193815  53.3172500 103.9454168  45.6804975  52.8727662
 105.4016206  46.0246439  52.6427465  99.5376754  41.1388553  53.2079108
  99.2326890  41.4534702  54.0589251 100.4907196  41.2169973  53.2506441
  97.9823186  47.2978776  54.8572062  97.4544548  46.5631536  54.5445299
  97.4810689  48.0753452  54.6112030 102.9616032  45.4927797  59.9739108
 102.3039707  46.1827058  60.0619237 103.7656431  45.8824229  60.3173094
  92.7141914  37.9598442  57.2178673  93.2885666  37.7373624  56.4851866
  93.3012896  38.0287137  57.9707275 101.7721491  43.8472169  58.0243050
 102.2853373  44.4802161  58.5264760 102.4222715  43.2473365  57.6586410
  93.0411501  39.9902903  51.2374559  92.2048813  40.3277590  51.5583833
  92.9016270  39.8551883  50.3001696  95.0164581  34.8339691  55.9453743
  94.3628994  34.5188708  55.3210357  94.9745056  34.2115432  56.6713566
  96.1275786  45.1158986  47.8607035  95.2202848  44.8848240  48.0598184
  96.6246818  44.3196606  48.0481016  99.0343865  53.8256494  50.7803721
  98.3605564  54.1288190  51.3888679  99.4209687  54.6285574  50.4309178
  98.2502322  41.3221625  60.2701390  97.3324883  41.5436572  60.1123078
  98.6662465  41.3967935  59.4113098  99.0337370  42.7213041  55.4004071
  99.7809188  43.2334438  55.0911193  99.3028959  42.3997093  56.2608464
  97.3064020  45.2171581  52.3831025  96.3975239  44.9330614  52.4803495
  97.3359104  45.6370660  51.5234332 102.5383287  48.8278171  56.1522192
 102.0845614  47.9869081  56.2087383 101.9077254  49.4639569  56.4896973
 101.4816207  39.7570157  57.3822860 100.7438963  39.2447543  57.7133102
 101.7342980  39.3170538  56.5706137 100.9816226  50.6654667  57.0872011
 101.2739201  51.2259725  56.3684376 101.4914847  50.9583228  57.8425170
 101.5827834  32.5346409  57.9764629 101.8886711  31.6743772  57.6890544
 102.3080439  33.1264029  57.7763623  87.8752190  42.9377095  56.3646227
  87.6776590  42.3446456  55.6397294  87.3198854  42.6329306  57.0822166
  95.8548914  42.8300202  58.4840820  95.9097524  41.8774038  58.4083297
  95.0440116  42.9859641  58.9682119  97.0040108  46.7580325  49.7219103
  96.5659537  46.0416184  49.2624741  97.7450548  46.9856440  49.1604195
  93.7941274  41.4477262  56.2431199  92.9809139  41.7471432  56.6496391
  94.2900268  41.0532950  56.9605681  95.9449852  51.4435019  58.1765464
  95.9026030  51.6695865  57.2473996  96.8612550  51.2098393  58.3251265
  99.3915485  41.9119086  65.0746093  99.7464873  42.1390559  65.9340559
 100.0387617  42.2437463  64.4523348 105.1213222  45.0337522  55.7795422
 104.9831121  45.2239118  54.8516611 104.7649441  45.7956905  56.2363473
  93.2855348  39.0195617  61.8592434  93.9254728  38.8784376  61.1615397
  92.4532879  38.7330131  61.4831036 105.1482602  47.1014049  60.7906694
 105.5819109  47.0089338  61.6389748 105.8614183  47.0771549  60.1526710
  94.0615652  48.3198048  57.9727427  94.8556251  47.8248368  57.7710001
  93.3507345  47.7915911  57.6095132  98.8810497  50.7016143  62.3239794
  98.9347519  51.2707079  63.0917510  98.0125278  50.8718028  61.9593831
  90.3698416  42.4641129  54.0487179  89.4396004  42.4025585  54.2657141
  90.4655888  41.9417082  53.2523820  90.2883965  38.9895942  56.6365421
  90.5490782  39.9041275  56.5274581  91.1101137  38.5220385  56.7862034
  91.7608890  40.4033699  63.8064245  92.4331944  40.1951061  63.1576894
  90.9338677  40.2055785  63.3669478 106.0098151  47.1437750  63.3239579
 106.2034042  48.0483560  63.5698854 105.9098770  46.6845169  64.1578164
  97.6634462  37.0295640  65.8229906  97.0162377  37.7285590  65.7294383
  98.4335478  37.4631784  66.1906154 101.0713260  47.2944492  68.8980460
 100.9198767  47.0655044  67.9810543 101.0617940  48.2515094  68.9111805
  97.8398597  44.8676405  63.8826726  98.7690657  45.0187565  63.7095693
  97.4189627  44.9560426  63.0275373  96.6386928  48.8927070  61.6525264
  96.4998014  48.5245854  62.5251202  95.8501525  49.4074709  61.4809221
  97.2335080  53.9936166  52.9950800  97.4086836  53.5224209  53.8096423
  96.5467868  54.6201932  53.2232061  98.1892143  48.2708672  59.0414101
  97.8541976  48.2309442  59.9371751  97.6896089  47.6053388  58.5684512
  92.1636387  43.6776302  64.5666683  92.0256185  42.9456541  65.1678222
  93.0741311  43.5885202  64.2850870 101.1251335  45.6164707  49.3151161
 100.5080506  44.8911535  49.2184214 100.6567824  46.3774067  48.9718235
  94.7918688  43.3896262  64.0550362  95.5018307  42.7489454  64.0136981
  94.7487996  43.6409156  64.9776543 102.7805467  50.3263615  66.9756941
 102.7218013  49.6422835  66.3087524 103.1824985  51.0682605  66.5237567
  93.5047622  40.3761479  65.8746002  92.9684979  39.9252218  66.5267598
  92.9164331  40.5107388  65.1316466  91.7996166  57.1425529  59.7690660
  92.0392764  57.7744053  60.4469679  90.9565362  56.7913569  60.0556020
  92.9149881  39.8350131  48.4372465  92.0379347  39.7138932  48.0734712
  93.3907634  39.0436209  48.1851354 102.7822874  48.2903199  65.2070921
 101.8949653  47.9529121  65.3297320 103.3521425  47.5586230  65.4439686
  84.4352021  44.6227291  58.5313972  85.1223061  44.3089021  57.9434988
  84.2800150  45.5268655  58.2581224  89.2386743  39.5117487  62.9598996
  89.1544932  38.9043157  62.2249406  88.4169450  40.0026505  62.9608493
  96.3124027  52.9504651  62.1732164  96.2394199  53.7559623  62.6851469
  95.8701421  53.1496617  61.3480186  96.1013807  52.1876421  55.6834986
  95.3181329  52.7298101  55.7773210  96.8006552  52.7050401  56.0829227
  99.4110457  37.9971051  58.3269191  99.9079157  37.2441013  58.0070261
  98.6397439  38.0335367  57.7612401 107.2640215  43.7011416  59.9687483
 107.2530091  44.5836132  59.5981416 106.3957594  43.3482967  59.7742020
  98.7722711  52.8491485  64.3290323  99.4850683  53.4838950  64.2566224
  98.2812740  52.9455351  63.5130325 100.4940238  46.7542738  55.9007615
  99.5596517  46.8744200  55.7312319 100.6716906  45.8515205  55.6367624
  95.9945426  40.1388434  58.0540876  95.6243213  39.5859474  58.7421781
  96.4904518  39.5346567  57.5015876 103.8812789  42.5960057  56.4357649
 104.3473241  43.4288049  56.3617951 104.3320290  42.1305039  57.1402907
  93.8234625  50.5985929  65.1495894  94.5244084  51.2322412  65.3025288
  93.3529739  50.9400660  64.3891533 101.9489020  48.9403878  53.4343801
 102.2248864  48.8260473  54.3437675 101.0793519  48.5421363  53.3955974
 101.8529452  34.9640644  60.4748550 100.9392532  35.1944871  60.6430757
 102.2822553  35.0479088  61.3262582 101.6235910  43.1530536  62.9748444
 100.9707361  43.4006444  62.3200897 102.0016290  42.3394674  62.6410921
  98.5843084  53.1890229  57.0776614  98.7665479  52.3711885  57.5404367
  99.4076070  53.4057922  56.6401504  98.9185250  52.1158414  54.3391663
  99.4473016  51.6050869  53.7261825  99.1813469  51.8000945  55.2037196
  97.6723483  43.8950347  69.4614481  96.9964121  43.7944477  70.1316856
  98.4951117  43.7389561  69.9250478  89.4202343  50.1322284  62.0826996
  90.0055779  49.3865972  62.2154901  89.2227181  50.4426240  62.9663660
  92.2740998  53.1673531  57.0989439  91.6051373  53.6519659  56.6153479
  92.1353867  53.4142752  58.0132817  84.0119997  42.7027884  60.8031440
  84.0504097  42.1691475  61.5968558  83.5060290  42.1763089  60.1842417
  96.4146266  55.2017275  63.6972097  96.9664574  55.3648896  64.4621182
  96.7552460  55.7921712  63.0252122  91.3910760  37.5492424  64.2993982
  91.4552086  38.4107255  63.8871380  91.3277880  36.9366426  63.5666340
  90.8663032  39.6215557  67.9467016  91.4935071  39.2392634  68.5604540
  90.0090951  39.4029759  68.3122709 101.2657141  50.0278532  69.5520752
 101.8097045  50.6408490  69.0575706 100.6843986  50.5858111  70.0687765
  87.6428575  41.4291986  53.8785371  87.9382016  40.5202665  53.8252425
  86.7416611  41.4079726  53.5566373  99.5514654  53.1499250  60.6835779
  99.4265793  52.3488990  60.1746725 100.2093745  53.6445444  60.1949749
  91.1722822  39.5047983  59.8612920  90.4509408  40.1183950  59.7220393
  91.9616078  40.0405748  59.7829566 101.6149562  50.9508270  62.3115329
 100.6679898  50.8313621  62.2393656 101.9632335  50.0630768  62.3941591
  93.9749135  36.8402409  66.1353571  94.4983537  37.0864706  66.8979881
  93.7561469  37.6722444  65.7156709  89.3716416  39.1106084  54.0024696
  89.0429123  38.2303463  53.8199802  89.7255787  39.0553752  54.8901085
  98.6195995  50.7460987  58.5119682  98.4720958  49.8177694  58.6927252
  99.4449489  50.7681077  58.0276757  92.4858240  39.3979054  54.3700174
  92.8254312  39.9264975  53.6478782  92.9330360  39.7359460  55.1458740
 102.2230117  51.5689545  59.5984554 103.1476665  51.3632407  59.4609006
 102.0545421  51.3205946  60.5073896  95.1801680  37.7816104  63.8203242
  94.8398501  36.9823917  64.2223922  94.4740687  38.0817815  63.2480075
  95.8318152  34.8665417  62.2730565  96.6544222  34.3925895  62.1509455
  96.0756216  35.6455900  62.7729251  94.4726387  37.8953675  52.5693467
  95.1934749  38.2734928  52.0657183  93.8491691  38.6142552  52.6728445
  98.6157510  38.5998824  53.5051799  98.8321124  39.4823462  53.2040627
  98.1351577  38.2085038  52.7757441  93.3556731  41.5584537  60.0822544
  93.2101312  41.8724840  60.9746825  92.8781935  42.1769438  59.5293442
  95.2153114  38.5487085  60.1303433  95.2014683  37.6528179  59.7935731
  95.9325542  38.5557749  60.7641719  97.0679245  38.9824426  62.1756560
  96.8097022  39.9041496  62.1740891  96.5364285  38.5854860  62.8657025
 102.0125433  52.0875213  54.9546646 102.1862311  51.5221635  54.2020498
 102.5054325  52.8876108  54.7726136  87.8302393  44.0989882  63.0210205
  87.2855861  44.8749690  63.1530479  88.7081743  44.4460686  62.8629326
  94.6190010  37.4301466  55.3991003  94.7405921  36.5018112  55.5981891
  94.3292052  37.4440152  54.4869319  97.4881200  35.1156376  58.5357723
  97.5102897  35.1795709  57.5809703  97.9049259  34.2760885  58.7298229
 107.8664825  44.8511636  56.5736946 108.3095971  44.1018961  56.1756069
 106.9891335  44.8421772  56.1910678 103.0000606  51.4041977  52.0543544
 103.6951510  52.0248670  52.2730859 103.3423756  50.5537328  52.3295922
  88.6168415  43.2259778  65.9140362  87.8750151  43.3742413  66.5004992
  88.2961159  43.4868044  65.0507111 104.8992029  48.8541683  53.5830875
 105.4243353  49.1928955  52.8580195 104.8114382  47.9188698  53.3994010
  96.5612078  52.7675756  65.7120752  96.8699204  52.5224903  66.5843451
  97.3587560  52.9722395  65.2239622  96.5832690  54.9213666  57.9426128
  96.1437680  54.4290045  58.6358985  97.3340807  54.3786634  57.7018203
  89.0625029  51.1125207  57.9450756  89.8883049  50.8128979  57.5649400
  88.7119081  50.3432829  58.3940545  94.0306562  50.4651675  60.0148430
  93.4086571  49.8022380  59.7150658  94.7011429  50.4912807  59.3322078
  87.2633634  49.0311533  58.9039690  86.4265542  48.6033708  58.7223691
  87.2357279  49.2243977  59.8410481  94.1031089  38.9433463  69.6080936
  94.1519245  39.8195586  69.2258705  94.6453604  38.4010856  69.0352579
 104.5885935  49.4874586  68.8882073 103.7981479  49.4698725  68.3486572
 104.3519290  50.0262880  69.6431109 104.7083810  46.3367053  66.2014801
 104.7581815  46.1717060  67.1430324 104.5997733  45.4694312  65.8112682
  93.5920069  49.0155598  53.4906890  93.7408189  49.6991063  52.8373563
  94.3986512  48.9960688  54.0056346 101.9987573  42.3197981  67.5174108
 102.8997435  42.1804446  67.2258106 102.0735547  42.4852435  68.4572286
  96.3330378  39.6964835  66.3627294  95.4633687  39.9898401  66.0909883
  96.5689858  40.2805280  67.0834558 106.2102007  48.7563994  66.4456823
 105.9186815  49.1193975  67.2820284 105.5974138  48.0431002  66.2670155
 107.4097689  46.3216874  58.9659393 108.2444581  46.7606678  59.1296954
 107.5456818  45.8455527  58.1467639 104.4589195  43.8796609  64.9136881
 104.9343317  44.0724255  64.1055732 103.5354761  43.9355795  64.6680265
  91.3472702  45.0420776  54.4967959  91.1018744  44.1383106  54.6948169
  91.5168616  45.0437926  53.5547437  99.0369412  35.9144452  63.8792715
  99.5551356  36.6505479  63.5539203  98.6824544  36.2208446  64.7139474
  90.6168349  40.7749134  51.9954121  89.9237594  40.8493489  51.3394157
  90.3720101  40.0109477  52.5175638  99.2882006  32.3344735  59.3993611
  99.5683760  31.6667924  60.0254038 100.0732613  32.5273830  58.8868275
  97.0915474  51.5103729  50.9618638  96.5189441  52.1293916  50.5089110
  97.6648268  52.0603090  51.4958560 103.1590864  40.7562369  63.1465187
 104.1108287  40.8560467  63.1677411 102.9894315  39.9640637  63.6563271
 101.1805244  37.8417952  63.3324587 100.5855176  38.1222965  62.6371076
 100.8954940  38.3311853  64.1041329 100.3112734  51.7940879  52.0927220
 101.2443407  51.7286441  52.2960096 100.2235947  52.6297146  51.6341753
 102.9400751  51.1106749  49.0531168 102.8614382  50.7766613  49.9466926
 103.7610418  51.6028517  49.0522640 105.6378942  43.9768489  62.2607486
 105.6055262  43.0384489  62.4467170 106.2479566  44.0552525  61.5273311
  97.4762273  42.8464542  48.3034690  98.4221378  42.7170750  48.3723108
  97.0976518  42.1079203  48.7804118 105.7873430  40.7679532  62.3065769
 105.2712479  39.9837989  62.1195698 106.6713379  40.4398249  62.4712289
 103.4484157  34.5120548  58.2661582 103.2508979  34.2035636  59.1504914
 104.0583863  35.2382186  58.3959512 111.4555492  45.0384495  61.4013523
 112.1858880  44.7769784  61.9621226 110.8462437  44.3013217  61.4415591
 109.5370789  43.1792358  61.9987974 108.8103953  43.0448323  61.3904466
 109.1218076  43.4869187  62.8044692  97.3600965  46.8982288  69.7635347
  98.2803975  47.0760887  69.9575394  97.3250548  45.9538333  69.6115046
  95.6605190  40.7714518  48.2389575  94.7536645  40.4747631  48.3152289
  95.9381171  40.4744336  47.3723862  86.5783130  42.0920881  58.6888622
  86.2585915  41.2386190  58.3962996  86.0316559  42.3069459  59.4446589
  90.3563038  44.8083322  62.4058128  90.5749048  45.7400430  62.4246162
  90.7688812  44.4491297  63.1912932  97.2767256  35.3151408  54.3933817
  96.4667984  34.9698493  54.7689063  97.9651673  35.0058951  54.9821428
  99.2057804  34.3929454  56.0158113  99.7588843  34.8124908  56.6748137
  99.4427890  33.4665203  56.0581069  95.2290903  40.3816528  71.7960877
  95.1287630  41.3310885  71.7272968  95.0112445  40.0534767  70.9236947
  94.4303975  37.6301453  48.3801555  95.2923139  37.9556351  48.6397372
  94.6154319  36.8432949  47.8674620  86.4471390  45.7123793  60.6581743
  85.7534862  45.2977746  60.1451698  87.1944381  45.7544329  60.0615162
 102.5836611  36.5029980  55.5236778 102.0035280  37.1614784  55.1414830
 102.3172544  35.6807324  55.1124195 101.0340177  35.9035037  57.7258098
 101.5339956  36.0151572  56.9172417 101.6775785  35.5996090  58.3658906
  95.0922173  43.8113667  70.6125939  94.6089255  44.6114027  70.8189828
  95.1783112  43.8221612  69.6593383  88.3608133  45.6442047  58.5347758
  88.3378821  45.7429734  57.5829641  88.6708769  46.4907197  58.8564924
  91.0195511  47.7018202  62.6494373  91.9738764  47.6702144  62.5824304
  90.8208034  47.2408825  63.4644599  91.6094893  46.2719318  65.2165170
  92.4287782  46.7663396  65.2400008  91.8831701  45.3551286  65.1882738
 101.3661489  38.6630070  54.5793126 100.4787344  38.9479721  54.3613321
 101.7815478  38.5023833  53.7320403 104.7176025  38.6876591  58.2947465
 105.4936415  39.1773043  58.5672082 103.9924159  39.1134645  58.7519335
 107.1548584  39.4004210  59.3521406 107.7493075  39.1599946  58.6414714
 107.2275168  38.6811341  59.9794942  89.3745740  53.2437821  59.6664571
  89.2400207  52.4838222  59.1002569  88.9577802  53.9678721  59.1993360
 100.5104703  48.4274745  48.6741146 101.2140553  48.6324747  49.2898802
  99.7867351  48.9951507  48.9390229 101.3402513  44.1784606  54.7943416
 101.2837714  44.6353157  53.9551048 101.8930855  43.4175291  54.6166259
 105.1507319  39.9674338  55.6193536 104.8944253  39.5670973  56.4501743
 104.5260187  40.6818132  55.4943675 109.4619657  42.7070411  58.1264827
 108.9019215  42.7763600  58.8996389 108.8563160  42.5311396  57.4064323
  92.5314865  54.1407138  59.8783013  92.4147250  55.0852571  59.7761704
  91.7107312  53.8380700  60.2668812 102.4191400  48.8657274  50.7239606
 103.2537004  48.4338472  50.5417081 102.2575743  48.6939288  51.6516500
 102.0737292  45.3689387  52.0895945 102.0186096  45.2033659  51.1484389
 101.4483347  46.0765420  52.2458135  86.8629807  40.6057452  65.9157367
  87.5088671  40.0956406  66.4044593  86.6546958  41.3426133  66.4900793
  99.3883199  47.6738299  71.4149508 100.2574359  47.8478951  71.0536143
  98.9089951  48.4932716  71.2925237  95.3833418  34.8697496  51.6681264
  95.3712087  35.8139336  51.8249535  96.2756839  34.6867642  51.3740725
  93.5569380  54.7935400  63.0938942  94.4596626  54.8259010  63.4105437
  93.3306750  53.8635851  63.1085277  95.3122982  53.5466387  59.7549020
  94.3618613  53.5468248  59.6413393  95.6155468  52.7999121  59.2385055
  99.1985537  31.4640273  55.9227200  98.4317933  30.9098759  56.0683883
  99.6096242  31.5362142  56.7841352  91.2027298  37.7525069  70.0132382
  92.0658760  37.3961873  70.2235706  90.6292709  37.4138963  70.7007786
 111.0475675  59.3826925  60.8194783 111.6854085  59.2633672  60.1158123
 110.9296518  60.3307769  60.8782735 107.8565381  59.3354353  60.7556307
 107.5183893  59.2195418  59.8676842 108.7255150  58.9345518  60.7357314
 103.7152197  61.1889829  56.7453198 103.1517062  61.0979766  55.9769486
 103.6004592  60.3689734  57.2255691 108.3385164  60.4889205  66.7142513
 108.3273805  60.0942003  65.8423017 108.5005804  59.7555277  67.3076284
 101.2616629  62.6841021  59.5837419 102.0537921  62.3431846  59.1683718
 101.5013279  62.7935996  60.5039572 109.2951756  64.8560797  52.0567663
 108.6439736  65.4414878  51.6701677 110.0896119  65.3866992  52.1162701
 103.2207383  61.9449934  52.4554798 103.9938259  61.3978921  52.3167673
 103.5732782  62.8094184  52.6669259 105.0592425  63.2726317  65.6621697
 104.7682291  64.1771947  65.5468363 105.6949410  63.3142844  66.3765766
 105.9848632  60.6503165  62.2523057 106.5812205  60.4259188  61.5380019
 106.0423604  59.9087911  62.8548504 105.5573661  58.1042600  50.0873248
 105.8099181  57.5824122  49.3256711 104.6198220  57.9408746  50.1899931
 110.6016944  57.1078379  57.8947991 111.3880033  56.6897802  57.5438408
 110.8655648  58.0124471  58.0629639 110.7727021  62.5451229  52.5936648
 110.1372854  62.6185856  53.3057552 110.4424427  63.1344828  51.9155727
 116.0025371  57.0453612  58.7980969 116.7350543  56.4752829  59.0318799
 115.2464726  56.6575212  59.2387475 105.2769949  60.0070706  52.2897622
 105.1606208  59.3315610  52.9578707 105.3872209  59.5203080  51.4729776
 107.6201490  59.4680854  55.9944312 107.2559698  58.9411474  56.7057233
 108.4768606  59.0779323  55.8210797 113.5250791  50.7575186  63.2575578
 113.1934116  51.6270597  63.0336793 112.9296404  50.4411470  63.9369608
 107.2606977  54.4970753  50.9905660 107.4281380  55.3650990  51.3576131
 107.0704146  54.6598035  50.0666949 110.0182311  62.9587732  62.6571491
 109.7183034  63.8612771  62.5487298 109.6733370  62.6919915  63.5092643
 103.4694792  59.4101529  58.6908195 102.5445289  59.2777743  58.8985887
 103.7179205  60.1895748  59.1878137 113.4179454  55.4770272  60.3368928
 112.5096332  55.4085681  60.0427689 113.3667050  55.9542217  61.1650753
 107.2396198  56.9528411  51.9752327 107.1195823  57.3985461  52.8137807
 106.5448787  57.3013728  51.4165865 100.8303603  59.0534802  59.5251984
 100.9595984  59.3069281  60.4391396 100.1501054  59.6462510  59.2056639
 105.0003090  69.7232052  55.6242458 104.9227120  70.6739878  55.7030939
 104.3964734  69.3777925  56.2817385 107.4920320  56.8959918  68.2803825
 106.7153654  57.4553838  68.2706690 108.1310883  57.3816701  68.8018695
 115.2841101  53.6786711  62.1146802 114.6415481  53.9719244  61.4686596
 114.7796029  53.5639631  62.9199999 112.9381264  57.4249884  52.8032661
 113.8499121  57.6577271  52.6280359 112.4290911  58.0086928  52.2407740
 105.7466692  59.7045371  67.8421792 106.4881377  60.2430415  67.5656616
 105.0403678  60.3311660  67.9993344 111.2222032  61.8474512  66.4393954
 111.6305388  61.4056922  65.6948586 110.4999294  61.2727139  66.6928147
 107.5753102  56.7847118  63.8127511 108.4214297  57.2086532  63.9562160
 107.5151740  56.1280743  64.5066074 111.5450847  62.4075702  60.1946243
 110.9159709  62.5721416  59.4922310 111.1576509  62.8217312  60.9657207
 115.4240079  63.3430140  57.5490606 114.7391117  63.7229042  56.9987640
 115.5083928  63.9525467  58.2822554 110.7252547  54.4451487  65.4708684
 110.4813479  55.1993547  64.9342960 111.0012478  54.8236834  66.3055931
 112.6791010  60.9890099  64.1485950 112.8907905  61.6321859  63.4720331
 112.6320758  60.1552416  63.6807880 110.2817239  53.6007920  61.0522522
 109.4201718  53.8989173  61.3439260 110.3079674  53.8178319  60.1203555
 107.0978809  62.1450110  57.4596328 107.5617154  62.4237813  56.6700950
 106.8335607  61.2433555  57.2769418 103.9902890  61.6921592  60.3976091
 104.5604247  62.1208860  59.7593575 104.5811002  61.4104177  61.0960277
 106.0347695  58.2673263  54.2685893 106.7371738  58.7194306  54.7359819
 105.7028323  57.6257082  54.8965786 104.4828056  56.8585019  68.6437102
 103.8526717  57.5401300  68.8772499 104.3764144  56.7468101  67.6990240
  99.7773029  56.5256815  59.5703026  98.9872083  56.7814344  59.0943137
 100.2684276  57.3405153  59.6755067 113.7936838  63.8662055  62.3208307
 114.6154282  63.4642242  62.0390989 113.7899241  63.7630289  63.2724423
 101.7287774  56.8901395  56.5286503 100.9318937  57.0020089  57.0469999
 101.5013366  57.2288047  55.6627394 107.5593442  63.4146098  64.4769018
 107.6237874  63.8766505  65.3127190 106.8504365  62.7843463  64.6051328
  98.0610732  56.7787306  62.0018017  98.3118770  57.6634316  62.2675593
  98.5970280  56.5991907  61.2293109 107.2741459  65.0814205  54.3447998
 107.1387134  65.9265741  54.7732846 107.8151272  65.2833483  53.5813932
 103.7608799  51.1605785  71.0062353 103.3675744  50.6071984  71.6809997
 104.5774939  51.4716364  71.3968871 100.7270857  62.5989643  54.9175923
 101.2395377  63.3932894  55.0681488 101.3793569  61.9015934  54.8509525
 102.5365741  65.7155400  56.9998676 102.7132370  66.6373364  56.8119660
 103.3322575  65.4013819  57.4293056 106.6776760  52.5763664  68.5982610
 107.4186473  53.1770817  68.5187072 106.9094683  51.8341302  68.0400652
 101.8218098  57.7620032  66.8760839 101.7071613  56.8605289  67.1767938
 100.9662616  58.0083728  66.5245656 108.9009936  65.7037772  68.4748340
 108.4573790  64.9174150  68.1569245 109.5627149  65.8916922  67.8092231
 103.6597057  67.2333574  63.0009019 104.2104482  67.1050637  62.2286013
 102.8208533  67.5328463  62.6503911 110.9991174  65.9840572  66.5029741
 110.9809649  66.8049453  66.0110011 111.9211094  65.8594647  66.7279883
 107.4564228  63.4984701  67.3453250 107.9892565  62.7372990  67.1152558
 106.9278309  63.2058353  68.0877404 110.6233923  48.6044767  62.8746891
 110.2798192  49.4946409  62.7986002 110.9912885  48.4146425  62.0116477
  98.6919773  60.9278298  55.6935494  99.5294995  61.3375306  55.4769201
  98.8698041  59.9877740  55.6635688 110.5884206  58.5953378  51.3819327
 110.0730829  59.3657983  51.6207714 110.3161514  57.9218515  52.0052388
 108.1731317  53.4403079  56.4404565 107.3172913  53.0509930  56.2610204
 108.5858268  53.5195040  55.5804351 109.7030463  50.9749422  60.8396125
 109.1995259  50.9379558  60.0263930 109.9961070  51.8842165  60.8992781
 105.9473349  51.0588152  59.8462306 106.8126346  50.8630961  59.4868196
 106.0150858  50.8298504  60.7731663 115.5618480  61.3485733  53.3172500
 114.7847922  61.0096893  52.8727662 116.2409961  61.3538356  52.6427465
 110.3770509  56.4680470  53.2079108 110.0720644  56.7826620  54.0589251
 111.3300951  56.5461890  53.2506441 108.8216941  62.6270694  54.8572062
 108.2938302  61.8923453  54.5445299 108.3204443  63.4045370  54.6112030
 113.8009787  60.8219714  59.9739108 113.1433461  61.5118976  60.0619237
 114.6050186  61.2116146  60.3173094 103.5535668  53.2890360  57.2178673
 104.1279420  53.0665542  56.4851866 104.1406651  53.3579055  57.9707275
 112.6115245  59.1764087  58.0243050 113.1247127  59.8094079  58.5264760
 113.2616469  58.5765282  57.6586410 103.8805255  55.3194821  51.2374559
 103.0442568  55.6569508  51.5583833 103.7410025  55.1843801  50.3001696
 105.8558336  50.1631609  55.9453743 105.2022748  49.8480626  55.3210357
 105.8138810  49.5407349  56.6713566 106.9669541  60.4450904  47.8607035
 106.0596602  60.2140158  48.0598184 107.4640573  59.6488523  48.0481016
 109.8737620  69.1548411  50.7803721 109.1999318  69.4580108  51.3888679
 110.2603442  69.9577492  50.4309178 109.0896076  56.6513543  60.2701390
 108.1718638  56.8728490  60.1123078 109.5056220  56.7259853  59.4113098
 109.8731124  58.0504958  55.4004071 110.6202943  58.5626355  55.0911193
 110.1422714  57.7289011  56.2608464 108.1457774  60.5463499  52.3831025
 107.2368993  60.2622532  52.4803495 108.1752858  60.9662578  51.5234332
 113.3777042  64.1570088  56.1522192 112.9239369  63.3160998  56.2087383
 112.7471008  64.7931487  56.4896973 112.3209961  55.0862074  57.3822860
 111.5832718  54.5739461  57.7133102 112.5736735  54.6462456  56.5706137
 111.8209981  65.9946585  57.0872011 112.1132955  66.5551642  56.3684376
 112.3308601  66.2875146  57.8425170 112.4221588  47.8638326  57.9764629
 112.7280465  47.0035690  57.6890544 113.1474193  48.4555947  57.7763623
  98.7145945  58.2669013  56.3646227  98.5170344  57.6738374  55.6397294
  98.1592609  57.9621223  57.0822166 106.6942668  58.1592120  58.4840820
 106.7491278  57.2065956  58.4083297 105.8833870  58.3151559  58.9682119
 107.8433862  62.0872243  49.7219103 107.4053292  61.3708102  49.2624741
 108.5844303  62.3148357  49.1604195 104.6335028  56.7769179  56.2431199
 103.8202894  57.0763350  56.6496391 105.1294022  56.3824868  56.9605681
 106.7843606  66.7726936  58.1765464 106.7419785  66.9987783  57.2473996
 107.7006305  66.5390311  58.3251265 110.2309240  57.2411004  65.0746093
 110.5858628  57.4682477  65.9340559 110.8781371  57.5729381  64.4523348
 115.9606977  60.3629440  55.7795422 115.8224875  60.5531036  54.8516611
 115.6043196  61.1248822  56.2363473 104.1249103  54.3487535  61.8592434
 104.7648482  54.2076294  61.1615397 103.2926633  54.0622048  61.4831036
 115.9876356  62.4305967  60.7906694 116.4212863  62.3381256  61.6389748
 116.7007937  62.4063467  60.1526710 104.9009407  63.6489965  57.9727427
 105.6950005  63.1540285  57.7710001 104.1901099  63.1207828  57.6095132
 109.7204251  66.0308061  62.3239794 109.7741274  66.5998997  63.0917510
 108.8519033  66.2009946  61.9593831 101.2092170  57.7933047  54.0487179
 100.2789758  57.7317502  54.2657141 101.3049642  57.2709000  53.2523820
 101.1277719  54.3187860  56.6365421 101.3884537  55.2333193  56.5274581
 101.9494892  53.8512302  56.7862034 102.6002645  55.7325617  63.8064245
 103.2725698  55.5242979  63.1576894 101.7732431  55.5347703  63.3669478
 116.8491906  62.4729667  63.3239579 117.0427796  63.3775478  63.5698854
 116.7492524  62.0137086  64.1578164 108.5028217  52.3587558  65.8229906
 107.8556132  53.0577508  65.7294383 109.2729232  52.7923702  66.1906154
 111.9107015  62.6236410  68.8980460 111.7592521  62.3946962  67.9810543
 111.9011694  63.5807011  68.9111805 108.6792351  60.1968323  63.8826726
 109.6084411  60.3479482  63.7095693 108.2583381  60.2852344  63.0275373
 107.4780683  64.2218987  61.6525264 107.3391769  63.8537772  62.5251202
 106.6895279  64.7366627  61.4809221 108.0728835  69.3228084  52.9950800
 108.2480590  68.8516127  53.8096423 107.3861623  69.9493850  53.2232061
 109.0285898  63.6000590  59.0414101 108.6935731  63.5601360  59.9371751
 108.5289844  62.9345306  58.5684512 103.0030142  59.0068220  64.5666683
 102.8649940  58.2748459  65.1678222 103.9135065  58.9177120  64.2850870
 111.9645090  60.9456624  49.3151161 111.3474260  60.2203452  49.2184214
 111.4961578  61.7065985  48.9718235 105.6312443  58.7188179  64.0550362
 106.3412061  58.0781371  64.0136981 105.5881751  58.9701074  64.9776543
 113.6199221  65.6555533  66.9756941 113.5611767  64.9714753  66.3087524
 114.0218740  66.3974523  66.5237567 104.3441377  55.7053397  65.8746002
 103.8078734  55.2544136  66.5267598 103.7558085  55.8399306  65.1316466
 102.6389920  72.4717446  59.7690660 102.8786518  73.1035971  60.4469679
 101.7959117  72.1205486  60.0556020 103.7543636  55.1642049  48.4372465
 102.8773102  55.0430849  48.0734712 104.2301389  54.3728127  48.1851354
 113.6216629  63.6195117  65.2070921 112.7343407  63.2821038  65.3297320
 114.1915180  62.8878148  65.4439686  95.2745776  59.9519208  58.5313972
  95.9616815  59.6380938  57.9434988  95.1193904  60.8560573  58.2581224
 100.0780498  54.8409405  62.9598996  99.9938687  54.2335074  62.2249406
  99.2563204  55.3318423  62.9608493 107.1517782  68.2796569  62.1732164
 107.0787953  69.0851540  62.6851469 106.7095175  68.4788535  61.3480186
 106.9407562  67.5168339  55.6834986 106.1575083  68.0590019  55.7773210
 107.6400307  68.0342319  56.0829227 110.2504212  53.3262968  58.3269191
 110.7472911  52.5732931  58.0070261 109.4791193  53.3627285  57.7612401
 118.1033969  59.0303334  59.9687483 118.0923845  59.9128049  59.5981416
 117.2351349  58.6774885  59.7742020 109.6116465  68.1783403  64.3290323
 110.3244438  68.8130868  64.2566224 109.1206494  68.2747269  63.5130325
 111.3333992  62.0834656  55.9007615 110.3990271  62.2036118  55.7312319
 111.5110661  61.1807122  55.6367624 106.8339180  55.4680351  58.0540876
 106.4636968  54.9151392  58.7421781 107.3298273  54.8638485  57.5015876
 114.7206544  57.9251975  56.4357649 115.1866996  58.7579966  56.3617951
 115.1714044  57.4596956  57.1402907 104.6628379  65.9277846  65.1495894
 105.3637838  66.5614329  65.3025288 104.1923494  66.2692578  64.3891533
 112.7882775  64.2695796  53.4343801 113.0642619  64.1552391  54.3437675
 111.9187274  63.8713281  53.3955974 112.6923206  50.2932562  60.4748550
 111.7786286  50.5236789  60.6430757 113.1216308  50.3771006  61.3262582
 112.4629665  58.4822454  62.9748444 111.8101115  58.7298361  62.3200897
 112.8410045  57.6686592  62.6410921 109.4236839  68.5182147  57.0776614
 109.6059233  67.7003803  57.5404367 110.2469825  68.7349839  56.6401504
 109.7579004  67.4450332  54.3391663 110.2866771  66.9342787  53.7261825
 110.0207224  67.1292862  55.2037196 108.5117238  59.2242265  69.4614481
 107.8357875  59.1236394  70.1316856 109.3344872  59.0681479  69.9250478
 100.2596097  65.4614201  62.0826996 100.8449534  64.7157889  62.2154901
 100.0620936  65.7718158  62.9663660 103.1134752  68.4965449  57.0989439
 102.4445128  68.9811576  56.6153479 102.9747622  68.7434669  58.0132817
  94.8513752  58.0319802  60.8031440  94.8897851  57.4983392  61.5968558
  94.3454045  57.5055007  60.1842417 107.2540021  70.5309192  63.6972097
 107.8058329  70.6940814  64.4621182 107.5946214  71.1213630  63.0252122
 102.2304514  52.8784342  64.2993982 102.2945841  53.7399173  63.8871380
 102.1671634  52.2658344  63.5666340 101.7056787  54.9507475  67.9467016
 102.3328825  54.5684552  68.5604540 100.8484705  54.7321677  68.3122709
 112.1050895  65.3570450  69.5520752 112.6490799  65.9700408  69.0575706
 111.5237740  65.9150028  70.0687765  98.4822329  56.7583904  53.8785371
  98.7775770  55.8494582  53.8252425  97.5810365  56.7371643  53.5566373
 110.3908408  68.4791168  60.6835779 110.2659548  67.6780908  60.1746725
 111.0487499  68.9737361  60.1949749 102.0116576  54.8339900  59.8612920
 101.2903162  55.4475868  59.7220393 102.8009832  55.3697665  59.7829566
 112.4543317  66.2800188  62.3115329 111.5073652  66.1605539  62.2393656
 112.8026090  65.3922686  62.3941591 104.8142890  52.1694327  66.1353571
 105.3377292  52.4156623  66.8979881 104.5955223  53.0014362  65.7156709
 100.2110171  54.4398001  54.0024696  99.8822877  53.5595380  53.8199802
 100.5649542  54.3845670  54.8901085 109.4589750  66.0752904  58.5119682
 109.3114712  65.1469612  58.6927252 110.2843243  66.0972995  58.0276757
 103.3251994  54.7270971  54.3700174 103.6648067  55.2556893  53.6478782
 103.7724115  55.0651377  55.1458740 113.0623872  66.8981463  59.5984554
 113.9870419  66.6924324  59.4609006 112.8939175  66.6497864  60.5073896
 106.0195435  53.1108022  63.8203242 105.6792255  52.3115835  64.2223922
 105.3134441  53.4109733  63.2480075 106.6711907  50.1957334  62.2730565
 107.4937976  49.7217813  62.1509455 106.9149970  50.9747818  62.7729251
 105.3120141  53.2245593  52.5693467 106.0328504  53.6026846  52.0657183
 104.6885445  53.9434470  52.6728445 109.4551264  53.9290742  53.5051799
 109.6714879  54.8115380  53.2040627 108.9745331  53.5376955  52.7757441
 104.1950486  56.8876455  60.0822544 104.0495066  57.2016758  60.9746825
 103.7175689  57.5061355  59.5293442 106.0546868  53.8779003  60.1303433
 106.0408437  52.9820096  59.7935731 106.7719297  53.8849667  60.7641719
 107.9072999  54.3116343  62.1756560 107.6490777  55.2333414  62.1740891
 107.3758039  53.9146778  62.8657025 112.8519188  67.4167130  54.9546646
 113.0256065  66.8513553  54.2020498 113.3448079  68.2168025  54.7726136
  98.6696148  59.4281799  63.0210205  98.1249616  60.2041607  63.1530479
  99.5475498  59.7752604  62.8629326 105.4583764  52.7593383  55.3991003
 105.5799676  51.8310029  55.5981891 105.1685807  52.7732069  54.4869319
 108.3274955  50.4448294  58.5357723 108.3496652  50.5087627  57.5809703
 108.7443014  49.6052802  58.7298229 113.8394360  66.7333895  52.0543544
 114.5345265  67.3540587  52.2730859 114.1817511  65.8829246  52.3295922
  99.4562170  58.5551696  65.9140362  98.7143906  58.7034331  66.5004992
  99.1354914  58.8159961  65.0507111 115.7385783  64.1833600  53.5830875
 116.2637108  64.5220873  52.8580195 115.6508136  63.2480616  53.3994010
 107.4005832  68.0967674  65.7120752 107.7092959  67.8516821  66.5843451
 108.1981314  68.3014312  65.2239622 107.4226444  70.2505584  57.9426128
 106.9831435  69.7581962  58.6358985 108.1734561  69.7078551  57.7018203
  99.9018783  66.4417124  57.9450756 100.7276803  66.1420896  57.5649400
  99.5512835  65.6724747  58.3940545 104.8700316  65.7943593  60.0148430
 104.2480326  65.1314298  59.7150658 105.5405183  65.8204725  59.3322078
  98.1027388  64.3603451  58.9039690  97.2659297  63.9325625  58.7223691
  98.0751034  64.5535894  59.8410481 104.9424844  54.2725381  69.6080936
 104.9912999  55.1487503  69.2258705 105.4847358  53.7302774  69.0352579
 115.4279690  64.8166504  68.8882073 114.6375233  64.7990643  68.3486572
 115.1913044  65.3554798  69.6431109 115.5477565  61.6658970  66.2014801
 115.5975570  61.5008978  67.1430324 115.4391488  60.7986229  65.8112682
 104.4313823  64.3447516  53.4906890 104.5801944  65.0282980  52.8373563
 105.2380267  64.3252606  54.0056346 112.8381327  57.6489898  67.5174108
 113.7391190  57.5096363  67.2258106 112.9129302  57.8144353  68.4572286
 107.1724132  55.0256753  66.3627294 106.3027442  55.3190319  66.0909883
 107.4083613  55.6097198  67.0834558 117.0495761  64.0855912  66.4456823
 116.7580570  64.4485892  67.2820284 116.4367893  63.3722920  66.2670155
 115.2982950  59.2088526  64.9136881 115.7737071  59.4016173  64.1055732
 114.3748515  59.2647712  64.6680265 102.1866456  60.3712694  54.4967959
 101.9412498  59.4675024  54.6948169 102.3562371  60.3729844  53.5547437
 109.8763166  51.2436370  63.8792715 110.3945110  51.9797397  63.5539203
 109.5218299  51.5500363  64.7139474 101.4562104  56.1041051  51.9954121
 100.7631349  56.1785406  51.3394157 101.2113856  55.3401395  52.5175638
 110.1275760  47.6636653  59.3993611 110.4077514  46.9959842  60.0254038
 110.9126367  47.8565748  58.8868275 107.9309229  66.8395646  50.9618638
 107.3583196  67.4585834  50.5089110 108.5042022  67.3895008  51.4958560
 113.9984619  56.0854287  63.1465187 114.9502042  56.1852384  63.1677411
 113.8288069  55.2932555  63.6563271 112.0198998  53.1709870  63.3324587
 111.4248930  53.4514882  62.6371076 111.7348695  53.6603771  64.1041329
 111.1506489  67.1232797  52.0927220 112.0837162  67.0578358  52.2960096
 111.0629701  67.9589063  51.6341753 113.7794505  66.4398667  49.0531168
 113.7008137  66.1058531  49.9466926 114.6004172  66.9320435  49.0522640
 116.4772696  59.3060406  62.2607486 116.4449017  58.3676407  62.4467170
 117.0873320  59.3844443  61.5273311 108.3156027  58.1756459  48.3034690
 109.2615132  58.0462667  48.3723108 107.9370272  57.4371121  48.7804118
 116.6267185  56.0971450  62.3065769 116.1106234  55.3129906  62.1195698
 117.5107133  55.7690166  62.4712289 114.2877912  49.8412465  58.2661582
 114.0902733  49.5327553  59.1504914 114.8977617  50.5674104  58.3959512
 108.1994720  62.2274205  69.7635347 109.1197729  62.4052804  69.9575394
 108.1644303  61.2830251  69.6115046 106.4998944  56.1006436  48.2389575
 105.5930400  55.8039548  48.3152289 106.7774925  55.8036254  47.3723862
  97.4176885  57.4212799  58.6888622  97.0979669  56.5678107  58.3962996
  96.8710313  57.6361377  59.4446589 101.1956792  60.1375240  62.4058128
 101.4142802  61.0692348  62.4246162 101.6082566  59.7783214  63.1912932
 108.1161010  50.6443325  54.3933817 107.3061739  50.2990410  54.7689063
 108.8045427  50.3350869  54.9821428 110.0451558  49.7221372  56.0158113
 110.5982597  50.1416826  56.6748137 110.2821645  48.7957120  56.0581069
 106.0684658  55.7108446  71.7960877 105.9681385  56.6602803  71.7272968
 105.8506200  55.3826685  70.9236947 105.2697729  52.9593371  48.3801555
 106.1316893  53.2848269  48.6397372 105.4548073  52.1724867  47.8674620
  97.2865145  61.0415710  60.6581743  96.5928616  60.6269663  60.1451698
  98.0338136  61.0836247  60.0615162 113.4230366  51.8321897  55.5236778
 112.8429035  52.4906701  55.1414830 113.1566298  51.0099242  55.1124195
 111.8733932  51.2326955  57.7258098 112.3733710  51.3443490  56.9172417
 112.5169540  50.9288008  58.3658906 105.9315928  59.1405585  70.6125939
 105.4483009  59.9405945  70.8189828 106.0176867  59.1513529  69.6593383
  99.2001887  60.9733964  58.5347758  99.1772575  61.0721652  57.5829641
  99.5102524  61.8199115  58.8564924 101.8589265  63.0310119  62.6494373
 102.8132519  62.9994062  62.5824304 101.6601789  62.5700743  63.4644599
 102.4488647  61.6011235  65.2165170 103.2681536  62.0955314  65.2400008
 102.7225455  60.6843203  65.1882738 112.2055244  53.9921988  54.5793126
 111.3181099  54.2771638  54.3613321 112.6209233  53.8315751  53.7320403
 115.5569780  54.0168509  58.2947465 116.3330170  54.5064961  58.5672082
 114.8317914  54.4426563  58.7519335 100.2139494  68.5729739  59.6664571
 100.0793962  67.8130140  59.1002569  99.7971556  69.2970639  59.1993360
 111.3498457  63.7566662  48.6741146 112.0534307  63.9616665  49.2898802
 110.6261106  64.3243424  48.9390229 112.1796267  59.5076524  54.7943416
 112.1231469  59.9645075  53.9551048 112.7324610  58.7467208  54.6166259
 115.9901073  55.2966255  55.6193536 115.7338007  54.8962891  56.4501743
 115.3653941  56.0110049  55.4943675 103.3708620  69.4699056  59.8783013
 103.2541004  70.4144488  59.7761704 102.5501066  69.1672617  60.2668812
 113.2585154  64.1949192  50.7239606 114.0930758  63.7630390  50.5417081
 113.0969497  64.0231205  51.6516500 112.9131047  60.6981305  52.0895945
 112.8579850  60.5325576  51.1484389 112.2877102  61.4057338  52.2458135
  97.7023562  55.9349369  65.9157367  98.3482425  55.4248323  66.4044593
  97.4940713  56.6718051  66.4900793 110.2276954  63.0030217  71.4149508
 111.0968113  63.1770869  71.0536143 109.7483705  63.8224634  71.2925237
 106.2227172  50.1989414  51.6681264 106.2105842  51.1431254  51.8249535
 107.1150594  50.0159559  51.3740725 104.3963134  70.1227318  63.0938942
 105.2990381  70.1550928  63.4105437 104.1700504  69.1927769  63.1085277
 106.1516736  68.8758304  59.7549020 105.2012367  68.8760166  59.6413393
 106.4549222  68.1291039  59.2385055 110.0379292  46.7932190  55.9227200
 109.2711687  46.2390677  56.0683883 110.4489997  46.8654059  56.7841352
 102.0421053  53.0816986  70.0132382 102.9052514  52.7253791  70.2235706
 101.4686463  52.7430881  70.7007786 114.5545952  76.5181747  56.7453198
 113.9910817  76.4271684  55.9769486 114.4398347  75.6981652  57.2255691
 112.1010383  78.0132939  59.5837419 112.8931675  77.6723763  59.1683718
 112.3407034  78.1227914  60.5039572 114.0601137  77.2741852  52.4554798
 114.8332013  76.7270839  52.3167673 114.4126536  78.1386101  52.6669259
 115.8986180  78.6018234  65.6621697 115.6076046  79.5063865  65.5468363
 116.5343164  78.6434762  66.3765766 116.8242387  75.9795083  62.2523057
 117.4205959  75.7551105  61.5380019 116.8817358  75.2379828  62.8548504
 116.3967415  73.4334518  50.0873248 116.6492936  72.9116039  49.3256711
 115.4591974  73.2700664  50.1899931 116.1163704  75.3362624  52.2897622
 115.9999962  74.6607527  52.9578707 116.2265964  74.8494998  51.4729776
 118.1000732  69.8262671  50.9905660 118.2675134  70.6942907  51.3576131
 117.9097901  69.9889953  50.0666949 114.3088547  74.7393447  58.6908195
 113.3839043  74.6069661  58.8985887 114.5572960  75.5187666  59.1878137
 118.0789953  72.2820328  51.9752327 117.9589578  72.7277379  52.8137807
 117.3842541  72.6305646  51.4165865 111.6697358  74.3826720  59.5251984
 111.7989739  74.6361199  60.4391396 110.9894809  74.9754428  59.2056639
 115.8396845  85.0523970  55.6242458 115.7620875  86.0031795  55.7030939
 115.2358488  84.7069843  56.2817385 116.5860447  75.0337289  67.8421792
 117.3275131  75.5722333  67.5656616 115.8797432  75.6603578  67.9993344
 114.8296644  77.0213510  60.3976091 115.3998001  77.4500778  59.7593575
 115.4204756  76.7396094  61.0960277 116.8741449  73.5965180  54.2685893
 117.5765492  74.0486224  54.7359819 116.5422078  72.9548999  54.8965786
 115.3221811  72.1876937  68.6437102 114.6920471  72.8693218  68.8772499
 115.2157899  72.0760019  67.6990240 110.6166783  71.8548733  59.5703026
 109.8265837  72.1106262  59.0943137 111.1078030  72.6697071  59.6755067
 112.5681528  72.2193312  56.5286503 111.7712692  72.3312007  57.0469999
 112.3407121  72.5579965  55.6627394 108.9004486  72.1079224  62.0018017
 109.1512524  72.9926233  62.2675593 109.4364034  71.9283825  61.2293109
 114.6002553  66.4897703  71.0062353 114.2069499  65.9363901  71.6809997
 115.4168694  66.8008281  71.3968871 111.5664611  77.9281561  54.9175923
 112.0789132  78.7224811  55.0681488 112.2187324  77.2307852  54.8509525
 113.3759496  81.0447317  56.9998676 113.5526124  81.9665282  56.8119660
 114.1716329  80.7305737  57.4293056 117.5170514  67.9055582  68.5982610
 118.2580228  68.5062735  68.5187072 117.7488437  67.1633220  68.0400652
 112.6611852  73.0911949  66.8760839 112.5465368  72.1897207  67.1767938
 111.8056370  73.3375646  66.5245656 114.4990811  82.5625491  63.0009019
 115.0498236  82.4342555  62.2286013 113.6602287  82.8620380  62.6503911
 109.5313528  76.2570215  55.6935494 110.3688750  76.6667224  55.4769201
 109.7091796  75.3169658  55.6635688 116.7867104  66.3880070  59.8462306
 117.6520100  66.1922879  59.4868196 116.8544613  66.1590422  60.7731663
 114.3929423  68.6182278  57.2178673 114.9673175  68.3957459  56.4851866
 114.9800405  68.6870972  57.9707275 114.7199010  70.6486739  51.2374559
 113.8836322  70.9861425  51.5583833 114.5803779  70.5135719  50.3001696
 116.6952090  65.4923527  55.9453743 116.0416503  65.1772544  55.3210357
 116.6532565  64.8699267  56.6713566 117.8063295  75.7742822  47.8607035
 116.8990357  75.5432075  48.0598184 118.3034327  74.9780441  48.0481016
 109.5539699  73.5960931  56.3646227 109.3564099  73.0030291  55.6397294
 108.9986363  73.2913141  57.0822166 117.5336423  73.4884037  58.4840820
 117.5885033  72.5357874  58.4083297 116.7227625  73.6443476  58.9682119
 115.4728783  72.1061097  56.2431199 114.6596648  72.4055268  56.6496391
 115.9687777  71.7116786  56.9605681 114.9642857  69.6779452  61.8592434
 115.6042237  69.5368212  61.1615397 114.1320388  69.3913966  61.4831036
 115.7403161  78.9781883  57.9727427 116.5343760  78.4832203  57.7710001
 115.0294854  78.4499746  57.6095132 112.0485925  73.1224965  54.0487179
 111.1183513  73.0609420  54.2657141 112.1443397  72.6000917  53.2523820
 111.9671474  69.6479777  56.6365421 112.2278291  70.5625111  56.5274581
 112.7888646  69.1804220  56.7862034 113.4396399  71.0617535  63.8064245
 114.1119453  70.8534897  63.1576894 112.6126186  70.8639621  63.3669478
 113.8423896  74.3360138  64.5666683 113.7043694  73.6040376  65.1678222
 114.7528820  74.2469038  64.2850870 116.4706197  74.0480097  64.0550362
 117.1805816  73.4073289  64.0136981 116.4275505  74.2992992  64.9776543
 115.1835131  71.0345315  65.8746002 114.6472488  70.5836053  66.5267598
 114.5951840  71.1691224  65.1316466 113.4783675  87.8009364  59.7690660
 113.7180273  88.4327888  60.4469679 112.6352871  87.4497404  60.0556020
 114.5937390  70.4933966  48.4372465 113.7166856  70.3722767  48.0734712
 115.0695143  69.7020045  48.1851354 106.1139530  75.2811126  58.5313972
 106.8010570  74.9672856  57.9434988 105.9587659  76.1852491  58.2581224
 110.9174252  70.1701323  62.9598996 110.8332441  69.5626992  62.2249406
 110.0956959  70.6610341  62.9608493 117.9911536  83.6088487  62.1732164
 117.9181708  84.4143458  62.6851469 117.5488930  83.8080452  61.3480186
 117.6732935  70.7972269  58.0540876 117.3030722  70.2443309  58.7421781
 118.1692027  70.1930403  57.5015876 115.5022133  81.2569764  65.1495894
 116.2031593  81.8906247  65.3025288 115.0317248  81.5984496  64.3891533
 111.0989852  80.7906119  62.0826996 111.6843288  80.0449807  62.2154901
 110.9014690  81.1010076  62.9663660 113.9528507  83.8257367  57.0989439
 113.2838882  84.3103494  56.6153479 113.8141376  84.0726587  58.0132817
 105.6907506  73.3611719  60.8031440 105.7291606  72.8275310  61.5968558
 105.1847799  72.8346925  60.1842417 113.0698269  68.2076260  64.2993982
 113.1339595  69.0691091  63.8871380 113.0065389  67.5950261  63.5666340
 112.5450541  70.2799392  67.9467016 113.1722580  69.8976470  68.5604540
 111.6878460  70.0613594  68.3122709 109.3216084  72.0875821  53.8785371
 109.6169525  71.1786500  53.8252425 108.4204120  72.0663561  53.5566373
 112.8510331  70.1631818  59.8612920 112.1296917  70.7767786  59.7220393
 113.6403587  70.6989583  59.7829566 115.6536644  67.4986245  66.1353571
 116.1771046  67.7448541  66.8979881 115.4348978  68.3306279  65.7156709
 111.0503925  69.7689919  54.0024696 110.7216632  68.8887298  53.8199802
 111.4043296  69.7137588  54.8901085 114.1645749  70.0562889  54.3700174
 114.5041821  70.5848810  53.6478782 114.6117869  70.3943295  55.1458740
 116.8589189  68.4399940  63.8203242 116.5186010  67.6407753  64.2223922
 116.1528196  68.7401651  63.2480075 116.1513896  68.5537511  52.5693467
 116.8722258  68.9318763  52.0657183 115.5279200  69.2726387  52.6728445
 115.0344240  72.2168373  60.0822544 114.8888821  72.5308676  60.9746825
 114.5569444  72.8353273  59.5293442 116.8940623  69.2070921  60.1303433
 116.8802192  68.3112014  59.7935731 117.6113051  69.2141584  60.7641719
 109.5089902  74.7573717  63.0210205 108.9643370  75.5333525  63.1530479
 110.3869252  75.1044522  62.8629326 116.2977519  68.0885301  55.3991003
 116.4193430  67.1601947  55.5981891 116.0079561  68.1023987  54.4869319
 110.2955924  73.8843613  65.9140362 109.5537660  74.0326249  66.5004992
 109.9748668  74.1451879  65.0507111 110.7412538  81.7709042  57.9450756
 111.5670558  81.4712814  57.5649400 110.3906590  81.0016665  58.3940545
 115.7094071  81.1235510  60.0148430 115.0874080  80.4606215  59.7150658
 116.3798938  81.1496642  59.3322078 108.9421143  79.6895369  58.9039690
 108.1053051  79.2617543  58.7223691 108.9144788  79.8827812  59.8410481
 115.7818598  69.6017298  69.6080936 115.8306754  70.4779421  69.2258705
 116.3241113  69.0594691  69.0352579 115.2707578  79.6739434  53.4906890
 115.4195698  80.3574898  52.8373563 116.0774021  79.6544524  54.0056346
 118.0117887  70.3548671  66.3627294 117.1421196  70.6482237  66.0909883
 118.2477367  70.9389116  67.0834558 113.0260211  75.7004611  54.4967959
 112.7806253  74.7966941  54.6948169 113.1956125  75.7021762  53.5547437
 112.2955858  71.4332969  51.9954121 111.6025103  71.5077324  51.3394157
 112.0507610  70.6693313  52.5175638 117.3392699  71.4298353  48.2389575
 116.4324154  71.1331466  48.3152289 117.6168680  71.1328171  47.3723862
 108.2570639  72.7504717  58.6888622 107.9373424  71.8970025  58.3962996
 107.7104068  72.9653295  59.4446589 112.0350547  75.4667158  62.4058128
 112.2536557  76.3984265  62.4246162 112.4476321  75.1075132  63.1912932
 116.9078412  71.0400363  71.7960877 116.8075139  71.9894720  71.7272968
 116.6899954  70.7118602  70.9236947 116.1091484  68.2885288  48.3801555
 116.9710648  68.6140187  48.6397372 116.2941828  67.5016784  47.8674620
 108.1258899  76.3707628  60.6581743 107.4322371  75.9561581  60.1451698
 108.8731890  76.4128165  60.0615162 116.7709682  74.4697502  70.6125939
 116.2876764  75.2697862  70.8189828 116.8570621  74.4805447  69.6593383
 110.0395642  76.3025882  58.5347758 110.0166330  76.4013569  57.5829641
 110.3496278  77.1491033  58.8564924 112.6983020  78.3602037  62.6494373
 113.6526273  78.3285979  62.5824304 112.4995543  77.8992661  63.4644599
 113.2882402  76.9303153  65.2165170 114.1075291  77.4247232  65.2400008
 113.5619210  76.0135121  65.1882738 111.0533249  83.9021656  59.6664571
 110.9187716  83.1422057  59.1002569 110.6365311  84.6262556  59.1993360
 114.2102374  84.7990973  59.8783013 114.0934759  85.7436406  59.7761704
 113.3894821  84.4964535  60.2668812 108.5417316  71.2641287  65.9157367
 109.1876180  70.7540241  66.4044593 108.3334467  72.0009969  66.4900793
 117.0620927  65.5281332  51.6681264 117.0499596  66.4723171  51.8249535
 117.9544348  65.3451477  51.3740725 115.2356889  85.4519235  63.0938942
 116.1384135  85.4842846  63.4105437 115.0094259  84.5219686  63.1085277
 116.9910491  84.2050222  59.7549020 116.0406122  84.2052084  59.6413393
 117.2942977  83.4582956  59.2385055 112.8814807  68.4108904  70.0132382
 113.7446269  68.0545709  70.2235706 112.3080218  68.0722799  70.7007786
 116.9533285  90.6103044  58.5313972 117.6404324  90.2964774  57.9434988
 116.7981413  91.5144408  58.2581224 116.5301261  88.6903637  60.8031440
 116.5685360  88.1567228  61.5968558 116.0241554  88.1638843  60.1842417
  70.1208658   3.4903816  46.4935967  70.3605256   4.1222340  47.1714986
  69.2777854   3.1391856  46.7801326  82.0364689   7.5368117  43.4698505
  81.4729554   7.4458054  42.7014793  81.9217084   6.7168021  43.9500998
  79.5829121   9.0319308  46.3082725  80.3750413   8.6910133  45.8929025
  79.8225771   9.1414283  47.2284879  87.6164248  11.2039084  38.7812970
  86.9652228  11.7893165  38.3946984  88.4108611  11.7345279  38.8408007
  81.5419875   8.2928222  39.1800104  82.3150751   7.7457209  39.0412980
  81.8945274   9.1572471  39.3914566  83.3804918   9.6204604  52.3867004
  83.0894784  10.5250235  52.2713670  84.0161902   9.6621131  53.1011073
  84.3061125   6.9981452  48.9768363  84.9024697   6.7737475  48.2625326
  84.3636096   6.2566198  49.5793811  89.0939513   8.8929516  39.3181954
  88.4585346   8.9664143  40.0302859  88.7636920   9.4823115  38.6401033
  83.5982442   6.3548994  39.0142929  83.4818700   5.6793897  39.6824013
  83.7084702   5.8681368  38.1975082  88.3394803   9.3066019  49.3816797
  88.0395526  10.2091058  49.2732604  87.9945862   9.0398203  50.2337950
  81.7907284   5.7579816  45.4153502  80.8657781   5.6256030  45.6231193
  82.0391698   6.5374035  45.9123444  79.1516095   5.4013090  46.2497291
  79.2808477   5.6547569  47.1636702  78.4713547   5.9940798  45.9301946
  83.3215583  16.0710340  42.3487765  83.2439612  17.0218165  42.4276245
  82.7177226  15.7256212  43.0062691  84.0679185   6.0523658  54.5667099
  84.8093869   6.5908702  54.2901922  83.3616170   6.6789947  54.7238651
  89.8663339   8.7553990  46.9191549  89.2372201   8.9199704  46.2167617
  89.4789001   9.1695599  47.6902513  93.7452571   9.6908427  44.2735913
  93.0603609  10.0707329  43.7232946  93.8296420  10.3003754  45.0067861
  85.4191301   8.4928398  44.1841634  85.8829646   8.7716101  43.3946257
  85.1548099   7.5911842  44.0014725  82.3115382   8.0399879  47.1221398
  82.8816739   8.4687148  46.4838882  82.9023494   7.7582464  47.8205583
  92.1149330  10.2140342  49.0453614  92.9366774   9.8120529  48.7636295
  92.1111733  10.1108576  49.9969730  85.8805934   9.7624385  51.2014324
  85.9450366  10.2244792  52.0372496  85.1716858   9.1321750  51.3296634
  85.5953952  11.4292493  41.0693305  85.4599626  12.2744028  41.4978152
  86.1363764  11.6311770  40.3059238  79.0483349   8.9467931  41.6421230
  79.5607870   9.7411181  41.7926794  79.7006062   8.2494221  41.5754831
  80.8578234  12.0633687  43.7243983  81.0344862  12.9851652  43.5364967
  81.6535067  11.7492106  44.1538363  87.2222428  12.0516059  55.1993647
  86.7786282  11.2652438  54.8814551  87.8839642  12.2395210  54.5337538
  81.9809549  13.5811861  49.7254325  82.5316974  13.4528924  48.9531319
  81.1421025  13.8806750  49.3749218  89.3203666  12.3318859  53.2275048
  89.3022141  13.1527740  52.7355317  90.2423586  12.2072934  53.4525189
  85.7776720   9.8462989  54.0698556  86.3105057   9.0851277  53.8397864
  85.2490801   9.5536640  54.8122711  77.0132266   7.2756585  42.4180800
  77.8507488   7.6853593  42.2014508  77.1910533   6.3356027  42.3880994
  87.1429433   8.9748981  41.5817368  86.6150794   8.2401741  41.2690606
  86.6416936   9.7523657  41.3357337  88.1950112  15.5026699  37.5049028
  87.5211811  15.8058395  38.1133985  88.5815934  16.3055779  37.1554485
  86.4670266   6.8941786  39.1076332  85.5581486   6.6100819  39.2048801
  86.4965350   7.3140865  38.2479638  91.6989534  10.5048376  42.8767499
  91.2451861   9.6639286  42.9332690  91.0683501  11.1409774  43.2142279
  90.1422473  12.3424872  43.8117317  90.4345448  12.9029929  43.0929683
  90.6521094  12.6353433  44.5670476  77.0358437   4.6147300  43.0891534
  76.8382837   4.0216661  42.3642600  76.4805101   4.3099510  43.8067473
  86.1646354   8.4350530  36.4464410  85.7265784   7.7186389  35.9870047
  86.9056795   8.6626645  35.8849501  85.1056098  13.1205223  44.9010770
  85.0632277  13.3466070  43.9719302  86.0218797  12.8868598  45.0496572
  83.2221899   9.9968252  44.6972733  84.0162498   9.5018573  44.4955308
  82.5113591   9.4686116  44.3340439  88.0416744  12.3786348  49.0485101
  88.0953766  12.9477284  49.8162817  87.1731525  12.5488233  48.6839138
  90.2319507   8.9714697  55.6225766  90.0805013   8.7425249  54.7055850
  90.2224186   9.9285299  55.6357111  85.7993175  10.5697274  48.3770570
  85.6604261  10.2016059  49.2496508  85.0107771  11.0844914  48.2054528
  86.3941327  15.6706371  39.7196107  86.5693083  15.1994414  40.5341729
  85.7074115  16.2972137  39.9477367  87.3498390   9.9478877  45.7659408
  87.0148223   9.9079647  46.6617058  86.8502336   9.2823593  45.2929818
  91.9411714  12.0033820  53.7002248  91.8824260  11.3193040  53.0332831
  92.3431232  12.7452810  53.2482874  80.9602412  18.8195734  46.4935967
  81.1999011  19.4514258  47.1714986  80.1171609  18.4683774  46.7801326
  91.9429121   9.9673404  51.9316228  91.0555900   9.6299326  52.0542627
  92.5127672   9.2356435  52.1684993  73.5958268   6.2997496  45.2559279
  74.2829308   5.9859226  44.6680294  73.4406397   7.2038860  44.9826531
  85.4730274  14.6274856  48.8977471  85.4000446  15.4329828  49.4096775
  85.0307667  14.8266822  48.0725492  85.2620054  13.8646626  42.4080292
  84.4787576  14.4068306  42.5018517  85.9612799  14.3820606  42.8074534
  87.9328958  14.5261690  51.0535630  88.6456930  15.1609155  50.9811531
  87.4418986  14.6225556  50.2375631  82.9840871  12.2756134  51.8741200
  83.6850331  12.9092617  52.0270595  82.5135986  12.6170865  51.1136840
  91.1095267  10.6174083  40.1589107  91.3855111  10.5030678  41.0682982
  90.2399766  10.2191568  40.1201281  87.7449331  14.8660434  43.8021921
  87.9271726  14.0482090  44.2649673  88.5682317  15.0828127  43.3646811
  88.0791497  13.7928619  41.0636970  88.6079263  13.2821074  40.4507132
  88.3419716  13.4771150  41.9282503  78.5808589  11.8092489  48.8072303
  79.1662026  11.0636177  48.9400207  78.3833428  12.1196445  49.6908967
  81.4347245  14.8443736  43.8234745  80.7657620  15.3289864  43.3398786
  81.2960114  15.0912957  44.7378124  73.1726244   4.3798089  47.5276746
  73.2110344   3.8461680  48.3213864  72.6666537   3.8533294  46.9087723
  85.5752513  16.8787480  50.4217404  86.1270821  17.0419101  51.1866489
  85.9158707  17.4691917  49.7497429  90.4263387  11.7048737  56.2766058
  90.9703291  12.3178695  55.7821013  89.8450232  12.2628316  56.7933071
  88.7120900  14.8269455  47.4081086  88.5872040  14.0259195  46.8992031
  89.3699992  15.3215648  46.9195056  90.7755809  12.6278475  49.0360636
  89.8286144  12.5083826  48.9638963  91.1238582  11.7400973  49.1186898
  87.7802242  12.4231191  45.2364988  87.6327205  11.4947899  45.4172558
  88.6055736  12.4451282  44.7522064  91.3836364  13.2459750  46.3229861
  92.3082911  13.0402611  46.1854312  91.2151667  12.9976151  47.2319203
  91.1731680  13.7645418  41.6791953  91.3468558  13.1991840  40.9265805
  91.6660571  14.5646312  41.4971442  76.9908640   5.7760087  49.7455511
  76.4462108   6.5519895  49.8775786  77.8687990   6.1230891  49.5874633
  92.1606853  13.0812182  38.7788851  92.8557757  13.7018875  38.9976165
  92.5030003  12.2307533  39.0541229  77.7774662   4.9029983  52.6385668
  77.0356398   5.0512618  53.2250299  77.4567406   5.1638249  51.7752418
  94.0598276  10.5311888  40.3076182  94.5849600  10.8699160  39.5825502
  93.9720628   9.5958903  40.1239316  85.7218324  14.4445961  52.4366058
  86.0305451  14.1995108  53.3088758  86.5193806  14.6492600  51.9484928
  85.7438937  16.5983871  44.6671435  85.3043927  16.1060250  45.3604291
  86.4947053  16.0556838  44.4263510  78.2231275  12.7895412  44.6696063
  79.0489295  12.4899184  44.2894706  77.8725327  12.0203034  45.1185851
  83.1912809  12.1421880  46.7393736  82.5692818  11.4792585  46.4395964
  83.8617676  12.1683012  46.0567384  76.4239881  10.7081738  45.6284996
  75.5871789  10.2803912  45.4468998  76.3963526  10.9014181  46.5655788
  93.7492182  11.1644791  55.6127380  92.9587726  11.1468930  55.0731879
  93.5125536  11.7033085  56.3676416  82.7526316  10.6925803  40.2152197
  82.9014436  11.3761268  39.5618870  83.5592759  10.6730893  40.7301653
  95.3708254  10.4334199  53.1702130  95.0793062  10.7964180  54.0065591
  94.7580385   9.7201207  52.9915462  80.5078949   6.7190981  41.2213266
  80.2624990   5.8153311  41.4193476  80.6774863   6.7208131  40.2792744
  86.2521721  13.1873934  37.6863944  85.6795688  13.8064121  37.2334416
  86.8254515  13.7373295  38.2203866  89.4718981  13.4711084  38.8172527
  90.4049654  13.4056645  39.0205402  89.3842194  14.3067351  38.3587059
  92.1006998  12.7876954  35.7776474  92.0220629  12.4536818  36.6712232
  92.9216664  13.2798722  35.7767947  86.5207212   8.5752493  56.4880654
  87.4410222   8.7531092  56.6820700  86.4856795   7.6308538  56.3360353
  75.7389377   3.7691086  45.4133929  75.4192161   2.9156394  45.1208303
  75.1922805   3.9839664  46.1691896  79.5169285   6.4853527  49.1303435
  79.7355294   7.4170635  49.1491469  79.9295058   6.1261502  49.9158239
  75.6077637   7.3893998  47.3827050  74.9141109   6.9747951  46.8697005
  76.3550628   7.4314534  46.7860469  77.5214380   7.3212252  45.2593065
  77.4985068   7.4199939  44.3074948  77.8315016   8.1677402  45.5810231
  80.1801758   9.3788407  49.3739679  81.1345011   9.3472349  49.3069611
  79.9814281   8.9179030  50.1889905  80.7701140   7.9489523  51.9410477
  81.5894029   8.4433601  51.9645314  81.0437947   7.0321491  51.9128045
  78.5351986  14.9208026  46.3909877  78.4006454  14.1608427  45.8247875
  78.1184049  15.6448926  45.9238666  89.6710949  10.1044950  35.3986453
  90.3746799  10.3094952  36.0144108  88.9473598  10.6721711  35.6635536
  81.6921112  15.8177343  46.6028320  81.5753496  16.7622776  46.5007010
  80.8713558  15.5150905  46.9914119  91.5797647  10.5427479  37.4484913
  92.4143251  10.1108677  37.2662387  91.4181990  10.3709492  38.3761807
  88.5489446   9.3508504  58.1394815  89.4180606   9.5249156  57.7781450
  88.0696198  10.1702921  58.0170544  82.7175626  16.4705605  49.8184248
  83.6202873  16.5029215  50.1350743  82.4912996  15.5406056  49.8330584
  84.4729228  15.2236591  46.4794327  83.5224859  15.2238453  46.3658699
  84.7761714  14.4769326  45.9630362 100.2081922  21.0597130  47.5440089
 100.8460332  20.9403877  46.8403429 100.0902765  22.0077974  47.6028041
  97.0171628  21.0124558  47.4801614  96.6790140  20.8965623  46.5922149
  97.8861396  20.6115723  47.4602620  92.8758444  22.8660034  43.4698505
  92.3123309  22.7749971  42.7014793  92.7610839  22.0459939  43.9500998
  97.4991411  22.1659410  53.4387820  97.4880052  21.7712208  52.5668323
  97.6612051  21.4325482  54.0321591  90.4222876  24.3611226  46.3082725
  91.2144168  24.0202051  45.8929025  90.6619526  24.4706201  47.2284879
  98.4558003  26.5331002  38.7812970  97.8045982  27.1185083  38.3946984
  99.2502365  27.0637197  38.8408007  92.3813630  23.6220139  39.1800104
  93.1544506  23.0749126  39.0412980  92.7339029  24.4864389  39.3914566
  94.2198672  24.9496522  52.3867004  93.9288538  25.8542152  52.2713670
  94.8555657  24.9913049  53.1011073  95.1454879  22.3273370  48.9768363
  95.7418451  22.1029392  48.2625326  95.2029851  21.5858116  49.5793811
  94.7179908  19.7812805  36.8118554  94.9705428  19.2594327  36.0502017
  93.7804467  19.6178951  36.9145238  99.7623190  18.7848584  44.6193297
 100.5486280  18.3668007  44.2683714 100.0261895  19.6894676  44.7874946
  99.9333268  24.2221434  39.3181954  99.2979101  24.2956061  40.0302859
  99.6030674  24.8115033  38.6401033 105.1631617  18.7223817  45.5226276
 105.8956789  18.1523034  45.7564105 104.4070973  18.3345417  45.9632781
  94.4376196  21.6840911  39.0142929  94.3212454  21.0085815  39.6824013
  94.5478456  21.1973285  38.1975082  96.7807737  21.1451058  42.7189618
  96.4165944  20.6181679  43.4302540  97.6374853  20.7549527  42.5456104
 102.6857038  12.4345391  49.9820884 102.3540363  13.3040802  49.7582099
 102.0902651  12.1181675  50.6614915  96.4213224  16.1740958  37.7150967
  96.5887626  17.0421195  38.0821438  96.2310393  16.3368240  36.7912256
  99.1788557  24.6357937  49.3816797  98.8789280  25.5382976  49.2732604
  98.8339617  24.3690120  50.2337950  92.6301039  21.0871734  45.4153502
  91.7051535  20.9547948  45.6231193  92.8785452  21.8665953  45.9123444
 102.5785701  17.1540477  47.0614235 101.6702578  17.0855886  46.7672996
 102.5273297  17.6312422  47.8896060  96.4002445  18.6298616  38.6997634
  96.2802070  19.0755666  39.5383114  95.7055033  18.9783933  38.1411172
  89.9909850  20.7305007  46.2497291  90.1202231  20.9839486  47.1636702
  89.3107301  21.3232715  45.9301946  94.1609337  31.4002257  42.3487765
  94.0833367  32.3510082  42.4276245  93.5570981  31.0548130  43.0062691
  96.6526567  18.5730123  55.0049132  95.8759901  19.1324043  54.9951996
  97.2917130  19.0586906  55.5264002 104.4447348  15.3556916  48.8392108
 103.8021728  15.6489449  48.1931903 103.9402276  15.2409836  49.6445305
 102.0987511  19.1020089  39.5277968 103.0105367  19.3347476  39.3525665
 101.5897158  19.6857133  38.9653046  94.9072939  21.3815576  54.5667099
  95.6487624  21.9200620  54.2901922  94.2009925  22.0081865  54.7238651
 100.3828279  23.5244717  53.1639260 100.7911635  23.0827127  52.4193893
  99.6605540  22.9497344  53.4173453  96.7359349  18.4617323  50.5372817
  97.5820544  18.8856737  50.6807466  96.6757987  17.8050948  51.2311380
 100.7057093  24.0845907  46.9191549 100.0765956  24.2491621  46.2167617
 100.3182756  24.4987517  47.6902513 104.5846325  25.0200345  44.2735913
 103.8997364  25.3999246  43.7232946 104.6690175  25.6295672  45.0067861
  99.8858794  16.1221692  52.1953991  99.6419726  16.8763752  51.6588267
 100.1618725  16.5007039  53.0301238 101.8397257  22.6660304  50.8731256
 102.0514152  23.3092064  50.1965638 101.7927005  21.8322621  50.4053187
  99.4423486  15.2778125  47.7767829  98.5807965  15.5759378  48.0684566
  99.4685921  15.4948524  46.8448861  96.2585055  23.8220315  44.1841634
  96.7223401  24.1008018  43.3946257  95.9941853  22.9203760  44.0014725
  93.1509136  23.3691797  47.1221398  93.7210493  23.7979065  46.4838882
  93.7417248  23.0874382  47.8205583  95.1953941  19.9443468  40.9931199
  95.8977985  20.3964511  41.4605126  94.8634570  19.3027287  41.6211093
  93.6434303  18.5355224  55.3682409  93.0132964  19.2171505  55.6017806
  93.5370391  18.4238306  54.4235547  88.9379275  18.2027020  46.2948333
  88.1478329  18.4584549  45.8188444  89.4290523  19.0175358  46.4000374
 102.9543085  25.5432260  49.0453614 103.7760529  25.1412447  48.7636295
 102.9505488  25.4400494  49.9969730  90.8894021  18.5671600  43.2531810
  90.0925184  18.6790294  43.7715305  90.6619613  18.9058252  42.3872700
  96.7199688  25.0916303  51.2014324  96.7844121  25.5536710  52.0372496
  96.0110612  24.4613668  51.3296634  87.2216978  18.4557511  48.7263324
  87.4725017  19.3404521  48.9920900  87.7576527  18.2762112  47.9538416
 111.0449078  21.8871008  45.3938585 110.2912786  21.3178406  45.2382590
 111.1796619  21.8533673  46.3409220  96.4347706  26.7584410  41.0693305
  96.2993381  27.6035946  41.4978152  96.9757519  26.9603688  40.3059238
  92.9215046  12.8375990  57.7307660  92.5281991  12.2842189  58.4055304
  93.7381186  13.1486569  58.1214177  89.8877103  24.2759848  41.6421230
  90.4001624  25.0703099  41.7926794  90.5399816  23.5786139  41.5754831
  91.6971988  27.3925605  43.7243983  91.8738616  28.3143569  43.5364967
  92.4928822  27.0784024  44.1538363  95.8383007  14.2533869  55.3227916
  96.5792720  14.8541022  55.2432379  96.0700929  13.5111507  54.7645959
  90.9824345  19.4390237  53.6006146  90.8677860  18.5375494  53.9013245
  90.1268862  19.6853933  53.2490963  98.0616182  27.3807977  55.1993647
  97.6180037  26.5944355  54.8814551  98.7233396  27.5687127  54.5337538
  92.8203304  28.9103778  49.7254325  93.3710729  28.7820842  48.9531319
  91.9814779  29.2098667  49.3749218 100.1597420  27.6610777  53.2275048
 100.1415896  28.4819658  52.7355317 101.0817341  27.5364852  53.4525189
  96.6170475  25.1754906  54.0698556  97.1498811  24.4143194  53.8397864
  96.0884556  24.8828558  54.8122711  87.8526020  22.6048503  42.4180800
  88.6901242  23.0145511  42.2014508  88.0304288  21.6647945  42.3880994
  99.7490452  20.2723583  38.1064633  99.2337076  21.0428188  38.3453021
  99.4767761  19.5988719  38.7297695  97.3337563  15.1173284  43.1649872
  96.4779160  14.7280134  42.9855510  97.7464515  15.1965245  42.3049657
  98.8636710  12.6519627  47.5641431  98.3601506  12.6149763  46.7509237
  99.1567317  13.5612370  47.6238088  95.1079596  12.7358357  46.5707613
  95.9732593  12.5401166  46.2113503  95.1757105  12.5068709  47.4976970
 104.7224726  23.0255938  40.0417807 103.9454169  22.6867097  39.5972969
 105.4016207  23.0308561  39.3672772  99.5376755  18.1450675  39.9324414
  99.2326891  18.4596825  40.7834558 100.4907198  18.2232095  39.9751747
  97.9823187  24.3040899  41.5817368  97.4544549  23.5693658  41.2690606
  97.4810690  25.0815575  41.3357337 102.9616033  22.4989919  46.6984415
 102.3039708  23.1889181  46.7864543 103.7656433  22.8886351  47.0418401
  92.7141915  14.9660565  43.9423980  93.2885667  14.7435747  43.2097173
  93.3012897  15.0349260  44.6952581 101.7721492  20.8534292  44.7488356
 102.2853374  21.4864284  45.2510066 102.4222716  20.2535487  44.3831716
  93.0411502  16.9965026  37.9619865  92.2048814  17.3339713  38.2829140
  92.9016272  16.8614006  37.0247002  95.0164583  11.8401814  42.6699049
  94.3628995  11.5250831  42.0455664  94.9745057  11.2177554  43.3958872
  96.1275788  22.1221109  34.5852341  95.2202849  21.8910362  34.7843490
  96.6246820  21.3258728  34.7726323  99.0343866  30.8318616  37.5049028
  98.3605565  31.1350313  38.1133985  99.4209688  31.6347697  37.1554485
  98.2502323  18.3283747  46.9946697  97.3324884  18.5498694  46.8368385
  98.6662467  18.4030058  46.1358404  99.0337371  19.7275163  42.1249377
  99.7809190  20.2396560  41.8156499  99.3028960  19.4059216  42.9853771
  97.3064021  22.2233704  39.1076332  96.3975240  21.9392737  39.2048801
  97.3359105  22.6432782  38.2479638 102.5383288  25.8340293  42.8767499
 102.0845615  24.9931203  42.9332690 101.9077255  26.4701692  43.2142279
 101.4816208  16.7632279  44.1068167 100.7438965  16.2509666  44.4378409
 101.7342981  16.3232661  43.2951443 100.9816228  27.6716790  43.8117317
 101.2739202  28.2321847  43.0929683 101.4914848  27.9645351  44.5670476
  87.8752191  19.9439218  43.0891534  87.6776591  19.3508579  42.3642600
  87.3198855  19.6391428  43.8067473  95.8548915  19.8362324  45.2086127
  95.9097525  18.8836161  45.1328603  95.0440117  19.9921764  45.6927425
  97.0040109  23.7642448  36.4464410  96.5659539  23.0478306  35.9870047
  97.7450550  23.9918562  35.8849501  93.7941275  18.4539384  42.9676506
  92.9809140  18.7533555  43.3741698  94.2900269  18.0595073  43.6850988
  95.9449853  28.4497141  44.9010770  95.9026032  28.6757987  43.9719302
  96.8612552  28.2160516  45.0496572  99.3915487  18.9181209  51.7991400
  99.7464874  19.1452682  52.6585865 100.0387618  19.2499585  51.1768655
 105.1213224  22.0399645  42.5040729 104.9831122  22.2301241  41.5761918
 104.7649442  22.8019027  42.9608780  93.2855350  16.0257740  48.5837741
  93.9254729  15.8846499  47.8860704  92.4532880  15.7392253  48.2076343
 105.1482603  24.1076172  47.5152000 105.5819110  24.0151461  48.3635054
 105.8614184  24.0833672  46.8772016  94.0615654  25.3260170  44.6972733
  94.8556252  24.8310490  44.4955308  93.3507346  24.7978033  44.3340439
  98.8810498  27.7078266  49.0485101  98.9347520  28.2769202  49.8162817
  98.0125279  27.8780151  48.6839138  90.3698417  19.4703252  40.7732486
  89.4396005  19.4087707  40.9902448  90.4655889  18.9479205  39.9769127
  90.2883966  15.9958065  43.3610727  90.5490783  16.9103398  43.2519888
  91.1101138  15.5282507  43.5107340  91.7608891  17.4095822  50.5309552
  92.4331945  17.2013184  49.8822201  90.9338678  17.2117908  50.0914784
 106.0098153  24.1499872  50.0484886 106.2034043  25.0545683  50.2944160
 105.9098771  23.6907291  50.8823471  97.6634463  14.0357763  52.5475213
  97.0162378  14.7347712  52.4539689  98.4335479  14.4693907  52.9151461
 101.0713261  24.3006615  55.6225766 100.9198768  24.0717167  54.7055850
 101.0617941  25.2577216  55.6357111  97.8398598  21.8738528  50.6072033
  98.7690658  22.0249687  50.4341000  97.4189628  21.9622549  49.7520679
  96.6386930  25.8989192  48.3770570  96.4998015  25.5307977  49.2496508
  95.8501526  26.4136832  48.2054528  97.2335082  30.9998289  39.7196107
  97.4086837  30.5286332  40.5341729  96.5467870  31.6264055  39.9477367
  98.1892145  25.2770795  45.7659408  97.8541977  25.2371565  46.6617058
  97.6896090  24.6115511  45.2929818  92.1636389  20.6838425  51.2911989
  92.0256187  19.9518664  51.8923528  93.0741312  20.5947325  51.0096177
 101.1251336  22.6226829  36.0396468 100.5080507  21.8973657  35.9429520
 100.6567825  23.3836189  35.6963542  94.7918689  20.3958384  50.7795669
  95.5018308  19.7551576  50.7382287  94.7487998  20.6471279  51.7021850
 102.7805468  27.3325738  53.7002248 102.7218014  26.6484958  53.0332831
 103.1824986  28.0744728  53.2482874  93.5047623  17.3823602  52.5991308
  92.9684980  16.9314341  53.2512905  92.9164332  17.5169511  51.8561773
  91.7996167  34.1487651  46.4935967  92.0392765  34.7806176  47.1714986
  90.9565363  33.7975691  46.7801326  92.9149882  16.8412253  35.1617772
  92.0379349  16.7201054  34.7980019  93.3907635  16.0498332  34.9096661
 102.7822875  25.2965321  51.9316228 101.8949654  24.9591243  52.0542627
 103.3521426  24.5648353  52.1684993  84.4352022  21.6289413  45.2559279
  85.1223062  21.3151143  44.6680294  84.2800151  22.5330778  44.9826531
  89.2386745  16.5179610  49.6844303  89.1544933  15.9105279  48.9494713
  88.4169451  17.0088628  49.6853799  96.3124029  29.9566774  48.8977471
  96.2394200  30.7621745  49.4096775  95.8701422  30.1558740  48.0725492
  96.1013808  29.1938544  42.4080292  95.3181330  29.7360224  42.5018517
  96.8006554  29.7112523  42.8074534  99.4110458  15.0033173  45.0514498
  99.9079158  14.2503136  44.7315568  98.6397440  15.0397490  44.4857707
 107.2640216  20.7073539  46.6932789 107.2530092  21.5898254  46.3226722
 106.3957595  20.3545090  46.4987326  98.7722712  29.8553608  51.0535630
  99.4850684  30.4901073  50.9811531  98.2812741  29.9517474  50.2375631
 100.4940239  23.7604861  42.6252921  99.5596518  23.8806323  42.4557626
 100.6716908  22.8577327  42.3612931  95.9945427  17.1450556  44.7786182
  95.6243215  16.5921597  45.4667088  96.4904520  16.5408690  44.2261182
 103.8812790  19.6022180  43.1602955 104.3473243  20.4350171  43.0863258
 104.3320291  19.1367161  43.8648214  93.8234626  27.6048051  51.8741200
  94.5244085  28.2384534  52.0270595  93.3529741  27.9462783  51.1136840
 101.9489022  25.9466001  40.1589107 102.2248865  25.8322596  41.0682982
 101.0793520  25.5483486  40.1201281 101.6235912  20.1592659  49.6993751
 100.9707362  20.4068566  49.0446204 102.0016292  19.3456797  49.3656228
  98.5843086  30.1952352  43.8021921  98.7665480  29.3774008  44.2649673
  99.4076072  30.4120044  43.3646811  98.9185251  29.1220537  41.0636970
  99.4473018  28.6112992  40.4507132  99.1813471  28.8063067  41.9282503
  97.6723485  20.9012470  56.1859788  96.9964122  20.8006599  56.8562163
  98.4951119  20.7451684  56.6495785  89.4202344  27.1384406  48.8072303
  90.0055781  26.3928094  48.9400207  89.2227182  27.4488363  49.6908967
  92.2740999  30.1735654  43.8234745  91.6051374  30.6581781  43.3398786
  92.1353869  30.4204874  44.7378124  84.0119999  19.7090007  47.5276746
  84.0504098  19.1753597  48.3213864  83.5060291  19.1825212  46.9087723
  96.4146268  32.2079397  50.4217404  96.9664576  32.3711019  51.1866489
  96.7552461  32.7983835  49.7497429  91.3910761  14.5554547  51.0239289
  91.4552087  15.4169378  50.6116686  91.3277881  13.9428549  50.2911647
  90.8663033  16.6277680  54.6712323  91.4935072  16.2454757  55.2849847
  90.0090952  16.4091882  55.0368015 101.2657142  27.0340655  56.2766058
 101.8097046  27.6470613  55.7821013 100.6843987  27.5920233  56.7933071
  87.6428576  18.4354109  40.6030678  87.9382017  17.5264787  40.5497731
  86.7416612  18.4141848  40.2811680  99.5514655  30.1561373  47.4081086
  99.4265794  29.3551113  46.8992031 100.2093746  30.6507566  46.9195056
  91.1722823  16.5110105  46.5858226  90.4509409  17.1246073  46.4465700
  91.9616079  17.0467870  46.5074872 101.6149563  27.9570393  49.0360636
 100.6679899  27.8375744  48.9638963 101.9632336  27.0692891  49.1186898
  93.9749137  13.8464532  52.8598878  94.4983538  14.0926828  53.6225187
  93.7561470  14.6784567  52.4402015  89.3716418  16.1168206  40.7270003
  89.0429124  15.2365585  40.5445109  89.7255788  16.0615875  41.6146392
  98.6195997  27.7523109  45.2364988  98.4720959  26.8239817  45.4172558
  99.4449490  27.7743200  44.7522064  92.4858241  16.4041176  41.0945480
  92.8254313  16.9327097  40.3724089  92.9330361  16.7421582  41.8704047
 102.2230118  28.5751668  46.3229861 103.1476666  28.3694529  46.1854312
 102.0545422  28.3268069  47.2319203  95.1801682  14.7878227  50.5448549
  94.8398502  13.9886040  50.9469228  94.4740688  15.0879938  49.9725382
  95.8318154  11.8727539  48.9975872  96.6544223  11.3988018  48.8754762
  96.0756217  12.6518023  49.4974558  94.4726388  14.9015798  39.2938773
  95.1934751  15.2797051  38.7902490  93.8491692  15.6204675  39.3973751
  98.6157511  15.6060947  40.2297106  98.8321125  16.4885585  39.9285934
  98.1351578  15.2147160  39.5002748  93.3556732  18.5646660  46.8067850
  93.2101313  18.8786963  47.6992132  92.8781936  19.1831560  46.2538749
  95.2153115  15.5549208  46.8548740  95.2014684  14.6590301  46.5181038
  95.9325543  15.5619872  47.4887026  97.0679246  15.9886548  48.9001867
  96.8097024  16.9103619  48.8986198  96.5364286  15.5916983  49.5902331
 102.0125435  29.0937335  41.6791953 102.1862312  28.5283758  40.9265805
 102.5054326  29.8938230  41.4971442  87.8302394  21.1052004  49.7455511
  87.2855863  21.8811812  49.8775786  88.7081744  21.4522809  49.5874633
  94.6190011  14.4363588  42.1236310  94.7405922  13.5080234  42.3227197
  94.3292053  14.4502274  41.2114625  97.4881201  12.1218499  45.2603030
  97.5102898  12.1857832  44.3055009  97.9049260  11.2823007  45.4543536
 107.8664826  21.8573758  43.2982252 108.3095972  21.1081083  42.9001376
 106.9891336  21.8483895  42.9155984 103.0000607  28.4104100  38.7788851
 103.6951512  29.0310792  38.9976165 103.3423757  27.5599451  39.0541229
  88.6168416  20.2321901  52.6385668  87.8750152  20.3804536  53.2250299
  88.2961161  20.4930166  51.7752418 104.8992030  25.8603805  40.3076182
 105.4243354  26.1991078  39.5825502 104.8114383  24.9250821  40.1239316
  96.5612079  29.7737879  52.4366058  96.8699205  29.5287026  53.3088758
  97.3587561  29.9784517  51.9484928  96.5832691  31.9275788  44.6671435
  96.1437681  31.4352167  45.3604291  97.3340808  31.3848756  44.4263510
  89.0625030  28.1187329  44.6696063  89.8883050  27.8191101  44.2894706
  88.7119082  27.3494952  45.1185851  94.0306563  27.4713798  46.7393736
  93.4086572  26.8084503  46.4395964  94.7011430  27.4974929  46.0567384
  87.2633635  26.0373656  45.6284996  86.4265543  25.6095830  45.4468998
  87.2357280  26.2306099  46.5655788  94.1031091  15.9495586  56.3326242
  94.1519246  16.8257708  55.9504012  94.6453605  15.4072979  55.7597886
 104.5885936  26.4936709  55.6127380 103.7981480  26.4760848  55.0731879
 104.3519291  27.0325003  56.3676416 104.7083811  23.3429175  52.9260108
 104.7581816  23.1779183  53.8675631 104.5997735  22.4756434  52.5357989
  93.5920070  26.0217721  40.2152197  93.7408190  26.7053185  39.5618870
  94.3986514  26.0022811  40.7301653 101.9987574  19.3260103  54.2419415
 102.8997437  19.1866568  53.9503413 102.0735548  19.4914558  55.1817592
  96.3330379  16.7026958  53.0872601  95.4633688  16.9960524  52.8155190
  96.5689859  17.2867403  53.8079865 106.2102008  25.7626117  53.1702130
 105.9186816  26.1256097  54.0065591 105.5974139  25.0493125  52.9915462
 107.4097691  23.3278997  45.6904700 108.2444582  23.7668801  45.8542260
 107.5456819  22.8517650  44.8712946 104.4589196  20.8858731  51.6382188
 104.9343318  21.0786378  50.8301039 103.5354762  20.9417917  51.3925571
  91.3472703  22.0482899  41.2213266  91.1018745  21.1445229  41.4193476
  91.5168618  22.0500049  40.2792744  99.0369413  12.9206575  50.6038021
  99.5551357  13.6567602  50.2784510  98.6824546  13.2270568  51.4384781
  90.6168351  17.7811256  38.7199427  89.9237596  17.8555611  38.0639463
  90.3720102  17.0171600  39.2420944  97.0915476  28.5165851  37.6863944
  96.5189443  29.1356039  37.2334416  97.6648269  29.0665213  38.2203866
 103.1590865  17.7624491  49.8710493 104.1108288  17.8622589  49.8922717
 102.9894316  16.9702760  50.3808578 101.1805245  14.8480075  50.0569894
 100.5855177  15.1285087  49.3616383 100.8954942  15.3373976  50.8286635
 100.3112735  28.8003001  38.8172527 101.2443409  28.7348563  39.0205402
 100.2235948  29.6359268  38.3587059 102.9400752  28.1168872  35.7776474
 102.8614384  27.7828735  36.6712232 103.7610419  28.6090640  35.7767947
 105.6378943  20.9830611  48.9852793 105.6055263  20.0446612  49.1712477
 106.2479567  21.0614648  48.2518618  97.4762274  19.8526664  35.0279997
  98.4221379  19.7232872  35.0968415  97.0976519  19.1141326  35.5049425
 105.7873432  17.7741655  49.0311076 105.2712480  16.9900111  48.8441005
 106.6713380  17.4460371  49.1957596 111.4555493  22.0446618  48.1258830
 112.1858882  21.7831906  48.6866533 110.8462439  21.3075340  48.1660898
 109.5370790  20.1854481  48.7233281 108.8103954  20.0510446  48.1149772
 109.1218077  20.4931309  49.5289999  97.3600967  23.9044410  56.4880654
  98.2803976  24.0823009  56.6820700  97.3250550  22.9600456  56.3360353
  95.6605191  17.7776641  34.9634882  94.7536647  17.4809753  35.0397596
  95.9381172  17.4806459  34.0969168  86.5783132  19.0983004  45.4133929
  86.2585916  18.2448312  45.1208303  86.0316560  19.3131582  46.1691896
  90.3563039  21.8145445  49.1303435  90.5749049  22.7462553  49.1491469
  90.7688813  21.4553419  49.9158239  97.2767257  12.3213530  41.1179123
  96.4667985  11.9760615  41.4934369  97.9651674  12.0121074  41.7066735
  95.2290904  17.3878651  58.5206184  95.1287631  18.3373008  58.4518275
  95.0112447  17.0596890  57.6482254  94.4303976  14.6363576  35.1046861
  95.2923140  14.9618474  35.3642679  94.6154320  13.8495072  34.5919927
  86.4471392  22.7185915  47.3827050  85.7534863  22.3039868  46.8697005
  87.1944383  22.7606452  46.7860469 102.5836612  13.5092102  42.2482084
 102.0035281  14.1676906  41.8660137 102.3172545  12.6869447  41.8369502
 101.0340179  12.9097160  44.4503405 101.5339957  13.0213694  43.6417723
 101.6775787  12.6058213  45.0904213  95.0922175  20.8175790  57.3371246
  94.6089256  21.6176150  57.5435135  95.1783114  20.8283734  56.3838690
  88.3608134  22.6504169  45.2593065  88.3378822  22.7491856  44.3074948
  88.6708771  23.4969320  45.5810231  91.0195512  24.7080324  49.3739679
  91.9738766  24.6764267  49.3069611  90.8208036  24.2470948  50.1889905
  91.6094894  23.2781440  51.9410477  92.4287783  23.7725519  51.9645314
  91.8831702  22.3613408  51.9128045 101.3661490  15.6692193  41.3038433
 100.4787345  15.9541843  41.0858627 101.7815479  15.5085956  40.4565709
 104.7176026  15.6938714  45.0192772 105.4936417  16.1835166  45.2917389
 103.9924161  16.1196768  45.4764641 107.1548585  16.4066333  46.0766712
 107.7493076  16.1662069  45.3660021 107.2275169  15.6873463  46.7040249
  89.3745741  30.2499944  46.3909877  89.2400209  29.4900345  45.8247875
  88.9577803  30.9740844  45.9238666 100.5104704  25.4336867  35.3986453
 101.2140554  25.6386870  36.0144108  99.7867353  26.0013629  35.6635536
 101.3402514  21.1846729  41.5188723 101.2837716  21.6415280  40.6796355
 101.8930857  20.4237413  41.3411565 105.1507320  16.9736460  42.3438842
 104.8944254  16.5733096  43.1747050 104.5260188  17.6880254  42.2188981
 109.4619658  19.7132534  44.8510134 108.9019216  19.7825723  45.6241696
 108.8563161  19.5373518  44.1309630  92.5314867  31.1469261  46.6028320
  92.4147251  32.0914693  46.5007010  91.7107313  30.8442822  46.9914119
 102.4191401  25.8719396  37.4484913 103.2537005  25.4400595  37.2662387
 102.2575744  25.7001410  38.3761807 102.0737293  22.3751510  38.8141252
 102.0186097  22.2095781  37.8729696 101.4483349  23.0827543  38.9703442
  86.8629808  17.6119574  52.6402674  87.5088672  17.1018528  53.1289899
  86.6546960  18.3488256  53.2146099  99.3883201  24.6800422  58.1394815
 100.2574360  24.8541074  57.7781450  98.9089952  25.4994838  58.0170544
  95.3833419  11.8759619  38.3926570  95.3712089  12.8201459  38.5494841
  96.2756841  11.6929764  38.0986032  93.5569381  31.7997523  49.8184248
  94.4596628  31.8321133  50.1350743  93.3306751  30.8697974  49.8330584
  95.3122983  30.5528509  46.4794327  94.3618614  30.5530371  46.3658699
  95.6155469  29.8061244  45.9630362  91.2027299  14.7587191  56.7377688
  92.0658761  14.4023996  56.9481013  90.6292710  14.4201086  57.4253093
 111.0475676  36.3889048  47.5440089 111.6854086  36.2695795  46.8403429
 110.9296519  37.3369892  47.6028041 107.8565383  36.3416476  47.4801614
 107.5183894  36.2257540  46.5922149 108.7255151  35.9407641  47.4602620
 103.7152198  38.1951952  43.4698505 103.1517063  38.1041889  42.7014793
 103.6004593  37.3751857  43.9500998 108.3385166  37.4951327  53.4387820
 108.3273806  37.1004126  52.5668323 108.5005805  36.7617400  54.0321591
 101.2616630  39.6903144  46.3082725 102.0537922  39.3493968  45.8929025
 101.5013280  39.7998119  47.2284879 109.2951757  41.8622920  38.7812970
 108.6439737  42.4477000  38.3946984 110.0896120  42.3929115  38.8408007
 103.2207384  38.9512057  39.1800104 103.9938260  38.4041044  39.0412980
 103.5732783  39.8156306  39.3914566 105.0592427  40.2788439  52.3867004
 104.7682293  41.1834070  52.2713670 105.6949411  40.3204967  53.1011073
 105.9848634  37.6565288  48.9768363 106.5812206  37.4321310  48.2625326
 106.0423605  36.9150033  49.5793811 105.5573662  35.1104723  36.8118554
 105.8099183  34.5886244  36.0502017 104.6198221  34.9470868  36.9145238
 110.6016945  34.1140501  44.6193297 111.3880034  33.6959925  44.2683714
 110.8655649  35.0186594  44.7874946 110.7727022  39.5513352  39.3181954
 110.1372855  39.6247978  40.0302859 110.4424429  40.1406951  38.6401033
 116.0025372  34.0515735  45.5226276 116.7350544  33.4814951  45.7564105
 115.2464728  33.6637335  45.9632781 105.2769951  37.0132829  39.0142929
 105.1606209  36.3377732  39.6824013 105.3872211  36.5265203  38.1975082
 107.6201492  36.4742976  42.7189618 107.2559699  35.9473597  43.4302540
 108.4768608  36.0841445  42.5456104 113.5250792  27.7637309  49.9820884
 113.1934117  28.6332720  49.7582099 112.9296406  27.4473593  50.6614915
 107.2606979  31.5032876  37.7150967 107.4281381  32.3713112  38.0821438
 107.0704148  31.6660157  36.7912256 110.0182312  39.9649855  49.3816797
 109.7183035  40.8674894  49.2732604 109.6733371  39.6982038  50.2337950
 103.4694793  36.4163652  45.4153502 102.5445290  36.2839866  45.6231193
 103.7179207  37.1957871  45.9123444 113.4179456  32.4832395  47.0614235
 112.5096333  32.4147803  46.7672996 113.3667051  32.9604340  47.8896060
 107.2396200  33.9590533  38.6997634 107.1195825  34.4047584  39.5383114
 106.5448788  34.3075851  38.1411172 100.8303604  36.0596925  46.2497291
 100.9595986  36.3131404  47.1636702 100.1501056  36.6524633  45.9301946
 105.0003092  46.7294175  42.3487765 104.9227121  47.6802000  42.4276245
 104.3964735  46.3840048  43.0062691 107.4920321  33.9022040  55.0049132
 106.7153655  34.4615961  54.9951996 108.1310884  34.3878823  55.5264002
 115.2841102  30.6848833  48.8392108 114.6415482  30.9781366  48.1931903
 114.7796031  30.5701754  49.6445305 112.9381266  34.4312006  39.5277968
 113.8499122  34.6639393  39.3525665 112.4290913  35.0149051  38.9653046
 105.7466694  36.7107494  54.5667099 106.4881378  37.2492538  54.2901922
 105.0403679  37.3373783  54.7238651 111.2222033  38.8536634  53.1639260
 111.6305389  38.4119045  52.4193893 110.4999295  38.2789262  53.4173453
 107.5753103  33.7909241  50.5372817 108.4214299  34.2148655  50.6807466
 107.5151741  33.1342865  51.2311380 111.5450848  39.4137825  46.9191549
 110.9159710  39.5783539  46.2167617 111.1576510  39.8279434  47.6902513
 115.4240080  40.3492263  44.2735913 114.7391118  40.7291164  43.7232946
 115.5083929  40.9587589  45.0067861 110.7252549  31.4513609  52.1953991
 110.4813481  32.2055670  51.6588267 111.0012479  31.8298957  53.0301238
 112.6791011  37.9952222  50.8731256 112.8907907  38.6383982  50.1965638
 112.6320760  37.1614538  50.4053187 110.2817240  30.6070042  47.7767829
 109.4201719  30.9051296  48.0684566 110.3079675  30.8240441  46.8448861
 107.0978810  39.1512233  44.1841634 107.5617155  39.4299936  43.3946257
 106.8335608  38.2495678  44.0014725 103.9902891  38.6983715  47.1221398
 104.5604248  39.1270983  46.4838882 104.5811003  38.4166299  47.8205583
 106.0347696  35.2735385  40.9931199 106.7371739  35.7256429  41.4605126
 105.7028324  34.6319204  41.6211093 104.4828057  33.8647142  55.3682409
 103.8526718  34.5463423  55.6017806 104.3764145  33.7530224  54.4235547
  99.7773030  33.5318938  46.2948333  98.9872084  33.7876467  45.8188444
 100.2684277  34.3467276  46.4000374 113.7936839  40.8724177  49.0453614
 114.6154283  40.4704364  48.7636295 113.7899242  40.7692411  49.9969730
 101.7287775  33.8963517  43.2531810 100.9318939  34.0082212  43.7715305
 101.5013367  34.2350170  42.3872700 107.5593443  40.4208221  51.2014324
 107.6237875  40.8828628  52.0372496 106.8504367  39.7905585  51.3296634
  98.0610733  33.7849428  48.7263324  98.3118771  34.6696438  48.9920900
  98.5970281  33.6054030  47.9538416 107.2741461  42.0876328  41.0693305
 107.1387135  42.9327864  41.4978152 107.8151273  42.2895606  40.3059238
 103.7608800  28.1667908  57.7307660 103.3675746  27.6134106  58.4055304
 104.5774940  28.4778486  58.1214177 100.7270858  39.6051766  41.6421230
 101.2395378  40.3995016  41.7926794 101.3793571  38.9078056  41.5754831
 102.5365743  42.7217522  43.7243983 102.7132371  43.6435487  43.5364967
 103.3322576  42.4075942  44.1538363 106.6776761  29.5825787  55.3227916
 107.4186475  30.1832940  55.2432379 106.9094684  28.8403425  54.7645959
 101.8218099  34.7682154  53.6006146 101.7071614  33.8667411  53.9013245
 100.9662617  35.0145851  53.2490963 108.9009937  42.7099895  55.1993647
 108.4573791  41.9236273  54.8814551 109.5627150  42.8979045  54.5337538
 103.6597058  44.2395696  49.7254325 104.2104483  44.1112759  48.9531319
 102.8208534  44.5390585  49.3749218 110.9991175  42.9902694  53.2275048
 110.9809650  43.8111575  52.7355317 111.9211095  42.8656770  53.4525189
 107.4564229  40.5046824  54.0698556 107.9892566  39.7435112  53.8397864
 106.9278310  40.2120476  54.8122711 110.6233924  25.6106890  49.5992198
 110.2798193  26.5008532  49.5231309 110.9912887  25.4208548  48.7361783
  98.6919775  37.9340420  42.4180800  99.5294997  38.3437429  42.2014508
  98.8698042  36.9939863  42.3880994 110.5884207  35.6015501  38.1064633
 110.0730830  36.3720106  38.3453021 110.3161515  34.9280637  38.7297695
 108.1731318  30.4465202  43.1649872 107.3172914  30.0572052  42.9855510
 108.5858270  30.5257163  42.3049657 109.7030464  27.9811545  47.5641431
 109.1995260  27.9441680  46.7509237 109.9961071  28.8904288  47.6238088
 105.9473350  28.0650275  46.5707613 106.8126347  27.8693083  46.2113503
 106.0150859  27.8360627  47.4976970 115.5618481  38.3547856  40.0417807
 114.7847924  38.0159015  39.5972969 116.2409962  38.3600479  39.3672772
 110.3770510  33.4742593  39.9324414 110.0720646  33.7888742  40.7834558
 111.3300952  33.5524013  39.9751747 108.8216942  39.6332816  41.5817368
 108.2938303  38.8985576  41.2690606 108.3204445  40.4107493  41.3357337
 113.8009788  37.8281837  46.6984415 113.1433462  38.5181098  46.7864543
 114.6050187  38.2178269  47.0418401 103.5535669  30.2952483  43.9423980
 104.1279421  30.0727664  43.2097173 104.1406652  30.3641177  44.6952581
 112.6115247  36.1826210  44.7488356 113.1247128  36.8156201  45.2510066
 113.2616471  35.5827405  44.3831716 103.8805257  32.3256944  37.9619865
 103.0442569  32.6631630  38.2829140 103.7410026  32.1905924  37.0247002
 105.8558337  27.1693732  42.6699049 105.2022749  26.8542749  42.0455664
 105.8138811  26.5469472  43.3958872 106.9669542  37.4513027  34.5852341
 106.0596604  37.2202280  34.7843490 107.4640574  36.6550646  34.7726323
 109.8737621  46.1610534  37.5049028 109.1999320  46.4642231  38.1133985
 110.2603443  46.9639614  37.1554485 109.0896078  33.6575665  46.9946697
 108.1718639  33.8790612  46.8368385 109.5056221  33.7321976  46.1358404
 109.8731125  35.0567081  42.1249377 110.6202944  35.5688478  41.8156499
 110.1422715  34.7351134  42.9853771 108.1457775  37.5525622  39.1076332
 107.2368995  37.2684654  39.2048801 108.1752859  37.9724700  38.2479638
 113.3777043  41.1632211  42.8767499 112.9239370  40.3223121  42.9332690
 112.7471010  41.7993609  43.2142279 112.3209962  32.0924197  44.1068167
 111.5832719  31.5801583  44.4378409 112.5736736  31.6524579  43.2951443
 111.8209982  43.0008708  43.8117317 112.1132956  43.5613765  43.0929683
 112.3308603  43.2937269  44.5670476 112.4221590  24.8700449  44.7009936
 112.7280467  24.0097812  44.4135851 113.1474195  25.4618069  44.5008930
  98.7145946  35.2731136  43.0891534  98.5170346  34.6800496  42.3642600
  98.1592610  34.9683346  43.8067473 106.6942669  35.1654242  45.2086127
 106.7491279  34.2128079  45.1328603 105.8833872  35.3213681  45.6927425
 107.8433863  39.0934365  36.4464410 107.4053293  38.3770224  35.9870047
 108.5844304  39.3210480  35.8849501 104.6335029  33.7831302  42.9676506
 103.8202895  34.0825472  43.3741698 105.1294024  33.3886991  43.6850988
 106.7843607  43.7789059  44.9010770 106.7419786  44.0049905  43.9719302
 107.7006306  43.5452433  45.0496572 110.2309241  34.2473126  51.7991400
 110.5858629  34.4744599  52.6585865 110.8781372  34.5791503  51.1768655
 115.9606978  37.3691562  42.5040729 115.8224877  37.5593158  41.5761918
 115.6043197  38.1310945  42.9608780 104.1249104  31.3549657  48.5837741
 104.7648483  31.2138417  47.8860704 103.2926635  31.0684171  48.2076343
 115.9876358  39.4368089  47.5152000 116.4212864  39.3443378  48.3635054
 116.7007938  39.4125590  46.8772016 104.9009408  40.6552088  44.6972733
 105.6950007  40.1602408  44.4955308 104.1901100  40.1269951  44.3340439
 109.7204253  43.0370183  49.0485101 109.7741275  43.6061120  49.8162817
 108.8519034  43.2072068  48.6839138 101.2092172  34.7995170  40.7732486
 100.2789760  34.7379625  40.9902448 101.3049644  34.2771122  39.9769127
 101.1277721  31.3249982  43.3610727 101.3884538  32.2395316  43.2519888
 101.9494893  30.8574425  43.5107340 102.6002646  32.7387740  50.5309552
 103.2725699  32.5305102  49.8822201 101.7732432  32.5409826  50.0914784
 116.8491907  39.4791790  50.0484886 117.0427797  40.3837600  50.2944160
 116.7492525  39.0199209  50.8823471 108.5028218  29.3649680  52.5475213
 107.8556133  30.0639630  52.4539689 109.2729233  29.7985824  52.9151461
 111.9107016  39.6298533  55.6225766 111.7592522  39.4009084  54.7055850
 111.9011695  40.5869134  55.6357111 108.6792352  37.2030445  50.6072033
 109.6084412  37.3541605  50.4341000 108.2583382  37.2914466  49.7520679
 107.4780684  41.2281110  48.3770570 107.3391770  40.8599894  49.2496508
 106.6895280  41.7428749  48.2054528 108.0728836  46.3290206  39.7196107
 108.2480592  45.8578249  40.5341729 107.3861624  46.9555972  39.9477367
 109.0285899  40.6062713  45.7659408 108.6935732  40.5663482  46.6617058
 108.5289845  39.9407428  45.2929818 103.0030143  36.0130343  51.2911989
 102.8649941  35.2810581  51.8923528 103.9135067  35.9239243  51.0096177
 111.9645091  37.9518747  36.0396468 111.3474262  37.2265575  35.9429520
 111.4961579  38.7128107  35.6963542 105.6312444  35.7250302  50.7795669
 106.3412062  35.0843494  50.7382287 105.5881752  35.9763197  51.7021850
 113.6199223  42.6617655  53.7002248 113.5611769  41.9776875  53.0332831
 114.0218741  43.4036645  53.2482874 104.3441378  32.7115520  52.5991308
 103.8078735  32.2606258  53.2512905 103.7558086  32.8461429  51.8561773
 102.6389921  49.4779569  46.4935967 102.8786520  50.1098093  47.1714986
 101.7959118  49.1267609  46.7801326 103.7543637  32.1704171  35.1617772
 102.8773103  32.0492972  34.7980019 104.2301390  31.3790249  34.9096661
 113.6216630  40.6257239  51.9316228 112.7343409  40.2883161  52.0542627
 114.1915181  39.8940270  52.1684993  95.2745777  36.9581331  45.2559279
  95.9616817  36.6443061  44.6680294  95.1193906  37.8622696  44.9826531
 100.0780499  31.8471527  49.6844303  99.9938688  31.2397197  48.9494713
  99.2563205  32.3380546  49.6853799 107.1517783  45.2858691  48.8977471
 107.0787955  46.0913663  49.4096775 106.7095176  45.4850657  48.0725492
 106.9407563  44.5230462  42.4080292 106.1575085  45.0652142  42.5018517
 107.6400308  45.0404441  42.8074534 110.2504213  30.3325091  45.0514498
 110.7472912  29.5795053  44.7315568 109.4791194  30.3689408  44.4857707
 118.1033970  36.0365457  46.6932789 118.0923847  36.9190172  46.3226722
 117.2351350  35.6837007  46.4987326 109.6116467  45.1845526  51.0535630
 110.3244439  45.8192990  50.9811531 109.1206495  45.2809392  50.2375631
 111.3333994  39.0896778  42.6252921 110.3990272  39.2098241  42.4557626
 111.5110662  38.1869245  42.3612931 106.8339182  32.4742474  44.7786182
 106.4636969  31.9213514  45.4667088 107.3298274  31.8700607  44.2261182
 114.7206545  34.9314097  43.1602955 115.1866997  35.7642089  43.0863258
 115.1714045  34.4659079  43.8648214 104.6628380  42.9339969  51.8741200
 105.3637840  43.5676452  52.0270595 104.1923495  43.2754701  51.1136840
 112.7882776  41.2757919  40.1589107 113.0642620  41.1614513  41.0682982
 111.9187275  40.8775404  40.1201281 112.6923208  27.2994684  47.1993857
 111.7786288  27.5298911  47.3676064 113.1216309  27.3833129  48.0507889
 112.4629666  35.4884576  49.6993751 111.8101116  35.7360484  49.0446204
 112.8410046  34.6748715  49.3656228 109.4236840  45.5244270  43.8021921
 109.6059235  44.7065926  44.2649673 110.2469826  45.7411962  43.3646811
 109.7579006  44.4512455  41.0636970 110.2866772  43.9404909  40.4507132
 110.0207225  44.1354985  41.9282503 108.5117239  36.2304387  56.1859788
 107.8357876  36.1298517  56.8562163 109.3344873  36.0743601  56.6495785
 100.2596098  42.4676324  48.8072303 100.8449535  41.7220012  48.9400207
 100.0620937  42.7780281  49.6908967 103.1134754  45.5027571  43.8234745
 102.4445129  45.9873699  43.3398786 102.9747623  45.7496792  44.7378124
  94.8513753  35.0381924  47.5276746  94.8897853  34.5045515  48.3213864
  94.3454046  34.5117130  46.9087723 107.2540022  47.5371315  50.4217404
 107.8058330  47.7002936  51.1866489 107.5946216  48.1275753  49.7497429
 102.2304515  29.8846465  51.0239289 102.2945842  30.7461296  50.6116686
 102.1671636  29.2720466  50.2911647 101.7056788  31.9569597  54.6712323
 102.3328827  31.5746675  55.2849847 100.8484707  31.7383799  55.0368015
 112.1050896  42.3632572  56.2766058 112.6490800  42.9762531  55.7821013
 111.5237741  42.9212151  56.7933071  98.4822331  33.7646026  40.6030678
  98.7775772  32.8556705  40.5497731  97.5810366  33.7433766  40.2811680
 110.3908409  45.4853290  47.4081086 110.2659549  44.6843030  46.8992031
 111.0487501  45.9799484  46.9195056 102.0116578  31.8402023  46.5858226
 101.2903163  32.4537991  46.4465700 102.8009833  32.3759788  46.5074872
 112.4543318  43.2862311  49.0360636 111.5073653  43.1667662  48.9638963
 112.8026091  42.3984809  49.1186898 104.8142891  29.1756449  52.8598878
 105.3377293  29.4218746  53.6225187 104.5955224  30.0076484  52.4402015
 100.2110172  31.4460124  40.7270003  99.8822878  30.5657503  40.5445109
 100.5649543  31.3907793  41.6146392 109.4589751  43.0815027  45.2364988
 109.3114714  42.1531734  45.4172558 110.2843245  43.1035117  44.7522064
 103.3251995  31.7333094  41.0945480 103.6648068  32.2619015  40.3724089
 103.7724116  32.0713500  41.8704047 113.0623873  43.9043585  46.3229861
 113.9870420  43.6986447  46.1854312 112.8939176  43.6559987  47.2319203
 106.0195436  30.1170145  50.5448549 105.6792257  29.3177958  50.9469228
 105.3134442  30.4171855  49.9725382 106.6711908  27.2019457  48.9975872
 107.4937977  26.7279935  48.8754762 106.9149972  27.9809941  49.4974558
 105.3120143  30.2307715  39.2938773 106.0328505  30.6088968  38.7902490
 104.6885447  30.9496592  39.3973751 109.4551265  30.9352864  40.2297106
 109.6714880  31.8177502  39.9285934 108.9745333  30.5439078  39.5002748
 104.1950487  33.8938578  46.8067850 104.0495067  34.2078881  47.6992132
 103.7175690  34.5123478  46.2538749 106.0546870  30.8841126  46.8548740
 106.0408438  29.9882219  46.5181038 106.7719298  30.8911789  47.4887026
 107.9073000  31.3178466  48.9001867 107.6490778  32.2395536  48.8986198
 107.3758041  30.9208900  49.5902331 112.8519189  44.4229253  41.6791953
 113.0256067  43.8575675  40.9265805 113.3448080  45.2230148  41.4971442
  98.6696149  36.4343922  49.7455511  98.1249617  37.2103730  49.8775786
  99.5475499  36.7814727  49.5874633 105.4583766  29.7655506  42.1236310
 105.5799677  28.8372152  42.3227197 105.1685808  29.7794192  41.2114625
 108.3274956  27.4510416  45.2603030 108.3496653  27.5149749  44.3055009
 108.7443015  26.6114925  45.4543536 113.8394362  43.7396017  38.7788851
 114.5345266  44.3602710  38.9976165 114.1817512  42.8891369  39.0541229
  99.4562171  35.5613818  52.6385668  98.7143907  35.7096454  53.2250299
  99.1354915  35.8222084  51.7752418 115.7385785  41.1895723  40.3076182
 116.2637109  41.5282996  39.5825502 115.6508137  40.2542738  40.1239316
 107.4005833  45.1029797  52.4366058 107.7092960  44.8578943  53.3088758
 108.1981315  45.3076435  51.9484928 107.4226445  47.2567706  44.6671435
 106.9831436  46.7644085  45.3604291 108.1734562  46.7140674  44.4263510
  99.9018784  43.4479247  44.6696063 100.7276804  43.1483019  44.2894706
  99.5512836  42.6786869  45.1185851 104.8700318  42.8005715  46.7393736
 104.2480327  42.1376420  46.4395964 105.5405185  42.8266847  46.0567384
  98.1027390  41.3665573  45.6284996  97.2659298  40.9387748  45.4468998
  98.0751035  41.5598017  46.5655788 104.9424845  31.2787503  56.3326242
 104.9913001  32.1549626  55.9504012 105.4847359  30.7364896  55.7597886
 115.4279691  41.8228627  55.6127380 114.6375235  41.8052765  55.0731879
 115.1913045  42.3616920  56.3676416 115.5477566  38.6721093  52.9260108
 115.5975571  38.5071100  53.8675631 115.4391489  37.8048352  52.5357989
 104.4313825  41.3509639  40.2152197 104.5801945  42.0345103  39.5618870
 105.2380268  41.3314729  40.7301653 112.8381328  34.6552021  54.2419415
 113.7391191  34.5158486  53.9503413 112.9129303  34.8206476  55.1817592
 107.1724134  32.0318876  53.0872601 106.3027443  32.3252442  52.8155190
 107.4083614  32.6159321  53.8079865 117.0495763  41.0918034  53.1702130
 116.7580571  41.4548015  54.0065591 116.4367894  40.3785043  52.9915462
 115.2982951  36.2150649  51.6382188 115.7737073  36.4078295  50.8301039
 114.3748516  36.2709835  51.3925571 102.1866458  37.3774816  41.2213266
 101.9412499  36.4737146  41.4193476 102.3562372  37.3791967  40.2792744
 109.8763167  28.2498493  50.6038021 110.3945111  28.9859520  50.2784510
 109.5218300  28.5562486  51.4384781 101.4562105  33.1103174  38.7199427
 100.7631350  33.1847529  38.0639463 101.2113857  32.3463517  39.2420944
 110.1275762  24.6698775  46.1238918 110.4077515  24.0021964  46.7499345
 110.9126369  24.8627871  45.6113582 107.9309230  43.8457769  37.6863944
 107.3583197  44.4647956  37.2334416 108.5042024  44.3957131  38.2203866
 113.9984620  33.0916409  49.8710493 114.9502043  33.1914507  49.8922717
 113.8288070  32.2994678  50.3808578 112.0198999  30.1771992  50.0569894
 111.4248932  30.4577005  49.3616383 111.7348696  30.6665893  50.8286635
 111.1506490  44.1294919  38.8172527 112.0837163  44.0640481  39.0205402
 111.0629703  44.9651186  38.3587059 113.7794507  43.4460790  35.7776474
 113.7008138  43.1120653  36.6712232 114.6004173  43.9382557  35.7767947
 116.4772698  36.3122529  48.9852793 116.4449018  35.3738530  49.1712477
 117.0873321  36.3906566  48.2518618 108.3156029  35.1818582  35.0279997
 109.2615133  35.0524790  35.0968415 107.9370274  34.4433244  35.5049425
 116.6267186  33.1033572  49.0311076 116.1106235  32.3192029  48.8441005
 117.5107135  32.7752289  49.1957596 114.2877913  26.8474588  44.9906889
 114.0902734  26.5389676  45.8750221 114.8977619  27.5736227  45.1204819
 108.1994721  39.2336328  56.4880654 109.1197731  39.4114927  56.6820700
 108.1644304  38.2892373  56.3360353 106.4998946  33.1068558  34.9634882
 105.5930401  32.8101671  35.0397596 106.7774927  32.8098376  34.0969168
  97.4176886  34.4274922  45.4133929  97.0979670  33.5740230  45.1208303
  96.8710314  34.6423500  46.1691896 101.1956794  37.1437363  49.1303435
 101.4142803  38.0754470  49.1491469 101.6082567  36.7845337  49.9158239
 108.1161011  27.6505448  41.1179123 107.3061740  27.3052533  41.4934369
 108.8045428  27.3412992  41.7066735 110.0451560  26.7283495  42.7403420
 110.5982598  27.1478948  43.3993443 110.2821646  25.8019243  42.7826376
 106.0684659  32.7170568  58.5206184 105.9681386  33.6664925  58.4518275
 105.8506201  32.3888807  57.6482254 105.2697730  29.9655493  35.1046861
 106.1316894  30.2910392  35.3642679 105.4548075  29.1786989  34.5919927
  97.2865146  38.0477833  47.3827050  96.5928618  37.6331786  46.8697005
  98.0338137  38.0898370  46.7860469 113.4230367  28.8384020  42.2482084
 112.8429036  29.4968824  41.8660137 113.1566300  28.0161364  41.8369502
 111.8733933  28.2389078  44.4503405 112.3733712  28.3505612  43.6417723
 112.5169541  27.9350130  45.0904213 105.9315929  36.1467707  57.3371246
 105.4483011  36.9468067  57.5435135 106.0176868  36.1575652  56.3838690
  99.2001889  37.9796087  45.2593065  99.1772577  38.0783774  44.3074948
  99.5102525  38.8261238  45.5810231 101.8589267  40.0372242  49.3739679
 102.8132520  40.0056184  49.3069611 101.6601790  39.5762866  50.1889905
 102.4488649  38.6073358  51.9410477 103.2681538  39.1017437  51.9645314
 102.7225456  37.6905326  51.9128045 112.2055245  30.9984110  41.3038433
 111.3181100  31.2833761  41.0858627 112.6209234  30.8377874  40.4565709
 115.5569781  31.0230631  45.0192772 116.3330171  31.5127084  45.2917389
 114.8317915  31.4488685  45.4764641 100.2139495  45.5791861  46.3909877
 100.0793963  44.8192262  45.8247875  99.7971558  46.3032761  45.9238666
 111.3498458  40.7628785  35.3986453 112.0534308  40.9678787  36.0144108
 110.6261107  41.3305547  35.6635536 112.1796269  36.5138646  41.5188723
 112.1231470  36.9707198  40.6796355 112.7324611  35.7529331  41.3411565
 115.9901075  32.3028378  42.3438842 115.7338009  31.9025014  43.1747050
 115.3653943  33.0172172  42.2188981 103.3708621  46.4761178  46.6028320
 103.2541005  47.4206611  46.5007010 102.5501067  46.1734740  46.9914119
 113.2585156  41.2011314  37.4484913 114.0930760  40.7692513  37.2662387
 113.0969499  41.0293328  38.3761807 112.9131048  37.7043427  38.8141252
 112.8579852  37.5387699  37.8729696 112.2877103  38.4119460  38.9703442
  97.7023563  32.9411492  52.6402674  98.3482426  32.4310446  53.1289899
  97.4940714  33.6780173  53.2146099 110.2276955  40.0092339  58.1394815
 111.0968115  40.1832992  57.7781450 109.7483707  40.8286756  58.0170544
 106.2227173  27.2051536  38.3926570 106.2105843  28.1493376  38.5494841
 107.1150595  27.0221682  38.0986032 104.3963135  47.1289440  49.8184248
 105.2990382  47.1613051  50.1350743 104.1700505  46.1989891  49.8330584
 106.1516737  45.8820427  46.4794327 105.2012368  45.8822288  46.3658699
 106.4549223  45.1353161  45.9630362 110.0379293  23.7994313  42.6472507
 109.2711689  23.2452800  42.7929189 110.4489998  23.8716182  43.5086659
 102.0421054  30.0879109  56.7377688 102.9052515  29.7315914  56.9481013
 101.4686465  29.7493004  57.4253093 114.5545953  53.5243870  43.4698505
 113.9910818  53.4333807  42.7014793 114.4398348  52.7043774  43.9500998
 112.1010385  55.0195061  46.3082725 112.8931677  54.6785886  45.8929025
 112.3407035  55.1290036  47.2284879 114.0601139  54.2803975  39.1800104
 114.8332015  53.7332962  39.0412980 114.4126538  55.1448224  39.3914566
 115.8986181  55.6080357  52.3867004 115.6076047  56.5125988  52.2713670
 116.5343166  55.6496884  53.1011073 116.8242388  52.9857205  48.9768363
 117.4205960  52.7613228  48.2625326 116.8817360  52.2441951  49.5793811
 116.3967416  50.4396641  36.8118554 116.6492937  49.9178162  36.0502017
 115.4591976  50.2762786  36.9145238 116.1163705  52.3424747  39.0142929
 115.9999963  51.6669650  39.6824013 116.2265965  51.8557121  38.1975082
 118.1000733  46.8324793  37.7150967 118.2675135  47.7005030  38.0821438
 117.9097902  46.9952075  36.7912256 114.3088548  51.7455569  45.4153502
 113.3839044  51.6131783  45.6231193 114.5572961  52.5249788  45.9123444
 118.0789954  49.2882451  38.6997634 117.9589579  49.7339502  39.5383114
 117.3842542  49.6367769  38.1411172 111.6697359  51.3888843  46.2497291
 111.7989740  51.6423322  47.1636702 110.9894810  51.9816551  45.9301946
 115.8396846  62.0586093  42.3487765 115.7620876  63.0093918  42.4276245
 115.2358490  61.7131965  43.0062691 116.5860448  52.0399412  54.5667099
 117.3275133  52.5784455  54.2901922 115.8797434  52.6665700  54.7238651
 114.8296645  54.0275632  47.1221398 115.3998002  54.4562901  46.4838882
 115.4204757  53.7458217  47.8205583 116.8741450  50.6027303  40.9931199
 117.5765494  51.0548347  41.4605126 116.5422079  49.9611122  41.6211093
 115.3221812  49.1939060  55.3682409 114.6920473  49.8755341  55.6017806
 115.2157900  49.0822141  54.4235547 110.6166784  48.8610856  46.2948333
 109.8265838  49.1168384  45.8188444 111.1078032  49.6759194  46.4000374
 112.5681530  49.2255435  43.2531810 111.7712693  49.3374129  43.7715305
 112.3407122  49.5642087  42.3872700 108.9004487  49.1141346  48.7263324
 109.1512526  49.9988356  48.9920900 109.4364036  48.9345948  47.9538416
 114.6002555  43.4959826  57.7307660 114.2069500  42.9426024  58.4055304
 115.4168695  43.8070404  58.1214177 111.5664612  54.9343684  41.6421230
 112.0789133  55.7286934  41.7926794 112.2187325  54.2369974  41.5754831
 113.3759497  58.0509440  43.7243983 113.5526125  58.9727405  43.5364967
 114.1716331  57.7367859  44.1538363 117.5170516  44.9117705  55.3227916
 118.2580229  45.5124858  55.2432379 117.7488438  44.1695342  54.7645959
 112.6611854  50.0974072  53.6006146 112.5465369  49.1959329  53.9013245
 111.8056371  50.3437769  53.2490963 114.4990813  59.5687614  49.7254325
 115.0498238  59.4404677  48.9531319 113.6602288  59.8682503  49.3749218
 109.5313529  53.2632338  42.4180800 110.3688751  53.6729346  42.2014508
 109.7091797  52.3231780  42.3880994 116.7867105  43.3942192  46.5707613
 117.6520102  43.1985001  46.2113503 116.8544614  43.1652544  47.4976970
 114.3929424  45.6244400  43.9423980 114.9673176  45.4019582  43.2097173
 114.9800406  45.6933095  44.6952581 114.7199011  47.6548861  37.9619865
 113.8836323  47.9923548  38.2829140 114.5803781  47.5197841  37.0247002
 116.6952092  42.4985649  42.6699049 116.0416504  42.1834666  42.0455664
 116.6532566  41.8761390  43.3958872 117.8063297  52.7804944  34.5852341
 116.8990358  52.5494198  34.7843490 118.3034328  51.9842564  34.7726323
 109.5539700  50.6023053  43.0891534 109.3564100  50.0092414  42.3642600
 108.9986364  50.2975264  43.8067473 117.5336424  50.4946160  45.2086127
 117.5885034  49.5419996  45.1328603 116.7227626  50.6505599  45.6927425
 115.4728784  49.1123220  42.9676506 114.6596649  49.4117390  43.3741698
 115.9687778  48.7178908  43.6850988 114.9642859  46.6841575  48.5837741
 115.6042238  46.5430334  47.8860704 114.1320389  46.3976088  48.2076343
 115.7403163  55.9844005  44.6972733 116.5343761  55.4894326  44.4955308
 115.0294855  55.4561869  44.3340439 112.0485926  50.1287087  40.7732486
 111.1183514  50.0671543  40.9902448 112.1443398  49.6063040  39.9769127
 111.9671475  46.6541900  43.3610727 112.2278292  47.5687233  43.2519888
 112.7888647  46.1866343  43.5107340 113.4396400  48.0679657  50.5309552
 114.1119454  47.8597019  49.8822201 112.6126187  47.8701743  50.0914784
 113.8423898  51.3422260  51.2911989 113.7043696  50.6102499  51.8923528
 114.7528821  51.2531160  51.0096177 116.4706198  51.0542220  50.7795669
 117.1805817  50.4135412  50.7382287 116.4275506  51.3055114  51.7021850
 115.1835132  48.0407437  52.5991308 114.6472489  47.5898176  53.2512905
 114.5951841  48.1753346  51.8561773 113.4783676  64.8071487  46.4935967
 113.7180274  65.4390011  47.1714986 112.6352872  64.4559527  46.7801326
 114.5937391  47.4996089  35.1617772 113.7166858  47.3784890  34.7980019
 115.0695144  46.7082167  34.9096661 106.1139531  52.2873249  45.2559279
 106.8010571  51.9734979  44.6680294 105.9587660  53.1914613  44.9826531
 110.9174254  47.1763445  49.6844303 110.8332442  46.5689115  48.9494713
 110.0956960  47.6672463  49.6853799 117.9911538  60.6150609  48.8977471
 117.9181709  61.4205581  49.4096775 117.5488931  60.8142575  48.0725492
 117.6732936  47.8034392  44.7786182 117.3030724  47.2505432  45.4667088
 118.1692029  47.1992525  44.2261182 115.5022135  58.2631887  51.8741200
 116.2031594  58.8968370  52.0270595 115.0317250  58.6046618  51.1136840
 111.0989853  57.7968242  48.8072303 111.6843290  57.0511930  48.9400207
 110.9014691  58.1072198  49.6908967 113.9528508  60.8319489  43.8234745
 113.2838883  61.3165617  43.3398786 113.8141378  61.0788710  44.7378124
 105.6907508  50.3673842  47.5276746 105.7291607  49.8337433  48.3213864
 105.1847800  49.8409047  46.9087723 113.0698270  45.2138382  51.0239289
 113.1339596  46.0753213  50.6116686 113.0065390  44.6012384  50.2911647
 112.5450542  47.2861515  54.6712323 113.1722581  46.9038592  55.2849847
 111.6878461  47.0675717  55.0368015 109.3216085  49.0937944  40.6030678
 109.6169526  48.1848622  40.5497731 108.4204121  49.0725684  40.2811680
 112.8510332  47.1693941  46.5858226 112.1296918  47.7829908  46.4465700
 113.6403588  47.7051705  46.5074872 115.6536646  44.5048367  52.8598878
 116.1771047  44.7510664  53.6225187 115.4348979  45.3368402  52.4402015
 111.0503927  46.7752042  40.7270003 110.7216633  45.8949421  40.5445109
 111.4043297  46.7199710  41.6146392 114.1645750  47.0625012  41.0945480
 114.5041822  47.5910933  40.3724089 114.6117870  47.4005418  41.8704047
 116.8589191  45.4462062  50.5448549 116.5186011  44.6469875  50.9469228
 116.1528197  45.7463773  49.9725382 116.1513897  45.5599633  39.2938773
 116.8722259  45.9380886  38.7902490 115.5279201  46.2788510  39.3973751
 115.0344241  49.2230495  46.8067850 114.8888822  49.5370798  47.6992132
 114.5569445  49.8415396  46.2538749 116.8940624  46.2133043  46.8548740
 116.8802193  45.3174137  46.5181038 117.6113052  46.2203707  47.4887026
 109.5089903  51.7635840  49.7455511 108.9643371  52.5395648  49.8775786
 110.3869253  52.1106644  49.5874633 116.2977520  45.0947424  42.1236310
 116.4193431  44.1664070  42.3227197 116.0079562  45.1086110  41.2114625
 110.2955925  50.8905736  52.6385668 109.5537661  51.0388371  53.2250299
 109.9748670  51.1514002  51.7752418 110.7412539  58.7771165  44.6696063
 111.5670559  58.4774937  44.2894706 110.3906591  58.0078787  45.1185851
 115.7094072  58.1297633  46.7393736 115.0874081  57.4668338  46.4395964
 116.3798939  58.1558765  46.0567384 108.9421144  56.6957491  45.6284996
 108.1053052  56.2679666  45.4468998 108.9144789  56.8889935  46.5655788
 115.7818600  46.6079421  56.3326242 115.8306755  47.4841544  55.9504012
 116.3241114  46.0656814  55.7597886 115.2707579  56.6801556  40.2152197
 115.4195699  57.3637021  39.5618870 116.0774022  56.6606646  40.7301653
 118.0117888  47.3610793  53.0872601 117.1421197  47.6544359  52.8155190
 118.2477368  47.9451238  53.8079865 113.0260212  52.7066734  41.2213266
 112.7806254  51.8029064  41.4193476 113.1956127  52.7083884  40.2792744
 112.2955860  48.4395091  38.7199427 111.6025104  48.5139446  38.0639463
 112.0507611  47.6755435  39.2420944 117.3392700  48.4360476  34.9634882
 116.4324156  48.1393589  35.0397596 117.6168681  48.1390294  34.0969168
 108.2570641  49.7566839  45.4133929 107.9373425  48.9032147  45.1208303
 107.7104069  49.9715417  46.1691896 112.0350548  52.4729280  49.1303435
 112.2536558  53.4046388  49.1491469 112.4476322  52.1137255  49.9158239
 116.9078413  48.0462486  58.5206184 116.8075140  48.9956843  58.4518275
 116.6899956  47.7180725  57.6482254 116.1091485  45.2947411  35.1046861
 116.9710649  45.6202309  35.3642679 116.2941829  44.5078907  34.5919927
 108.1258901  53.3769751  47.3827050 107.4322372  52.9623704  46.8697005
 108.8731892  53.4190287  46.7860469 116.7709684  51.4759625  57.3371246
 116.2876765  52.2759985  57.5435135 116.8570623  51.4867570  56.3838690
 110.0395643  53.3088005  45.2593065 110.0166331  53.4075692  44.3074948
 110.3496280  54.1553155  45.5810231 112.6983021  55.3664160  49.3739679
 113.6526275  55.3348102  49.3069611 112.4995545  54.9054783  50.1889905
 113.2882403  53.9365276  51.9410477 114.1075292  54.4309354  51.9645314
 113.5619211  53.0197244  51.9128045 111.0533250  60.9083779  46.3909877
 110.9187718  60.1484180  45.8247875 110.6365312  61.6324679  45.9238666
 114.2102376  61.8053096  46.6028320 114.0934760  62.7498529  46.5007010
 113.3894822  61.5026658  46.9914119 108.5417317  48.2703409  52.6402674
 109.1876181  47.7602363  53.1289899 108.3334468  49.0072091  53.2146099
 117.0620928  42.5343454  38.3926570 117.0499598  43.4785294  38.5494841
 117.9544350  42.3513600  38.0986032 115.2356890  62.4581358  49.8184248
 116.1384136  62.4904968  50.1350743 115.0094260  61.5281809  49.8330584
 116.9910492  61.2112345  46.4794327 116.0406123  61.2114206  46.3658699
 117.2942978  60.4645079  45.9630362 112.8814808  45.4171027  56.7377688
 113.7446270  45.0607831  56.9481013 112.3080219  45.0784921  57.4253093
 116.9533286  67.6165166  45.2559279 117.6404326  67.3026896  44.6680294
 116.7981415  68.5206531  44.9826531 116.5301262  65.6965760  47.5276746
 116.5685362  65.1629350  48.3213864 116.0241555  65.1700965  46.9087723
  91.7996168  11.1549774  33.2181274  92.0392766  11.7868298  33.8960292
  90.9565365  10.8037814  33.5046633 103.7152200  15.2014075  30.1943812
 103.1517065  15.1104012  29.4260099 103.6004595  14.3813979  30.6746304
 101.2616631  16.6965266  33.0328032 102.0537923  16.3556091  32.6174331
 101.5013282  16.8060241  33.9530185 103.2207385  15.9574180  25.9045411
 103.9938261  15.4103167  25.7658287 103.5732784  16.8218429  26.1159872
 105.0592428  17.2850562  39.1112310 104.7682294  18.1896193  38.9958977
 105.6949412  17.3267089  39.8256380 105.9848635  14.6627410  35.7013670
 106.5812207  14.4383433  34.9870633 106.0423606  13.9212156  36.3039118
 110.0182313  16.9711977  36.1062104 109.7183036  17.8737016  35.9977911
 109.6733373  16.7044161  36.9583257 103.4694795  13.4225774  32.1398808
 102.5445291  13.2901988  32.3476500 103.7179208  14.2019993  32.6368751
 100.8303606  13.0659048  32.9742597 100.9595987  13.3193527  33.8882009
 100.1501057  13.6586756  32.6547252 105.0003093  23.7356298  29.0733072
 104.9227123  24.6864123  29.1521552 104.3964736  23.3902170  29.7307998
 105.7466695  13.7169616  41.2912405 106.4881379  14.2554660  41.0147229
 105.0403680  14.3435905  41.4483957 111.5450849  16.4199948  33.6436856
 110.9159712  16.5845662  32.9412924 111.1576511  16.8341557  34.4147820
 107.0978811  16.1574356  30.9086941 107.5617157  16.4362059  30.1191563
 106.8335609  15.2557800  30.7260032 103.9902892  15.7045837  33.8466704
 104.5604249  16.1333106  33.2084189 104.5811004  15.4228422  34.5450890
 113.7936841  17.8786300  35.7698920 114.6154284  17.4766487  35.4881602
 113.7899244  17.7754534  36.7215036 107.5593444  17.4270343  37.9259631
 107.6237877  17.8890750  38.7617803 106.8504368  16.7967708  38.0541941
 107.2741462  19.0938451  27.7938611 107.1387137  19.9389986  28.2223459
 107.8151274  19.2957728  27.0304545 100.7270859  16.6113889  28.3666536
 101.2395380  17.4057139  28.5172101 101.3793572  15.9140179  28.3000138
 102.5365744  19.7279645  30.4489290 102.7132372  20.6497610  30.2610273
 103.3322577  19.4138064  30.8783669 108.9009938  19.7162017  41.9238953
 108.4573792  18.9298396  41.6059858 109.5627152  19.9041168  41.2582844
 103.6597059  21.2457819  36.4499632 104.2104484  21.1174882  35.6776626
 102.8208535  21.5452708  36.0994525 110.9991176  19.9964817  39.9520355
 110.9809652  20.8173698  39.4600624 111.9211096  19.8718892  40.1770496
 107.4564230  17.5108947  40.7943863 107.9892567  16.7497235  40.5643171
 106.9278311  17.2182598  41.5368018  98.6919776  14.9402543  29.1426107
  99.5294998  15.3499551  28.9259815  98.8698044  14.0001985  29.1126301
 111.8209983  20.0070830  30.5362624 112.1132958  20.5675887  29.8174989
 112.3308604  20.2999391  31.2915783  98.7145947  12.2793258  29.8136840
  98.5170347  11.6862619  29.0887907  98.1592611  11.9745468  30.5312779
 106.7843609  20.7851181  31.6256077 106.7419787  21.0112028  30.6964609
 107.7006307  20.5514556  31.7741878 104.9009409  17.6614210  31.4218040
 105.6950008  17.1664531  31.2200615 104.1901102  17.1332074  31.0585745
 109.7204254  20.0432306  35.7730407 109.7741276  20.6123242  36.5408123
 108.8519035  20.2134191  35.4084445 111.9107017  16.6360655  42.3471073
 111.7592524  16.4071207  41.4301157 111.9011697  17.5931257  42.3602418
 107.4780685  18.2343232  35.1015877 107.3391771  17.8662017  35.9741815
 106.6895282  18.7490872  34.9299835 108.0728837  23.3352329  26.4441413
 108.2480593  22.8640372  27.2587036 107.3861625  23.9618095  26.6722674
 109.0285900  17.6124835  32.4904715 108.6935733  17.5725605  33.3862365
 108.5289846  16.9469551  32.0175125 113.6199224  19.6679778  40.4247555
 113.5611770  18.9838998  39.7578138 114.0218742  20.4098768  39.9728181
 102.6389923  26.4841692  33.2181274 102.8786521  27.1160216  33.8960292
 101.7959119  26.1329732  33.5046633 113.6216631  17.6319362  38.6561534
 112.7343410  17.2945284  38.7787933 114.1915182  16.9002393  38.8930300
  95.2745778  13.9643453  31.9804586  95.9616818  13.6505184  31.3925601
  95.1193907  14.8684818  31.7071837 107.1517784  22.2920814  35.6222778
 107.0787956  23.0975786  36.1342082 106.7095178  22.4912780  34.7970799
 106.9407564  21.5292584  29.1325599 106.1575086  22.0714264  29.2263824
 107.6400309  22.0466564  29.5319840 109.6116468  22.1907648  37.7780936
 110.3244440  22.8255113  37.7056838 109.1206497  22.2871514  36.9620938
 104.6628382  19.9402092  38.5986507 105.3637841  20.5738575  38.7515901
 104.1923497  20.2816823  37.8382146 109.4236841  22.5306392  30.5267228
 109.6059236  21.7128048  30.9894980 110.2469827  22.7474084  30.0892118
 109.7579007  21.4574577  27.7882276 110.2866773  20.9467032  27.1752438
 110.0207226  21.1417108  28.6527809 100.2596100  19.4738447  35.5317610
 100.8449536  18.7282135  35.6645514 100.0620938  19.7842403  36.4154274
 103.1134755  22.5089694  30.5480052 102.4445130  22.9935822  30.0644092
 102.9747624  22.7558914  31.4623431  94.8513754  12.0444047  34.2522053
  94.8897854  11.5107638  35.0459171  94.3454047  11.5179252  33.6333030
 107.2540023  24.5433438  37.1462710 107.8058331  24.7065059  37.9111796
 107.5946217  25.1337875  36.4742735 112.1050898  19.3694695  43.0011365
 112.6490802  19.9824653  42.5066320 111.5237743  19.9274273  43.5178378
 110.3908411  22.4915413  34.1326393 110.2659550  21.6905153  33.6237338
 111.0487502  22.9861606  33.6440363 112.4543319  20.2924433  35.7605943
 111.5073655  20.1729784  35.6884269 112.8026092  19.4046931  35.8432204
 109.4589752  20.0877149  31.9610295 109.3114715  19.1593857  32.1417865
 110.2843246  20.1097240  31.4767370 113.0623874  20.9105708  33.0475168
 113.9870422  20.7048569  32.9099619 112.8939178  20.6622109  33.9564509
  98.6696150  13.4406045  36.4700818  98.1249618  14.2165853  36.6021092
  99.5475500  13.7876849  36.3119939  99.4562172  12.5675941  39.3630975
  98.7143908  12.7158576  39.9495605  99.1354916  12.8284207  38.4997724
 107.4005835  22.1091919  39.1611365 107.7092961  21.8641066  40.0334064
 108.1981317  22.3138558  38.6730235 107.4226447  24.2629829  31.3916741
 106.9831437  23.7706207  32.0849598 108.1734564  23.7202796  31.1508817
  99.9018786  20.4541370  31.3941369 100.7276806  20.1545141  31.0140013
  99.5512838  19.6848992  31.8431158 104.8700319  19.8067838  33.4639043
 104.2480328  19.1438543  33.1641271 105.5405186  19.8328970  32.7812691
  98.1027391  18.3727696  32.3530303  97.2659299  17.9449870  32.1714304
  98.0751036  18.5660139  33.2901094 115.4279692  18.8290749  42.3372686
 114.6375236  18.8114888  41.7977186 115.1913047  19.3679043  43.0921723
 104.4313826  18.3571761  26.9397504 104.5801946  19.0407226  26.2864176
 105.2380269  18.3376851  27.4546959 117.0495764  18.0980157  39.8947436
 116.7580572  18.4610138  40.7310897 116.4367895  17.3847165  39.7160768
 102.1866459  14.3836939  27.9458573 101.9412501  13.4799269  28.1438783
 102.3562373  14.3854089  27.0038051 108.1994722  16.2398451  43.2125960
 109.1197732  16.4177050  43.4066007 108.1644305  15.2954496  43.0605660
  97.4176887  11.4337044  32.1379235  97.0979672  10.5802352  31.8453609
  96.8710316  11.6485622  32.8937202 101.1956795  14.1499485  35.8548742
 101.4142805  15.0816593  35.8736775 101.6082569  13.7907460  36.6403545
  97.2865147  15.0539956  34.1072357  96.5928619  14.6393908  33.5942311
  98.0338138  15.0960492  33.5105776  99.2001890  14.9858209  31.9838372
  99.1772578  15.0845897  31.0320255  99.5102526  15.8323360  32.3055538
 101.8589268  17.0434364  36.0984986 102.8132521  17.0118307  36.0314918
 101.6601791  16.5824988  36.9135212 102.4488650  15.6135481  38.6655784
 103.2681539  16.1079559  38.6890621 102.7225458  14.6967449  38.6373351
 100.2139497  22.5853984  33.1155184 100.0793964  21.8254385  32.5493182
  99.7971559  23.3094884  32.6483973 103.3708622  23.4823301  33.3273627
 103.2541007  24.4268733  33.2252317 102.5501069  23.1796863  33.7159426
 110.2276956  17.0154462  44.8640121 111.0968116  17.1895114  44.5026756
 109.7483708  17.8348879  44.7415851 104.3963137  24.1351563  36.5429555
 105.2990383  24.1675173  36.8596050 104.1700507  23.2052014  36.5575891
 106.1516739  22.8882549  33.2039634 105.2012370  22.8884411  33.0904006
 106.4549225  22.1415284  32.6875668 114.5545954  30.5305992  30.1943812
 113.9910819  30.4395929  29.4260099 114.4398349  29.7105897  30.6746304
 112.1010386  32.0257184  33.0328032 112.8931678  31.6848009  32.6174331
 112.3407036  32.1352159  33.9530185 114.0601140  31.2866097  25.9045411
 114.8332016  30.7395084  25.7658287 114.4126539  32.1510347  26.1159872
 115.8986182  32.6142479  39.1112310 115.6076048  33.5188110  38.9958977
 116.5343167  32.6559007  39.8256380 116.8242389  29.9919328  35.7013670
 117.4205962  29.7675350  34.9870633 116.8817361  29.2504073  36.3039118
 114.3088549  28.7517692  32.1398808 113.3839046  28.6193906  32.3476500
 114.5572962  29.5311911  32.6368751 111.6697360  28.3950965  32.9742597
 111.7989741  28.6485444  33.8882009 110.9894811  28.9878673  32.6547252
 115.8396847  39.0648215  29.0733072 115.7620877  40.0156040  29.1521552
 115.2358491  38.7194088  29.7307998 116.5860449  29.0461534  41.2912405
 117.3275134  29.5846578  41.0147229 115.8797435  29.6727823  41.4483957
 114.8296647  31.0337755  33.8466704 115.3998004  31.4625023  33.2084189
 115.4204759  30.7520340  34.5450890 115.3221813  26.2001182  42.0927715
 114.6920474  26.8817463  42.3263112 115.2157901  26.0884264  41.1480854
 110.6166786  25.8672978  33.0193640 109.8265840  26.1230507  32.5433750
 111.1078033  26.6821316  33.1245680 112.5681531  26.2317558  29.9777116
 111.7712694  26.3436252  30.4960612 112.3407123  26.5704210  29.1118007
 108.9004489  26.1203469  35.4508630 109.1512527  27.0050479  35.7166206
 109.4364037  25.9408070  34.6783722 114.6002556  20.5021948  44.4552967
 114.2069501  19.9488147  45.1300611 115.4168696  20.8132527  44.8459484
 111.5664614  31.9405806  28.3666536 112.0789134  32.7349057  28.5172101
 112.2187326  31.2432097  28.3000138 113.3759498  35.0571563  30.4489290
 113.5526127  35.9789527  30.2610273 114.1716332  34.7429982  30.8783669
 117.5170517  21.9179827  42.0473223 118.2580230  22.5186980  41.9677686
 117.7488440  21.1757465  41.4891266 112.6611855  27.1036194  40.3251453
 112.5465370  26.2021452  40.6258552 111.8056373  27.3499891  39.9736269
 114.4990814  36.5749736  36.4499632 115.0498239  36.4466800  35.6776626
 113.6602290  36.8744625  36.0994525 109.5313530  30.2694461  29.1426107
 110.3688752  30.6791469  28.9259815 109.7091798  29.3293903  29.1126301
 109.5539702  27.6085176  29.8136840 109.3564101  27.0154537  29.0887907
 108.9986366  27.3037386  30.5312779 117.5336425  27.5008282  31.9331434
 117.5885035  26.5482119  31.8573910 116.7227627  27.6567722  32.4172732
 115.4728785  26.1185342  29.6921812 114.6596651  26.4179513  30.0987005
 115.9687779  25.7241031  30.4096295 114.9642860  23.6903698  35.3083047
 115.6042239  23.5492457  34.6106011 114.1320390  23.4038211  34.9321649
 115.7403164  32.9906128  31.4218040 116.5343762  32.4956448  31.2200615
 115.0294856  32.4623991  31.0585745 112.0485927  27.1349210  27.4977792
 111.1183515  27.0733665  27.7147755 112.1443399  26.6125163  26.7014434
 111.9671476  23.6604023  30.0856034 112.2278294  24.5749356  29.9765195
 112.7888649  23.1928465  30.2352647 113.4396402  25.0741780  37.2554859
 114.1119455  24.8659142  36.6067508 112.6126188  24.8763866  36.8160091
 113.8423899  28.3484383  38.0157296 113.7043697  27.6164622  38.6168835
 114.7528822  28.2593283  37.7341484 116.4706200  28.0604342  37.5040975
 117.1805818  27.4197534  37.4627594 116.4275508  28.3117237  38.4267156
 115.1835134  25.0469560  39.3236615 114.6472491  24.5960298  39.9758211
 114.5951842  25.1815469  38.5807079 113.4783677  41.8133609  33.2181274
 113.7180275  42.4452133  33.8960292 112.6352874  41.4621649  33.5046633
 106.1139533  29.2935371  31.9804586 106.8010573  28.9797101  31.3925601
 105.9587661  30.1976736  31.7071837 110.9174255  24.1825568  36.4089609
 110.8332444  23.5751237  35.6740019 110.0956961  24.6734586  36.4099106
 117.9911539  37.6212732  35.6222778 117.9181710  38.4267703  36.1342082
 117.5488932  37.8204698  34.7970799 115.5022136  35.2694009  38.5986507
 116.2031595  35.9030492  38.7515901 115.0317251  35.6108741  37.8382146
 111.0989854  34.8030364  35.5317610 111.6843291  34.0574052  35.6645514
 110.9014693  35.1134321  36.4154274 113.9528509  37.8381612  30.5480052
 113.2838885  38.3227739  30.0644092 113.8141379  38.0850832  31.4623431
 105.6907509  27.3735965  34.2522053 105.7291608  26.8399555  35.0459171
 105.1847802  26.8471170  33.6333030 113.0698271  22.2200505  37.7484595
 113.1339598  23.0815336  37.3361993 113.0065391  21.6074507  37.0156954
 112.5450544  24.2923638  41.3957629 113.1722582  23.9100715  42.0095154
 111.6878462  24.0737839  41.7613322 109.3216086  26.1000067  27.3275984
 109.6169527  25.1910745  27.2743038 108.4204122  26.0787806  27.0056987
 112.8510333  24.1756063  33.3103533 112.1296919  24.7892031  33.1711006
 113.6403589  24.7113828  33.2320179 115.6536647  21.5110490  39.5844185
 116.1771049  21.7572786  40.3470494 115.4348980  22.3430525  39.1647322
 111.0503928  23.7814164  27.4515309 110.7216634  22.9011543  27.2690415
 111.4043299  23.7261833  28.3391699 116.8589192  22.4524185  37.2693855
 116.5186012  21.6531998  37.6714535 116.1528198  22.7525896  36.6970688
 115.0344243  26.2292618  33.5313157 114.8888823  26.5432921  34.4237438
 114.5569446  26.8477518  32.9784055 116.8940625  23.2195166  33.5794046
 116.8802194  22.3236259  33.2426344 117.6113054  23.2265830  34.2132332
 109.5089905  28.7697962  36.4700818 108.9643373  29.5457770  36.6021092
 110.3869255  29.1168767  36.3119939 110.2955927  27.8967859  39.3630975
 109.5537663  28.0450494  39.9495605 109.9748671  28.1576124  38.4997724
 110.7412540  35.7833287  31.3941369 111.5670560  35.4837059  31.0140013
 110.3906592  35.0140910  31.8431158 115.7094073  35.1359756  33.4639043
 115.0874083  34.4730461  33.1641271 116.3798940  35.1620887  32.7812691
 108.9421145  33.7019614  32.3530303 108.1053054  33.2741788  32.1714304
 108.9144791  33.8952057  33.2901094 115.7818601  23.6141544  43.0571549
 115.8306756  24.4903666  42.6749319 116.3241115  23.0718937  42.4843192
 115.2707580  33.6863679  26.9397504 115.4195701  34.3699143  26.2864176
 116.0774024  33.6668769  27.4546959 118.0117889  24.3672916  39.8117908
 117.1421199  24.6606482  39.5400496 118.2477370  24.9513361  40.5325171
 113.0260213  29.7128856  27.9458573 112.7806255  28.8091186  28.1438783
 113.1956128  29.7146007  27.0038051 108.2570642  26.7628962  32.1379235
 107.9373426  25.9094270  31.8453609 107.7104070  26.9777540  32.8937202
 112.0350549  29.4791403  35.8548742 112.2536559  30.4108511  35.8736775
 112.4476323  29.1199377  36.6403545 116.9078415  25.0524609  45.2451491
 116.8075142  26.0018966  45.1763582 116.6899957  24.7242848  44.3727561
 108.1258902  30.3831873  34.1072357 107.4322373  29.9685826  33.5942311
 108.8731893  30.4252410  33.5105776 116.7709685  28.4821747  44.0616552
 116.2876766  29.2822108  44.2680441 116.8570624  28.4929692  43.1083996
 110.0395644  30.3150127  31.9838372 110.0166332  30.4137814  31.0320255
 110.3496281  31.1615278  32.3055538 112.6983022  32.3726282  36.0984986
 113.6526276  32.3410224  36.0314918 112.4995546  31.9116906  36.9135212
 113.2882404  30.9427398  38.6655784 114.1075293  31.4371477  38.6890621
 113.5619212  30.0259366  38.6373351 111.0533251  37.9145902  33.1155184
 110.9187719  37.1546303  32.5493182 110.6365313  38.6386802  32.6483973
 114.2102377  38.8115219  33.3273627 114.0934761  39.7560651  33.2252317
 113.3894823  38.5088780  33.7159426 108.5417319  25.2765532  39.3647981
 109.1876182  24.7664486  39.8535206 108.3334470  26.0134214  39.9391406
 115.2356891  39.4643481  36.5429555 116.1384138  39.4967091  36.8596050
 115.0094261  38.5343932  36.5575891 116.9910493  38.2174467  33.2039634
 116.0406124  38.2176329  33.0904006 117.2942979  37.4707202  32.6875668
 112.8814810  22.4233149  43.4622995 113.7446271  22.0669954  43.6726320
 112.3080220  22.0847044  44.1498399 116.9533287  44.6227289  31.9804586
 117.6404327  44.3089019  31.3925601 116.7981416  45.5268653  31.7071837
 116.5301263  42.7027882  34.2522053 116.5685363  42.1691473  35.0459171
 116.0241556  42.1763088  33.6333030   1.4800070  53.8256497 103.8822491
   0.8061768  54.1288194 104.4907449   1.8665892  54.6285577 103.5327948
   5.3856955  51.1106753 102.1549938   5.3070587  50.7766616 103.0485696
   6.2066622  51.6028521 102.1541410   2.9560907  48.4274748 101.7759916
   3.6596757  48.6324751 102.3917572   2.2323556  48.9951510 102.0409000
   6.1608402  61.1889833 109.8471969   5.5973267  61.0979770 109.0788256
   6.0460797  60.3689737 110.3274461  11.7407960  64.8560801 105.1586434
  11.0895940  65.4414881 104.7720447  12.5352323  65.3866996 105.2181471
   5.6663587  61.9449938 105.5573568   6.4394463  61.3978925 105.4186444
   6.0188986  62.8094187 105.7688029   8.0029865  58.1042604 103.1892018
   8.2555386  57.5824125 102.4275481   7.0654424  57.9408749 103.2918702
  13.0473148  57.1078382 110.9966761  13.8336237  56.6897806 110.6457178
  13.3111852  58.0124475 111.1648410  13.2183225  62.5451233 105.6955418
  12.5829058  62.6185859 106.4076323  12.8880632  63.1344832 105.0174497
  18.4481575  57.0453616 111.8999740  19.1806747  56.4752832 112.1337569
  17.6920931  56.6575216 112.3406245   7.7226154  60.0070710 105.3916393
   7.6062412  59.3315613 106.0597477   7.8328414  59.5203084 104.5748546
  10.0657695  59.4680857 109.0963082   9.7015902  58.9411478 109.8076004
  10.9224811  59.0779326 108.9229568   9.7063182  54.4970757 104.0924431
   9.8737584  55.3650993 104.4594902   9.5160351  54.6598038 103.1685720
   9.6852403  56.9528414 105.0771097   9.5652028  57.3985465 105.9156578
   8.9904991  57.3013732 104.5184636  15.3837469  57.4249887 105.9051431
  16.2955325  57.6577274 105.7299129  14.8747116  58.0086932 105.3426510
  13.9907051  62.4075706 113.2965013  13.3615914  62.5721420 112.5941081
  13.6032713  62.8217315 114.0675977  17.8696283  63.3430144 110.6509377
  17.1847321  63.7229045 110.1006410  17.9540132  63.9525470 111.3841324
   9.5435013  62.1450114 110.5615098  10.0073359  62.4237817 109.7719721
   9.2791811  61.2433559 110.3788189   8.4803899  58.2673266 107.3704663
   9.1827943  58.7194310 107.8378590   8.1484528  57.6257085 107.9984556
  16.2393043  63.8662058 115.4227078  17.0610486  63.4642245 115.1409759
  16.2355446  63.7630292 116.3743193  24.3299036  60.2100807 111.7712049
  23.5762744  59.6408205 111.6156053  24.4646577  60.1763471 112.7182684
   9.7197664  65.0814209 107.4466768   9.5843339  65.9265745 107.8751616
  10.2607476  65.2833487 106.6832702  13.0340410  58.5953382 104.4838097
  12.5187034  59.3657987 104.7226484  12.7617719  57.9218518 105.1071158
  18.0074684  61.3485737 106.4191270  17.2304127  61.0096896 105.9746433
  18.6866165  61.3538360 105.7446236  12.8226713  56.4680474 106.3097878
  12.5176849  56.7826623 107.1608021  13.7757155  56.5461894 106.3525211
  11.2673145  62.6270697 107.9590832  10.7394507  61.8923457 107.6464070
  10.7660648  63.4045374 107.7130800  16.2465991  60.8219718 113.0757878
  15.5889666  61.5118979 113.1638007  17.0506390  61.2116150 113.4191865
  15.0571450  59.1764091 111.1261820  15.5703332  59.8094082 111.6283530
  15.7072674  58.5765286 110.7605180   6.3261460  55.3194825 104.3393329
   5.4898772  55.6569511 104.6602604   6.1866230  55.1843804 103.4020466
   9.4125745  60.4450908 100.9625805   8.5052807  60.2140161 101.1616954
   9.9096777  59.6488527 101.1499787  12.3193824  69.1548415 103.8822491
  11.6455523  69.4580112 104.4907449  12.7059646  69.9577495 103.5327948
  12.3187329  58.0504962 108.5022841  13.0659148  58.5626359 108.1929963
  12.5878918  57.7289015 109.3627235  10.5913979  60.5463503 105.4849795
   9.6825198  60.2622535 105.5822265  10.6209063  60.9662581 104.6253102
  15.8233246  64.1570092 109.2540963  15.3695573  63.3161002 109.3106153
  15.1927213  64.7931490 109.5915743  14.2666185  65.9946589 110.1890781
  14.5589160  66.5551646 109.4703147  14.7764806  66.2875150 110.9443940
  10.2890067  62.0872246 102.8237874   9.8509496  61.3708105 102.3643511
  11.0300507  62.3148361 102.2622965  18.4063181  60.3629443 108.8814192
  18.2681080  60.5531039 107.9535382  18.0499400  61.1248826 109.3382244
  18.4332561  62.4305970 113.8925464  18.8669068  62.3381259 114.7408518
  19.1464142  62.4063471 113.2545480   3.6548375  57.7933051 107.1505950
   2.7245963  57.7317506 107.3675912   3.7505847  57.2709003 106.3542591
  10.5185039  69.3228087 106.0969571  10.6936795  68.8516130 106.9115193
   9.8317827  69.9493853 106.3250831  11.4742103  63.6000593 112.1432872
  11.1391935  63.5601363 113.0390522  10.9746048  62.9345309 111.6703282
  14.4101294  60.9456628 102.4169931  13.7930465  60.2203456 102.3202984
  13.9417783  61.7065988 102.0737006   6.1999840  55.1642052 101.5391236
   5.3229306  55.0430853 101.1753482   6.6757593  54.3728130 101.2870124
   9.3863766  67.5168342 108.7853756   8.6031288  68.0590023 108.8791981
  10.0856511  68.0342322 109.1847997  20.5490174  59.0303337 113.0706253
  20.5380050  59.9128053 112.7000186  19.6807553  58.6774888 112.8760790
  13.7790197  62.0834659 109.0026385  12.8446476  62.2036122 108.8331089
  13.9566865  61.1807126 108.7386395  17.1662748  57.9251978 109.5376419
  17.6323200  58.7579970 109.4636722  17.6170249  57.4596960 110.2421678
  15.2338979  64.2695800 106.5362571  15.5098823  64.1552394 107.4456445
  14.3643478  63.8713285 106.4974744  11.8693043  68.5182151 110.1795385
  12.0515438  67.7003807 110.6423137  12.6926029  68.7349843 109.7420275
  12.2035209  67.4450336 107.4410433  12.7322975  66.9342790 106.8280595
  12.4663428  67.1292866 108.3055966  11.9045954  66.0752908 111.6138452
  11.7570917  65.1469615 111.7946022  12.7299448  66.0972998 111.1295527
  15.5080076  66.8981466 112.7003325  16.4326624  66.6924328 112.5627776
  15.3395380  66.6497868 113.6092666   7.7576346  53.2245596 105.6712237
   8.4784708  53.6026849 105.1675954   7.1341650  53.9434473 105.7747215
  11.9007469  53.9290745 106.6070569  12.1171083  54.8115383 106.3059397
  11.4201536  53.5376959 105.8776211  15.2975392  67.4167134 108.0565416
  15.4712270  66.8513556 107.3039269  15.7904284  68.2168029 107.8744906
  21.1514784  60.1803557 109.6755716  21.5945930  59.4310882 109.2774839
  20.2741294  60.1713693 109.2929448  16.2850565  66.7333898 105.1562315
  16.9801470  67.3540591 105.3749629  16.6273715  65.8829250 105.4314692
  18.1841988  64.1833604 106.6849645  18.7093312  64.5220877 105.9598965
  18.0964341  63.2480619 106.5012780   6.8770028  64.3447520 106.5925661
   7.0258148  65.0282984 105.9392333   7.6836471  64.3252610 107.1075116
  20.6947648  61.6508795 112.0678164  21.5294540  62.0898599 112.2315724
  20.8306777  61.1747448 111.2486409   4.6322661  60.3712697 107.5986730
   4.3868703  59.4675027 107.7966940   4.8018575  60.3729848 106.6566208
   3.9018308  56.1041055 105.0972891   3.2087553  56.1785410 104.4412927
   3.6570060  55.3401398 105.6194408  10.3765433  66.8395650 104.0637408
   9.8039400  67.4585837 103.6107880  10.9498227  67.3895012 104.5977330
  13.5962693  67.1232800 105.1945990  14.5293366  67.0578362 105.3978866
  13.5085906  67.9589067 104.7360523  16.2250710  66.4398670 102.1549938
  16.1464341  66.1058534 103.0485696  17.0460377  66.9320438 102.1541410
  10.7612232  58.1756463 101.4053461  11.7071337  58.0462671 101.4741879
  10.3826477  57.4371125 101.8822889  24.7405451  60.3676417 114.5032293
  25.4708839  60.1061705 115.0639997  24.1312396  59.6305139 114.5434361
  22.8220748  58.5084279 115.1006745  22.0953912  58.3740244 114.4923236
  22.4068035  58.8161108 115.9063463   8.9455149  56.1006439 101.3408346
   8.0386604  55.8039552 101.4171059   9.2231130  55.8036257 100.4742632
   7.7153934  52.9593374 101.4820325   8.5773098  53.2848273 101.7416142
   7.9004278  52.1724870 100.9693391  15.8686570  51.8321901 108.6255548
  15.2885239  52.4906705 108.2433600  15.6022503  51.0099245 108.2142966
  14.6511448  53.9921991 107.6811896  13.7637303  54.2771642 107.4632091
  15.0665437  53.8315755 106.8339173  13.7954662  63.7566666 101.7759916
  14.4990512  63.9616668 102.3917572  13.0717310  64.3243428 102.0409000
  14.6252472  59.5076527 107.8962186  14.5687673  59.9645079 107.0569819
  15.1780814  58.7467212 107.7185029  18.4357278  55.2966259 108.7212306
  18.1794212  54.8962895 109.5520514  17.8110146  56.0110053 108.5962445
  22.7469616  58.0362332 111.2283597  22.1869174  58.1055522 112.0015159
  22.1413119  57.8603317 110.5083094  15.7041359  64.1949195 103.8258376
  16.5386963  63.7630394 103.6435851  15.5425702  64.0231209 104.7535271
  15.3587251  60.6981308 105.1914716  15.3036055  60.5325580 104.2503160
  14.7333306  61.4057341 105.3476905   8.6683377  50.1989417 104.7700034
   8.6562046  51.1431257 104.9268305   9.5606799  50.0159563 104.4759495
  24.3325634  74.7118846 113.9213553  24.9704044  74.5925594 113.2176893
  24.2146477  75.6599690 113.9801505  21.1415340  74.6646274 113.8575078
  20.8033852  74.5487339 112.9695613  22.0105109  74.2637439 113.8376084
  17.0002156  76.5181751 109.8471969  16.4367021  76.4271688 109.0788256
  16.8854551  75.6981655 110.3274461  22.5801715  80.1852718 105.1586434
  21.9289695  80.7706799 104.7720447  23.3746078  80.7158913 105.2181471
  16.5057342  77.2741856 105.5573568  17.2788218  76.7270843 105.4186444
  16.8582741  78.1386105 105.7688029  18.8423620  73.4334522 103.1892018
  19.0949140  72.9116043 102.4275481  17.9048179  73.2700667 103.2918702
  23.8866903  72.4370300 110.9966761  24.6729992  72.0189723 110.6457178
  24.1505607  73.3416392 111.1648410  24.0576980  77.8743150 105.6955418
  23.4222813  77.9477777 106.4076323  23.7274386  78.4636749 105.0174497
  29.2875330  72.3745533 111.8999740  30.0200502  71.8044750 112.1337569
  28.5314685  71.9867134 112.3406245  18.5619909  75.3362628 105.3916393
  18.4456167  74.6607531 106.0597477  18.6722168  74.8495002 104.5748546
  20.9051449  74.7972775 109.0963082  20.5409657  74.2703396 109.8076004
  21.7618565  74.4071244 108.9229568  26.8100750  66.0867107 116.3594348
  26.4784075  66.9562518 116.1355563  26.2146363  65.7703391 117.0388379
  20.5456936  69.8262674 104.0924431  20.7131339  70.6942911 104.4594902
  20.3554106  69.9889956 103.1685720  26.7029413  70.8062194 113.4387698
  25.7946291  70.7377602 113.1446459  26.6517009  71.2834138 114.2669524
  20.5246157  72.2820332 105.0771097  20.4045783  72.7277383 105.9156578
  19.8298746  72.6305650 104.5184636  28.5691060  69.0078632 115.2165572
  27.9265440  69.3011165 114.5705367  28.0645988  68.8931552 116.0218769
  26.2231223  72.7541805 105.9051431  27.1349080  72.9869192 105.7299129
  25.7140871  73.3378849 105.3426510  24.8300806  77.7367624 113.2965013
  24.2009668  77.9013338 112.5941081  24.4426468  78.1509233 114.0675977
  28.7090038  78.6722061 110.6509377  28.0241076  79.0520963 110.1006410
  28.7933887  79.2817388 111.3841324  24.0102507  69.7743408 118.5727455
  23.7663438  70.5285469 118.0361730  24.2862437  70.1528756 119.4074702
  25.9640969  76.3182020 117.2504720  26.1757865  76.9613780 116.5739101
  25.9170718  75.4844337 116.7826650  23.5667198  68.9299841 114.1541292
  22.7051677  69.2281095 114.4458030  23.5929633  69.1470240 113.2222325
  20.3828768  77.4742032 110.5615098  20.8467113  77.7529735 109.7719721
  20.1185566  76.5725476 110.3788189  19.3197654  73.5965184 107.3704663
  20.0221697  74.0486228 107.8378590  18.9878282  72.9549003 107.9984556
  27.0786797  79.1953976 115.4227078  27.9004241  78.7934163 115.1409759
  27.0749200  79.0922210 116.3743193  15.0137733  72.2193316 109.6305273
  14.2168896  72.3312010 110.1488769  14.7863325  72.5579968 108.7646164
  35.1692790  75.5392724 111.7712049  34.4156499  74.9700122 111.6156053
  35.3040331  75.5055389 112.7182684  20.5591418  80.4106127 107.4466768
  20.4237093  81.2557662 107.8751616  21.1001231  80.6125404 106.6832702
  23.9083882  63.9336689 115.9765662  23.5648151  64.8238330 115.9004772
  24.2762844  63.7438346 115.1135247  23.8734165  73.9245300 104.4838097
  23.3580788  74.6949904 104.7226484  23.6011473  73.2510436 105.1071158
  21.4581276  68.7695000 109.5423335  20.6022872  68.3801851 109.3628974
  21.8708227  68.8486961 108.6823121  22.9880422  66.3041344 113.9414895
  22.4845218  66.2671479 113.1282700  23.2811029  67.2134086 114.0011552
  19.2323308  66.3880073 112.9481077  20.0976305  66.1922882 112.5886966
  19.3000817  66.1590425 113.8750434  28.8468439  76.6777654 106.4191270
  28.0697882  76.3388814 105.9746433  29.5259920  76.6830277 105.7446236
  23.6620468  71.7972392 106.3097878  23.3570603  72.1118541 107.1608021
  24.6150910  71.8753812 106.3525211  22.1066900  77.9562615 107.9590832
  21.5788261  77.2215375 107.6464070  21.6054402  78.7337291 107.7130800
  27.0859746  76.1511636 113.0757878  26.4283420  76.8410897 113.1638007
  27.8900145  76.5408067 113.4191865  16.8385627  68.6182281 110.3197444
  17.4129379  68.3957463 109.5870637  17.4256610  68.6870976 111.0726045
  25.8965204  74.5056008 111.1261820  26.4097086  75.1386000 111.6283530
  26.5466428  73.9057204 110.7605180  17.1655214  70.6486742 104.3393329
  16.3292527  70.9861429 104.6602604  17.0259984  70.5135722 103.4020466
  19.1408295  65.4923530 109.0472513  18.4872707  65.1772547 108.4229128
  19.0988769  64.8699271 109.7732336  20.2519500  75.7742825 100.9625805
  19.3446562  75.5432079 101.1616954  20.7490532  74.9780445 101.1499787
  23.1587579  84.4840332 103.8822491  22.4849277  84.7872029 104.4907449
  23.5453401  85.2869413 103.5327948  22.3746035  71.9805464 113.3720161
  21.4568597  72.2020411 113.2141849  22.7906179  72.0551774 112.5131868
  23.1581083  73.3796879 108.5022841  23.9052902  73.8918277 108.1929963
  23.4272673  73.0580932 109.3627235  21.4307733  75.8755420 105.4849795
  20.5218953  75.5914453 105.5822265  21.4602817  76.2954499 104.6253102
  26.6627001  79.4862010 109.2540963  26.2089328  78.6452920 109.3106153
  26.0320967  80.1223408 109.5915743  25.6059920  70.4153996 110.4841630
  24.8682677  69.9031382 110.8151873  25.8586694  69.9754377 109.6724907
  25.1059940  81.3238506 110.1890781  25.3982914  81.8843563 109.4703147
  25.6158560  81.6167067 110.9443940  25.7071548  63.1930248 111.0783400
  26.0130424  62.3327611 110.7909315  26.4324152  63.7847868 110.8782393
  19.9792627  73.4884041 111.5859591  20.0341237  72.5357877 111.5102067
  19.1683829  73.6443480 112.0700889  21.1283821  77.4164164 102.8237874
  20.6903251  76.7000023 102.3643511  21.8694262  77.6440279 102.2622965
  17.9184987  72.1061101 109.3449969  17.1052853  72.4055271 109.7515162
  18.4143981  71.7116789 110.0624452  23.5159199  72.5702925 118.1764863
  23.8708587  72.7974398 119.0359329  24.1631330  72.9021302 117.5542119
  29.2456936  75.6921361 108.8814192  29.1074834  75.8822957 107.9535382
  28.8893155  76.4540744 109.3382244  17.4099062  69.6779456 114.9611204
  18.0498441  69.5368215 114.2634168  16.5776593  69.3913969 114.5849806
  29.2726315  77.7597888 113.8925464  29.7062822  77.6673177 114.7408518
  29.9857896  77.7355388 113.2545480  14.4942129  73.1224968 107.1505950
  13.5639717  73.0609424 107.3675912  14.5899601  72.6000921 106.3542591
  14.4127678  69.6479781 109.7384191  14.6734496  70.5625114 109.6293352
  15.2344851  69.1804224 109.8880804  30.1341865  77.8021589 116.4258349
  30.3277755  78.7067399 116.6717624  30.0342483  77.3429008 117.2596934
  21.7878176  67.6879479 118.9248677  21.1406091  68.3869429 118.8313153
  22.5579191  68.1215623 119.2924925  21.3578794  84.6520005 106.0969571
  21.5330550  84.1808048 106.9115193  20.6711582  85.2785771 106.3250831
  22.3135857  78.9292511 112.1432872  21.9785690  78.8893281 113.0390522
  21.8139803  78.2637227 111.6703282  25.2495049  76.2748545 102.4169931
  24.6324219  75.5495374 102.3202984  24.7811537  77.0357906 102.0737006
  17.0393595  70.4933970 101.5391236  16.1623061  70.3722771 101.1753482
  17.5151348  69.7020048 101.2870124  20.2257521  82.8460260 108.7853756
  19.4425043  83.3881940 108.8791981  20.9250266  83.3634240 109.1847997
  23.5354171  68.6554890 111.4287962  24.0322870  67.9024852 111.1089032
  22.7641152  68.6919206 110.8631171  31.3883928  74.3595255 113.0706253
  31.3773804  75.2419971 112.7000186  30.5201308  74.0066806 112.8760790
  24.6183951  77.4126577 109.0026385  23.6840230  77.5328039 108.8331089
  24.7960620  76.5099044 108.7386395  20.1189139  70.7972273 111.1559646
  19.7486927  70.2443313 111.8440552  20.6148232  70.1930406 110.6034646
  28.0056503  73.2543896 109.5376419  28.4716955  74.0871888 109.4636722
  28.4564003  72.7888878 110.2421678  26.0732734  79.5987717 106.5362571
  26.3492578  79.4844312 107.4456445  25.2037233  79.2005202 106.4974744
  25.9773166  65.6224483 113.5767320  25.0636245  65.8528710 113.7449527
  26.4066267  65.7062927 114.4281353  25.7479624  73.8114375 116.0767214
  25.0951074  74.0590283 115.4219667  26.1260004  72.9978513 115.7429692
  22.7086798  83.8474068 110.1795385  22.8909192  83.0295724 110.6423137
  23.5319784  84.0641761 109.7420275  23.0428963  82.7742253 107.4410433
  23.5716730  82.2634708 106.8280595  23.3057183  82.4584784 108.3055966
  11.7672288  72.0875825 106.9804141  12.0625730  71.1786503 106.9271195
  10.8660324  72.0663564 106.6585144  13.4960130  69.7689923 107.1043467
  13.1672836  68.8887302 106.9218572  13.8499501  69.7137591 107.9919856
  22.7439709  81.4044825 111.6138452  22.5964671  80.4761533 111.7946022
  23.5693202  81.4264916 111.1295527  16.6101953  70.0562892 107.4718944
  16.9498026  70.5848814 106.7497553  17.0574074  70.3943299 108.2477511
  26.3473831  82.2273384 112.7003325  27.2720378  82.0216245 112.5627776
  26.1789134  81.9789785 113.6092666  19.3045394  68.4399943 116.9222012
  18.9642214  67.6407756 117.3242692  18.5984400  68.7401654 116.3498845
  19.9561866  65.5249256 115.3749335  20.7787935  65.0509734 115.2528226
  20.1999929  66.3039739 115.8748022  18.5970100  68.5537514 105.6712237
  19.3178463  68.9318767 105.1675954  17.9735404  69.2726391 105.7747215
  22.7401223  69.2582663 106.6070569  22.9564838  70.1407301 106.3059397
  22.2595290  68.8668876 105.8776211  19.3396827  69.2070924 113.2322203
  19.3258396  68.3112018 112.8954501  20.0569256  69.2141588 113.8660489
  21.1922958  69.6408264 115.2775331  20.9340736  70.5625335 115.2759661
  20.6607999  69.2438699 115.9675795  26.1369147  82.7459052 108.0565416
  26.3106024  82.1805474 107.3039269  26.6298038  83.5459946 107.8744906
  18.7433723  68.0885305 108.5009774  18.8649635  67.1601951 108.7000661
  18.4535766  68.1023991 107.5888089  21.6124914  65.7740215 111.6376493
  21.6346611  65.8379548 110.6828473  22.0292973  64.9344724 111.8317000
  31.9908538  75.5095475 109.6755716  32.4339684  74.7602800 109.2774839
  31.1135048  75.5005611 109.2929448  27.1244319  82.0625816 105.1562315
  27.8195224  82.6832509 105.3749629  27.4667470  81.2121167 105.4314692
  29.0235743  79.5125522 106.6849645  29.5487067  79.8512794 105.9598965
  28.9358095  78.5772537 106.5012780  28.8327524  76.9950892 119.3033572
  28.8825529  76.8300899 120.2449095  28.7241447  76.1278151 118.9131453
  17.7163782  79.6739437 106.5925661  17.8651903  80.3574902 105.9392333
  18.5230226  79.6544527 107.1075116  31.5341403  76.9800713 112.0678164
  32.3688294  77.4190517 112.2315724  31.6700532  76.5039366 111.2486409
  28.5832909  74.5380448 118.0155651  29.0587030  74.7308094 117.2074503
  27.6598474  74.5939634 117.7699035  15.4716415  75.7004615 107.5986730
  15.2262457  74.7966945 107.7966940  15.6412330  75.7021765 106.6566208
  23.1613125  66.5728291 116.9811485  23.6795069  67.3089318 116.6557974
  22.8068258  66.8792285 117.8158244  14.7412063  71.4332972 105.0972891
  14.0481308  71.5077327 104.4412927  14.4963815  70.6693316 105.6194408
  23.4125719  62.9928574 112.5012382  23.6927473  62.3251763 113.1272808
  24.1976326  63.1857669 111.9887046  21.2159188  82.1687568 104.0637408
  20.6433155  82.7877755 103.6107880  21.7891982  82.7186929 104.5977330
  27.2834578  71.4146208 116.2483957  28.2352001  71.5144305 116.2696181
  27.1138028  70.6224476 116.7582041  25.3048957  68.5001791 116.4343358
  24.7098889  68.7806804 115.7389846  25.0198654  68.9895692 117.2060099
  24.4356448  82.4524718 105.1945990  25.3687121  82.3870279 105.3978866
  24.3479660  83.2880985 104.7360523  27.0644464  81.7690588 102.1549938
  26.9858096  81.4350452 103.0485696  27.8854131  82.2612356 102.1541410
  29.7622656  74.6352327 115.3626257  29.7298976  73.6968328 115.5485940
  30.3723279  74.7136364 114.6292081  21.6005986  73.5048380 101.4053461
  22.5465091  73.3754589 101.4741879  21.2220231  72.7663042 101.8822889
  29.9117144  71.4263371 115.4084540  29.3956193  70.6421828 115.2214469
  30.7957093  71.0982088 115.5731059  27.5727871  65.1704386 111.3680352
  27.3752692  64.8619475 112.2523684  28.1827576  65.8966025 111.4978282
  35.5799205  75.6968334 114.5032293  36.3102594  75.4353622 115.0639997
  34.9706151  74.9597056 114.5434361  33.6614502  73.8376197 115.1006745
  32.9347666  73.7032162 114.4923236  33.2461789  74.1453025 115.9063463
  19.7848904  71.4298357 101.3408346  18.8780359  71.1331470 101.4171059
  20.0624885  71.1328175 100.4742632  21.4010969  65.9735247 107.4952587
  20.5911698  65.6282332 107.8707833  22.0895386  65.6642790 108.0840199
  23.3301518  65.0513293 109.1176884  23.8832556  65.4708747 109.7766907
  23.5671604  64.1249041 109.1599840  18.5547688  68.2885292 101.4820325
  19.4166852  68.6140190 101.7416142  18.7398032  67.5016788 100.9693391
  26.7080325  67.1613818 108.6255548  26.1278994  67.8198623 108.2433600
  26.4416257  66.3391163 108.2142966  25.1583891  66.5618876 110.8276868
  25.6583669  66.6735411 110.0191187  25.8019499  66.2579929 111.4677677
  25.4905203  69.3213909 107.6811896  24.6031058  69.6063560 107.4632091
  25.9059192  69.1607672 106.8339173  28.8419739  69.3460430 111.3966236
  29.6180129  69.8356882 111.6690852  28.1167873  69.7718484 111.8538105
  31.2792297  70.0588049 112.4540176  31.8736788  69.8183785 111.7433484
  31.3518881  69.3395180 113.0813712  24.6348416  79.0858584 101.7759916
  25.3384266  79.2908586 102.3917572  23.9111065  79.6535345 102.0409000
  25.4646226  74.8368445 107.8962186  25.4081428  75.2936996 107.0569819
  26.0174569  74.0759129 107.7185029  29.2751032  70.6258177 108.7212306
  29.0187967  70.2254812 109.5520514  28.6503900  71.3401971 108.5962445
  33.5863370  73.3654250 111.2283597  33.0262928  73.4347439 112.0015159
  32.9806874  73.1895235 110.5083094  26.5435114  79.5241113 103.8258376
  27.3780717  79.0922311 103.6435851  26.3819456  79.3523126 104.7535271
  26.1981006  76.0273226 105.1914716  26.1429809  75.8617497 104.2503160
  25.5727061  76.7349259 105.3476905  19.5077131  65.5281335 104.7700034
  19.4955801  66.4723175 104.9268305  20.4000553  65.3451480 104.4759495
  23.3229251  62.1224112 109.0245971  22.5561646  61.5682598 109.1702653
  23.7339956  62.1945980 109.8860122  35.1719389  90.0410764 113.9213553
  35.8097799  89.9217511 113.2176893  35.0540231  90.9891608 113.9801505
  31.9809095  89.9938192 113.8575078  31.6427606  89.8779257 112.9695613
  32.8498863  89.5929357 113.8376084  27.8395911  91.8473668 109.8471969
  27.2760776  91.7563605 109.0788256  27.7248306  91.0273573 110.3274461
  33.4195469  95.5144636 105.1586434  32.7683449  96.0998716 104.7720447
  34.2139832  96.0450831 105.2181471  27.3451096  92.6033773 105.5573568
  28.1181972  92.0562760 105.4186444  27.6976495  93.4678023 105.7688029
  29.6817374  88.7626439 103.1892018  29.9342895  88.2407961 102.4275481
  28.7441933  88.5992585 103.2918702  34.7260657  87.7662218 110.9966761
  35.5123746  87.3481641 110.6457178  34.9899361  88.6708310 111.1648410
  34.8970734  93.2035068 105.6955418  34.2616567  93.2769695 106.4076323
  34.5668141  93.7928667 105.0174497  40.1269084  87.7037451 111.8999740
  40.8594256  87.1336668 112.1337569  39.3708440  87.3159051 112.3406245
  29.4013663  90.6654545 105.3916393  29.2849921  89.9899449 106.0597477
  29.5115923  90.1786919 104.5748546  31.7445204  90.1264692 109.0963082
  31.3803411  89.5995313 109.8076004  32.6012320  89.7363161 108.9229568
  37.6494505  81.4159025 116.3594348  37.3177829  82.2854436 116.1355563
  37.0540118  81.0995309 117.0388379  31.3850691  85.1554592 104.0924431
  31.5525093  86.0234829 104.4594902  31.1947860  85.3181874 103.1685720
  37.5423168  86.1354111 113.4387698  36.6340045  86.0669520 113.1446459
  37.4910764  86.6126056 114.2669524  31.3639912  87.6112250 105.0771097
  31.2439537  88.0569300 105.9156578  30.6692500  87.9597567 104.5184636
  39.4084814  84.3370550 115.2165572  38.7659195  84.6303083 114.5705367
  38.9039743  84.2223470 116.0218769  37.0624978  88.0833723 105.9051431
  37.9742834  88.3161110 105.7299129  36.5534625  88.6670767 105.3426510
  35.6694560  93.0659541 113.2965013  35.0403423  93.2305255 112.5941081
  35.2820222  93.4801151 114.0675977  39.5483792  94.0013979 110.6509377
  38.8634830  94.3812880 110.1006410  39.6327641  94.6109306 111.3841324
  34.8496261  85.1035326 118.5727455  34.6057193  85.8577386 118.0361730
  35.1256192  85.4820673 119.4074702  36.8034724  91.6473938 117.2504720
  37.0151619  92.2905698 116.5739101  36.7564472  90.8136255 116.7826650
  34.4060953  84.2591759 114.1541292  33.5445432  84.5573012 114.4458030
  34.4323387  84.4762158 113.2222325  31.2222522  92.8033949 110.5615098
  31.6860868  93.0821652 109.7719721  30.9579320  91.9017394 110.3788189
  30.1591408  88.9257102 107.3704663  30.8615452  89.3778145 107.8378590
  29.8272037  88.2840921 107.9984556  37.9180552  94.5245894 115.4227078
  38.7397995  94.1226081 115.1409759  37.9142955  94.4214128 116.3743193
  25.8531488  87.5485234 109.6305273  25.0562651  87.6603928 110.1488769
  25.6257080  87.8871886 108.7646164  46.0086545  90.8684642 111.7712049
  45.2550253  90.2992040 111.6156053  46.1434086  90.8347307 112.7182684
  31.3985173  95.7398044 107.4466768  31.2630848  96.5849580 107.8751616
  31.9394985  95.9417322 106.6832702  34.7477636  79.2628606 115.9765662
  34.4041906  80.1530248 115.9004772  35.1156599  79.0730264 115.1135247
  34.7127919  89.2537217 104.4838097  34.1974543  90.0241822 104.7226484
  34.4405228  88.5802353 105.1071158  32.2975030  84.0986918 109.5423335
  31.4416626  83.7093768 109.3628974  32.7101982  84.1778879 108.6823121
  33.8274177  81.6333261 113.9414895  33.3238972  81.5963397 113.1282700
  34.1204784  82.5426004 114.0011552  30.0717063  81.7171991 112.9481077
  30.9370059  81.5214800 112.5886966  30.1394572  81.4882343 113.8750434
  39.6862193  92.0069572 106.4191270  38.9091636  91.6680731 105.9746433
  40.3653674  92.0122195 105.7446236  34.5014222  87.1264309 106.3097878
  34.1964358  87.4410459 107.1608021  35.4544664  87.2045729 106.3525211
  32.9460654  93.2854533 107.9590832  32.4182016  92.5507292 107.6464070
  32.4448157  94.0629209 107.7130800  37.9253500  91.4803553 113.0757878
  37.2677175  92.1702815 113.1638007  38.7293899  91.8699985 113.4191865
  27.6779382  83.9474199 110.3197444  28.2523134  83.7249380 109.5870637
  28.2650364  84.0162894 111.0726045  36.7358959  89.8347926 111.1261820
  37.2490841  90.4677918 111.6283530  37.3860183  89.2349121 110.7605180
  28.0048969  85.9778660 104.3393329  27.1686281  86.3153347 104.6602604
  27.8653738  85.8427640 103.4020466  29.9802049  80.8215448 109.0472513
  29.3266462  80.5064465 108.4229128  29.9382524  80.1991188 109.7732336
  31.0913254  91.1034743 100.9625805  30.1840316  90.8723996 101.1616954
  31.5884286  90.3072362 101.1499787  33.9981333  99.8132250 103.8822491
  33.3243032 100.1163947 104.4907449  34.3847155 100.6161331 103.5327948
  33.2139790  87.3097381 113.3720161  32.2962351  87.5312328 113.2141849
  33.6299933  87.3843692 112.5131868  33.9974838  88.7088797 108.5022841
  34.7446657  89.2210194 108.1929963  34.2666427  88.3872850 109.3627235
  32.2701488  91.2047338 105.4849795  31.3612707  90.9206371 105.5822265
  32.2996572  91.6246416 104.6253102  37.5020755  94.8153927 109.2540963
  37.0483082  93.9744837 109.3106153  36.8714722  95.4515326 109.5915743
  36.4453675  85.7445913 110.4841630  35.7076432  85.2323300 110.8151873
  36.6980448  85.3046295 109.6724907  35.9453694  96.6530424 110.1890781
  36.2376669  97.2135481 109.4703147  36.4552315  96.9458985 110.9443940
  36.5465302  78.5222165 111.0783400  36.8524179  77.6619529 110.7909315
  37.2717907  79.1139786 110.8782393  30.8186382  88.8175958 111.5859591
  30.8734992  87.8649795 111.5102067  30.0077584  88.9735398 112.0700889
  31.9677576  92.7456082 102.8237874  31.5297005  92.0291940 102.3643511
  32.7088016  92.9732196 102.2622965  28.7578742  87.4353018 109.3449969
  27.9446607  87.7347189 109.7515162  29.2537736  87.0408707 110.0624452
  34.3552953  87.8994843 118.1764863  34.7102341  88.1266316 119.0359329
  35.0025085  88.2313219 117.5542119  40.0850690  91.0213279 108.8814192
  39.9468589  91.2114875 107.9535382  39.7286909  91.7832661 109.3382244
  28.2492816  85.0071374 114.9611204  28.8892196  84.8660133 114.2634168
  27.4170347  84.7205887 114.5849806  40.1120070  93.0889806 113.8925464
  40.5456577  92.9965095 114.7408518  40.8251651  93.0647306 113.2545480
  25.3335884  88.4516886 107.1505950  24.4033472  88.3901341 107.3675912
  25.4293356  87.9292839 106.3542591  25.2521433  84.9771699 109.7384191
  25.5128250  85.8917032 109.6293352  26.0738605  84.5096141 109.8880804
  40.9735619  93.1313506 116.4258349  41.1671510  94.0359317 116.6717624
  40.8736238  92.6720925 117.2596934  32.6271930  83.0171397 118.9248677
  31.9799845  83.7161346 118.8313153  33.3972946  83.4507541 119.2924925
  32.1972548  99.9811923 106.0969571  32.3724304  99.5099966 106.9115193
  31.5105336 100.6077689 106.3250831  33.1529612  94.2584429 112.1432872
  32.8179444  94.2185199 113.0390522  32.6533557  93.5929145 111.6703282
  36.0888803  91.6040463 102.4169931  35.4717974  90.8787291 102.3202984
  35.6205292  92.3649823 102.0737006  27.8787349  85.8225887 101.5391236
  27.0016815  85.7014688 101.1753482  28.3545102  85.0311966 101.2870124
  31.0651275  98.1752178 108.7853756  30.2818797  98.7173858 108.8791981
  31.7644020  98.6926157 109.1847997  34.3747925  83.9846807 111.4287962
  34.8716625  83.2316770 111.1089032  33.6034907  84.0211124 110.8631171
  42.2277683  89.6887173 113.0706253  42.2167559  90.5711888 112.7000186
  41.3595062  89.3358724 112.8760790  35.4577706  92.7418495 109.0026385
  34.5233985  92.8619957 108.8331089  35.6354374  91.8390961 108.7386395
  30.9582894  86.1264190 111.1559646  30.5880681  85.5735231 111.8440552
  31.4541986  85.5222324 110.6034646  38.8450257  88.5835814 109.5376419
  39.3110709  89.4163805 109.4636722  39.2957758  88.1180795 110.2421678
  36.9126488  94.9279635 106.5362571  37.1886332  94.8136230 107.4456445
  36.0430987  94.5297120 106.4974744  36.8166920  80.9516401 113.5767320
  35.9030000  81.1820628 113.7449527  37.2460021  81.0354845 114.4281353
  36.5873379  89.1406293 116.0767214  35.9344829  89.3882200 115.4219667
  36.9653758  88.3270431 115.7429692  33.5480552  99.1765986 110.1795385
  33.7302947  98.3587642 110.6423137  34.3713538  99.3933678 109.7420275
  33.8822718  98.1034171 107.4410433  34.4110484  97.5926626 106.8280595
  34.1450937  97.7876701 108.3055966  22.6066043  87.4167743 106.9804141
  22.9019484  86.5078421 106.9271195  21.7054079  87.3955482 106.6585144
  24.3353884  85.0981840 107.1043467  24.0066591  84.2179219 106.9218572
  24.6893255  85.0429509 107.9919856  33.5833463  96.7336743 111.6138452
  33.4358426  95.8053451 111.7946022  34.4086957  96.7556834 111.1295527
  27.4495708  85.3854810 107.4718944  27.7891780  85.9140731 106.7497553
  27.8967828  85.7235216 108.2477511  37.1867585  97.5565302 112.7003325
  38.1114133  97.3508163 112.5627776  37.0182889  97.3081703 113.6092666
  30.1439148  83.7691861 116.9222012  29.8035969  82.9699674 117.3242692
  29.4378155  84.0693572 116.3498845  30.7955620  80.8541173 115.3749335
  31.6181690  80.3801652 115.2528226  31.0393684  81.6331657 115.8748022
  29.4363855  83.8829432 105.6712237  30.1572217  84.2610685 105.1675954
  28.8129159  84.6018309 105.7747215  33.5794978  84.5874581 106.6070569
  33.7958592  85.4699219 106.3059397  33.0989045  84.1960794 105.8776211
  30.1790582  84.5362842 113.2322203  30.1652151  83.6403935 112.8954501
  30.8963010  84.5433506 113.8660489  32.0316713  84.9700182 115.2775331
  31.7734490  85.8917253 115.2759661  31.5001753  84.5730617 115.9675795
  36.9762901  98.0750969 108.0565416  37.1499779  97.5097392 107.3039269
  37.4691793  98.8751864 107.8744906  29.5827478  83.4177222 108.5009774
  29.7043389  82.4893868 108.7000661  29.2929520  83.4315908 107.5888089
  32.4518668  81.1032133 111.6376493  32.4740365  81.1671466 110.6828473
  32.8686727  80.2636641 111.8317000  42.8302293  90.8387392 109.6755716
  43.2733439  90.0894717 109.2774839  41.9528803  90.8297529 109.2929448
  37.9638074  97.3917734 105.1562315  38.6588979  98.0124426 105.3749629
  38.3061224  96.5413085 105.4314692  39.8629497  94.8417439 106.6849645
  40.3880821  95.1804712 105.9598965  39.7751850  93.9064455 106.5012780
  39.6721278  92.3242809 119.3033572  39.7219283  92.1592817 120.2449095
  39.5635201  91.4570068 118.9131453  28.5557537  95.0031355 106.5925661
  28.7045657  95.6866819 105.9392333  29.3623980  94.9836445 107.1075116
  42.3735157  92.3092631 112.0678164  43.2082049  92.7482435 112.2315724
  42.5094286  91.8331284 111.2486409  39.4226663  89.8672365 118.0155651
  39.8980785  90.0600012 117.2074503  38.4992229  89.9231551 117.7699035
  26.3110170  91.0296533 107.5986730  26.0656212  90.1258863 107.7966940
  26.4806084  91.0313683 106.6566208  34.0006880  81.9020209 116.9811485
  34.5188824  82.6381236 116.6557974  33.6462012  82.2084202 117.8158244
  25.5805817  86.7624890 105.0972891  24.8875062  86.8369245 104.4412927
  25.3357569  85.9985234 105.6194408  34.2519474  78.3220491 112.5012382
  34.5321228  77.6543681 113.1272808  35.0370081  78.5149587 111.9887046
  32.0552942  97.4979485 104.0637408  31.4826909  98.1169672 103.6107880
  32.6285736  98.0478847 104.5977330  38.1228332  86.7438125 116.2483957
  39.0745755  86.8436223 116.2696181  37.9531783  85.9516394 116.7582041
  36.1442712  83.8293709 116.4343358  35.5492644  84.1098721 115.7389846
  35.8592408  84.3187610 117.2060099  35.2750202  97.7816635 105.1945990
  36.2080875  97.7162197 105.3978866  35.1873415  98.6172902 104.7360523
  37.9038219  97.0982506 102.1549938  37.8251850  96.7642369 103.0485696
  38.7247886  97.5904274 102.1541410  40.6016410  89.9644245 115.3626257
  40.5692730  89.0260246 115.5485940  41.2117034  90.0428282 114.6292081
  32.4399741  88.8340298 101.4053461  33.3858846  88.7046506 101.4741879
  32.0613986  88.0954960 101.8822889  40.7510898  86.7555289 115.4084540
  40.2349947  85.9713745 115.2214469  41.6350847  86.4274005 115.5731059
  38.4121625  80.4996304 111.3680352  38.2146447  80.1911392 112.2523684
  39.0221331  81.2257943 111.4978282  46.4192960  91.0260252 114.5032293
  47.1496348  90.7645540 115.0639997  45.8099905  90.2888974 114.5434361
  44.5008257  89.1668115 115.1006745  43.7741421  89.0324079 114.4923236
  44.0855544  89.4744943 115.9063463  30.6242658  86.7590274 101.3408346
  29.7174113  86.4623387 101.4171059  30.9018639  86.4620093 100.4742632
  32.2404724  81.3027164 107.4952587  31.4305452  80.9574249 107.8707833
  32.9289141  80.9934708 108.0840199  34.1695272  80.3805211 109.1176884
  34.7226311  80.8000664 109.7766907  34.4065358  79.4540959 109.1599840
  29.3941443  83.6177210 101.4820325  30.2560607  83.9432108 101.7416142
  29.5791787  82.8308706 100.9693391  37.5474079  82.4905736 108.6255548
  36.9672748  83.1490540 108.2433600  37.2810012  81.6683081 108.2142966
  35.9977645  81.8910794 110.8276868  36.4977424  82.0027328 110.0191187
  36.6413253  81.5871847 111.4677677  36.3298957  84.6505827 107.6811896
  35.4424812  84.9355477 107.4632091  36.7452946  84.4899590 106.8339173
  39.6813493  84.6752348 111.3966236  40.4573883  85.1648800 111.6690852
  38.9561627  85.1010402 111.8538105  42.1186052  85.3879967 112.4540176
  42.7130543  85.1475703 111.7433484  42.1912636  84.6687097 113.0813712
  35.4742171  94.4150501 101.7759916  36.1778021  94.6200504 102.3917572
  34.7504819  94.9827263 102.0409000  36.3039981  90.1660362 107.8962186
  36.2475182  90.6228914 107.0569819  36.8568323  89.4051047 107.7185029
  40.1144787  85.9550094 108.7212306  39.8581721  85.5546730 109.5520514
  39.4897655  86.6693888 108.5962445  44.4257125  88.6946168 111.2283597
  43.8656683  88.7639357 112.0015159  43.8200628  88.5187152 110.5083094
  37.3828868  94.8533030 103.8258376  38.2174472  94.4214229 103.6435851
  37.2213211  94.6815044 104.7535271  37.0374760  91.3565144 105.1914716
  36.9823564  91.1909415 104.2503160  36.4120815  92.0641177 105.3476905
  30.3470886  80.8573253 104.7700034  30.3349555  81.8015093 104.9268305
  31.2394308  80.6743398 104.4759495  34.1623005  77.4516029 109.0245971
  33.3955401  76.8974516 109.1702653  34.5733710  77.5237898 109.8860122
  38.6789665 107.1765586 109.8471969  38.1154530 107.0855523 109.0788256
  38.5642060 106.3565491 110.3274461  44.2589224 110.8436554 105.1586434
  43.6077204 111.4290634 104.7720447  45.0533587 111.3742749 105.2181471
  38.1844851 107.9325691 105.5573568  38.9575727 107.3854678 105.4186444
  38.5370250 108.7969940 105.7688029  40.5211129 104.0918357 103.1892018
  40.7736649 103.5699878 102.4275481  39.5835688 103.9284502 103.2918702
  45.5654412 103.0954135 110.9966761  46.3517501 102.6773559 110.6457178
  45.8293116 104.0000228 111.1648410  45.7364489 108.5326986 105.6955418
  45.1010322 108.6061612 106.4076323  45.4061895 109.1220585 105.0174497
  40.2407418 105.9946463 105.3916393  40.1243676 105.3191366 106.0597477
  40.3509677 105.5078837 104.5748546  42.5838958 105.4556610 109.0963082
  42.2197166 104.9287231 109.8076004  43.4406074 105.0655079 108.9229568
  42.2244445 100.4846510 104.0924431  42.3918848 101.3526746 104.4594902
  42.0341614 100.6473791 103.1685720  42.2033666 102.9404167 105.0771097
  42.0833291 103.3861218 105.9156578  41.5086255 103.2889485 104.5184636
  47.9018732 103.4125640 105.9051431  48.8136589 103.6453027 105.7299129
  47.3928380 103.9962685 105.3426510  45.2454707  99.5883676 114.1541292
  44.3839186  99.8864930 114.4458030  45.2717142  99.8054075 113.2222325
  42.0616277 108.1325867 110.5615098  42.5254622 108.4113570 109.7719721
  41.7973075 107.2309312 110.3788189  40.9985163 104.2549019 107.3704663
  41.7009206 104.7070063 107.8378590  40.6665791 103.6132838 107.9984556
  36.6925242 102.8777151 109.6305273  35.8956405 102.9895846 110.1488769
  36.4650834 103.2163803 108.7646164  42.2378927 111.0689962 107.4466768
  42.1024602 111.9141498 107.8751616  42.7788740 111.2709240 106.6832702
  45.5871391  94.5920524 115.9765662  45.2435660  95.4822166 115.9004772
  45.9550353  94.4022182 115.1135247  45.5521674 104.5829135 104.4838097
  45.0368297 105.3533740 104.7226484  45.2798982 103.9094271 105.1071158
  43.1368785  99.4278836 109.5423335  42.2810381  99.0385686 109.3628974
  43.5495736  99.5070797 108.6823121  44.6667931  96.9625179 113.9414895
  44.1632727  96.9255314 113.1282700  44.9598538  97.8717922 114.0011552
  40.9110817  97.0463909 112.9481077  41.7763814  96.8506717 112.5886966
  40.9788326  96.8174261 113.8750434  50.5255948 107.3361490 106.4191270
  49.7485390 106.9972649 105.9746433  51.2047429 107.3414113 105.7446236
  45.3407977 102.4556227 106.3097878  45.0358112 102.7702376 107.1608021
  46.2938419 102.5337647 106.3525211  43.7854409 108.6146450 107.9590832
  43.2575770 107.8799210 107.6464070  43.2841911 109.3921127 107.7130800
  38.5173136  99.2766117 110.3197444  39.0916888  99.0541298 109.5870637
  39.1044119  99.3454811 111.0726045  38.8442723 101.3070578 104.3393329
  38.0080036 101.6445264 104.6602604  38.7047493 101.1719557 103.4020466
  40.8195804  96.1507366 109.0472513  40.1660216  95.8356383 108.4229128
  40.7776278  95.5283106 109.7732336  41.9307009 106.4326661 100.9625805
  41.0234071 106.2015914 101.1616954  42.4278041 105.6364280 101.1499787
  44.8375088 115.1424168 103.8822491  44.1636786 115.4455865 104.4907449
  45.2240910 115.9453248 103.5327948  44.8368592 104.0380715 108.5022841
  45.5840411 104.5502112 108.1929963  45.1060182 103.7164768 109.3627235
  43.1095242 106.5339256 105.4849795  42.2006461 106.2498288 105.5822265
  43.1390326 106.9538334 104.6253102  47.2847429 101.0737831 110.4841630
  46.5470186 100.5615217 110.8151873  47.5374203 100.6338213 109.6724907
  47.3859057  93.8514083 111.0783400  47.6917933  92.9911446 110.7909315
  48.1111661  94.4431703 110.8782393  41.6580136 104.1467876 111.5859591
  41.7128746 103.1941713 111.5102067  40.8471338 104.3027315 112.0700889
  42.8071330 108.0747999 102.8237874  42.3690760 107.3583858 102.3643511
  43.5481771 108.3024114 102.2622965  39.5972496 102.7644936 109.3449969
  38.7840362 103.0639106 109.7515162  40.0931490 102.3700625 110.0624452
  39.0886571 100.3363291 114.9611204  39.7285950 100.1952050 114.2634168
  38.2564101 100.0497805 114.5849806  36.1729638 103.7808804 107.1505950
  35.2427226 103.7193259 107.3675912  36.2687110 103.2584756 106.3542591
  36.0915187 100.3063616 109.7384191  36.3522005 101.2208950 109.6293352
  36.9132360  99.8388059 109.8880804  46.9282558 106.9332381 102.4169931
  46.3111728 106.2079209 102.3202984  46.4599046 107.6941741 102.0737006
  38.7181104 101.1517805 101.5391236  37.8410570 101.0306606 101.1753482
  39.1938857 100.3603883 101.2870124  45.2141680  99.3138725 111.4287962
  45.7110379  98.5608687 111.1089032  44.4428661  99.3503042 110.8631171
  41.7976648 101.4556108 111.1559646  41.4274436 100.9027148 111.8440552
  42.2935741 100.8514241 110.6034646  47.6560674  96.2808318 113.5767320
  46.7423754  96.5112545 113.7449527  48.0853776  96.3646763 114.4281353
  33.4459797 102.7459660 106.9804141  33.7413238 101.8370339 106.9271195
  32.5447833 102.7247400 106.6585144  35.1747639 100.4273758 107.1043467
  34.8460345  99.5471137 106.9218572  35.5287010 100.3721427 107.9919856
  38.2889462 100.7146728 107.4718944  38.6285535 101.2432649 106.7497553
  38.7361583 101.0527134 108.2477511  41.6349375  96.1833091 115.3749335
  42.4575444  95.7093569 115.2528226  41.8787438  96.9623575 115.8748022
  40.2757609  99.2121349 105.6712237  40.9965972  99.5902602 105.1675954
  39.6522913  99.9310226 105.7747215  44.4188732  99.9166498 106.6070569
  44.6352347 100.7991136 106.3059397  43.9382799  99.5252712 105.8776211
  41.0184336  99.8654760 113.2322203  41.0045905  98.9695853 112.8954501
  41.7356765  99.8725423 113.8660489  40.4221232  98.7469140 108.5009774
  40.5437144  97.8185786 108.7000661  40.1323275  98.7607826 107.5888089
  43.2912423  96.4324050 111.6376493  43.3134120  96.4963383 110.6828473
  43.7080482  95.5928559 111.8317000  39.3951291 110.3323273 106.5925661
  39.5439412 111.0158737 105.9392333  40.2017735 110.3128363 107.1075116
  37.1503924 106.3588450 107.5986730  36.9049966 105.4550780 107.7966940
  37.3199839 106.3605601 106.6566208  36.4199572 102.0916808 105.0972891
  35.7268817 102.1661163 104.4412927  36.1751324 101.3277151 105.6194408
  45.0913228  93.6512409 112.5012382  45.3714982  92.9835598 113.1272808
  45.8763835  93.8441505 111.9887046  42.8946697 112.8271403 104.0637408
  42.3220664 113.4461590 103.6107880  43.4679491 113.3770765 104.5977330
  46.1143957 113.1108553 105.1945990  47.0474630 113.0454115 105.3978866
  46.0267169 113.9464820 104.7360523  48.7431973 112.4274424 102.1549938
  48.6645605 112.0934287 103.0485696  49.5641640 112.9196191 102.1541410
  43.2793495 104.1632216 101.4053461  44.2252600 104.0338424 101.4741879
  42.9007740 103.4246878 101.8822889  49.2515380  95.8288222 111.3680352
  49.0540201  95.5203310 112.2523684  49.8615085  96.5549861 111.4978282
  41.4636412 102.0882192 101.3408346  40.5567868 101.7915305 101.4171059
  41.7412394 101.7912010 100.4742632  43.0798478  96.6319082 107.4952587
  42.2699207  96.2866167 107.8707833  43.7682895  96.3226626 108.0840199
  45.0089027  95.7097129 109.1176884  45.5620065  96.1292582 109.7766907
  45.2459113  94.7832877 109.1599840  40.2335197  98.9469127 101.4820325
  41.0954361  99.2724026 101.7416142  40.4185541  98.1600623 100.9693391
  48.3867834  97.8197654 108.6255548  47.8066503  98.4782458 108.2433600
  48.1203766  96.9974998 108.2142966  46.8371400  97.2202712 110.8276868
  47.3371178  97.3319246 110.0191187  47.4807008  96.9163764 111.4677677
  47.1692712  99.9797744 107.6811896  46.2818567 100.2647395 107.4632091
  47.5846701  99.8191508 106.8339173  46.3135925 109.7442419 101.7759916
  47.0171775 109.9492421 102.3917572  45.5898574 110.3119181 102.0409000
  47.1433735 105.4952280 107.8962186  47.0868937 105.9520832 107.0569819
  47.6962078 104.7342965 107.7185029  50.9538541 101.2842012 108.7212306
  50.6975476 100.8838648 109.5520514  50.3291409 101.9985806 108.5962445
  48.2222622 110.1824948 103.8258376  49.0568226 109.7506147 103.6435851
  48.0606965 110.0106962 104.7535271  47.8768515 106.6857061 105.1914716
  47.8217318 106.5201333 104.2503160  47.2514570 107.3933094 105.3476905
  41.1864640  96.1865170 104.7700034  41.1743310  97.1307010 104.9268305
  42.0788062  96.0035316 104.4759495  45.0016760  92.7807947 109.0245971
  44.2349155  92.2266434 109.1702653  45.4127465  92.8529816 109.8860122
  49.5574858 116.4809723 101.5391236  48.6804324 116.3598524 101.1753482
  50.0332611 115.6895801 101.2870124  51.0728952 114.2761045 101.4820325
  51.9348116 114.6015943 101.7416142  51.2579296 113.4892541 100.9693391
   1.4800071  30.8318620  90.6067798   0.8061770  31.1350316  91.2152756
   1.8665893  31.6347700  90.2573255   5.3856957  28.1168875  88.8795245
   5.3070588  27.7828739  89.7731003   6.2066623  28.6090643  88.8786717
   2.9560908  25.4336871  88.5005223   3.6596759  25.6386873  89.1162879
   2.2323557  26.0013633  88.7654306   6.1608403  38.1951956  96.5717275
   5.5973268  38.1041893  95.8033563   6.0460798  37.3751860  97.0519768
  11.7407962  41.8622923  91.8831740  11.0895941  42.4477004  91.4965754
  12.5352324  42.3929118  91.9426778   5.6663589  38.9512060  92.2818875
   6.4394465  38.4041048  92.1431750   6.0188988  39.8156310  92.4933336
   8.0029867  35.1104727  89.9137325   8.2555387  34.5886248  89.1520788
   7.0654426  34.9470872  90.0164008  13.0473149  34.1140505  97.7212068
  13.8336239  33.6959928  97.3702485  13.3111854  35.0186597  97.8893716
  13.2183227  39.5513355  92.4200725  12.5829060  39.6247982  93.1321629
  12.8880633  40.1406954  91.7419804  18.4481577  34.0515738  98.6245046
  19.1806748  33.4814955  98.8582876  17.6920932  33.6637339  99.0651552
   7.7226155  37.0132833  92.1161699   7.6062413  36.3377736  92.7842784
   7.8328415  36.5265206  91.2993853  10.0657696  36.4742980  95.8208389
   9.7015903  35.9473601  96.5321310  10.9224812  36.0841449  95.6474874
   9.7063183  31.5032879  90.8169737   9.8737586  32.3713116  91.1840208
   9.5160352  31.6660161  89.8931026   9.6852404  33.9590537  91.8016404
   9.5652029  34.4047588  92.6401884   8.9904992  34.3075855  91.2429942
   7.4459296  46.7294179  95.4506535   7.3683326  47.6802004  95.5295016
   6.8420940  46.3840051  96.1081462  15.3837470  34.4312010  92.6296738
  16.2955326  34.6639397  92.4544436  14.8747117  35.0149054  92.0671817
  13.9907053  39.4137828 100.0210320  13.3615915  39.5783543  99.3186387
  13.6032715  39.8279438 100.7921284  17.8696284  40.3492266  97.3754683
  17.1847323  40.7291168  96.8251717  17.9540134  40.9587593  98.1086631
   9.5435014  39.1512237  97.2860405  10.0073360  39.4299940  96.4965027
   9.2791813  38.2495681  97.1033495   8.4803900  35.2735389  94.0949970
   9.1827944  35.7256433  94.5623896   8.1484529  34.6319208  94.7229863
  16.2393044  40.8724181 102.1472384  17.0610488  40.4704368 101.8655066
  16.2355447  40.7692415 103.0988500  24.3299037  37.2162929  98.4957356
  23.5762745  36.6470327  98.3401360  24.4646578  37.1825594  99.4427990
   9.7197665  42.0876332  94.1712075   9.5843340  42.9327867  94.5996923
  10.2607478  42.2895609  93.4078009   3.1727062  39.6051770  94.7440000
   3.6851583  40.3995020  94.8945565   3.8249775  38.9078060  94.6773602
   4.9821947  42.7217526  96.8262753   5.1588576  43.6435491  96.6383737
   5.7778781  42.4075945  97.2557133  13.0340411  35.6015505  91.2083404
  12.5187035  36.3720109  91.4471791  12.7617720  34.9280641  91.8316465
  18.0074686  38.3547859  93.1436577  17.2304128  38.0159019  92.6991739
  18.6866166  38.3600482  92.4691542  12.8226715  33.4742597  93.0343185
  12.5176850  33.7888746  93.8853328  13.7757157  33.5524017  93.0770518
  11.2673146  39.6332820  94.6836139  10.7394508  38.8985580  94.3709376
  10.7660649  40.4107496  94.4376107  16.2465992  37.8281840  99.8003185
  15.5889667  38.5181102  99.8883314  17.0506392  38.2178272 100.1437171
  15.0571451  36.1826213  97.8507127  15.5703333  36.8156205  98.3528837
  15.7072675  35.5827409  97.4850487   6.3261461  32.3256947  91.0638636
   5.4898773  32.6631634  91.3847910   6.1866231  32.1905927  90.1265773
   9.4125747  37.4513030  87.6871112   8.5052808  37.2202284  87.8862261
   9.9096779  36.6550649  87.8745093  12.3193825  46.1610537  90.6067798
  11.6455524  46.4642234  91.2152756  12.7059647  46.9639618  90.2573255
  12.3187330  35.0567084  95.2268148  13.0659149  35.5688482  94.9175270
  12.5878919  34.7351137  96.0872541  10.5913980  37.5525625  92.2095102
   9.6825199  37.2684658  92.3067572  10.6209064  37.9724704  91.3498409
  15.8233247  41.1632215  95.9786269  15.3695575  40.3223124  96.0351460
  15.1927214  41.7993613  96.3161050  14.2666187  43.0008711  96.9136088
  14.5589161  43.5613768  96.1948453  14.7764807  43.2937272  97.6689247
  10.2890068  39.0934369  89.5483180   9.8509498  38.3770228  89.0888818
  11.0300509  39.3210484  88.9868272   9.2299812  43.7789062  98.0029541
   9.1875991  44.0049909  97.0738073  10.1462511  43.5452437  98.1515342
  18.4063183  37.3691566  95.6059499  18.2681081  37.5593162  94.6780688
  18.0499401  38.1310949  96.0627550  18.4332562  39.4368093 100.6170771
  18.8669069  39.3443382 101.4653825  19.1464143  39.4125593  99.9790787
   7.3465613  40.6552091  97.7991504   8.1406211  40.1602412  97.5974078
   6.6357305  40.1269955  97.4359209  12.1660457  43.0370187 102.1503871
  12.2197479  43.6061123 102.9181587  11.2975238  43.2072072 101.7857908
   3.6548376  34.7995173  93.8751256   2.7245964  34.7379629  94.0921218
   3.7505848  34.2771126  93.0787897  10.5185041  46.3290210  92.8214877
  10.6936796  45.8578253  93.6360500   9.8317829  46.9555976  93.0496138
  11.4742104  40.6062716  98.8678178  11.1391936  40.5663486  99.7635828
  10.9746049  39.9407432  98.3948589  14.4101295  37.9518750  89.1415238
  13.7930466  37.2265579  89.0448291  13.9417784  38.7128111  88.7982312
   5.0846126  49.4779573  99.5954737   5.3242724  50.1098097 100.2733756
   4.2415322  49.1267613  99.8820097   6.1999841  32.1704175  88.2636542
   5.3229308  32.0492975  87.8998789   6.6757594  31.3790253  88.0115431
   9.5973988  45.2858695 101.9996241   9.5244159  46.0913667 102.5115546
   9.1551381  45.4850661 101.1744263   9.3863767  44.5230465  95.5099063
   8.6031289  45.0652145  95.6037287  10.0856513  45.0404445  95.9093304
  20.5490175  36.0365460  99.7951560  20.5380051  36.9190175  99.4245493
  19.6807554  35.6837011  99.6006097  13.7790198  39.0896782  95.7271692
  12.8446477  39.2098244  95.5576396  13.9566867  38.1869249  95.4631701
  17.1662750  34.9314101  96.2621726  17.6323202  35.7642093  96.1882028
  17.6170250  34.4659083  96.9666984  15.2338981  41.2757922  93.2607878
  15.5098825  41.1614517  94.1701752  14.3643479  40.8775407  93.2220051
  11.8693045  45.5244273  96.9040691  12.0515439  44.7065929  97.3668444
  12.6926031  45.7411965  96.4665581  12.2035210  44.4512458  94.1655740
  12.7322977  43.9404913  93.5525902  12.4663430  44.1354989  95.0301273
   5.5590958  45.5027575  96.9253516   4.8901333  45.9873703  96.4417556
   5.4203828  45.7496795  97.8396894   9.6996227  47.5371319 103.5236174
  10.2514535  47.7002940 104.2885259  10.0402420  48.1275756 102.8516199
  12.8364614  45.4853294 100.5099856  12.7115753  44.6843034 100.0010802
  13.4943705  45.9799487 100.0213826  14.8999522  43.2862314 102.1379406
  13.9529858  43.1667665 102.0657733  15.2482295  42.3984812 102.2205668
  11.9045956  43.0815030  98.3383759  11.7570918  42.1531738  98.5191329
  12.7299449  43.1035121  97.8540834  15.5080077  43.9043589  99.4248631
  16.4326625  43.6986450  99.2873083  15.3395381  43.6559990 100.3337973
   7.7576347  30.2307719  92.3957544   8.4784710  30.6088972  91.8921260
   7.1341651  30.9496596  92.4992522  11.9007470  30.9352868  93.3315876
  12.1171084  31.8177506  93.0304704  11.4201537  30.5439081  92.6021518
  15.2975394  44.4229257  94.7810723  15.4712271  43.8575679  94.0284575
  15.7904285  45.2230151  94.5990213  21.1514785  37.1865679  96.4001023
  21.5945931  36.4373005  96.0020146  20.2741295  37.1775816  96.0174755
  16.2850566  43.7396021  91.8807621  16.9801471  44.3602714  92.0994936
  16.6273716  42.8891372  92.1559999  18.1841989  41.1895726  93.4094952
  18.7093313  41.5282999  92.6844272  18.0964342  40.2542742  93.2258087
   9.8682650  47.2567710  97.7690205   9.4287640  46.7644088  98.4623062
  10.6190767  46.7140677  97.5282280   2.3474989  43.4479251  97.7714833
   3.1733009  43.1483022  97.3913477   1.9969041  42.6786873  98.2204622
   7.3156522  42.8005719  99.8412507   6.6936531  42.1376424  99.5414735
   7.9861389  42.8266851  99.1586155   6.8770029  41.3509642  93.3170967
   7.0258149  42.0345107  92.6637640   7.6836473  41.3314732  93.8320423
  20.6947650  38.6570918  98.7923470  21.5294541  39.0960722  98.9561031
  20.8306778  38.1809571  97.9731716   4.6322662  37.3774820  94.3232036
   4.3868704  36.4737150  94.5212246   4.8018577  37.3791970  93.3811514
   3.9018310  33.1103177  91.8218198   3.2087555  33.1847532  91.1658234
   3.6570062  32.3463521  92.3439715  10.3765435  43.8457773  90.7882715
   9.8039402  44.4647960  90.3353187  10.9498228  44.3957134  91.3222637
  13.5962694  44.1294923  91.9191297  14.5293368  44.0640484  92.1224173
  13.5085907  44.9651190  91.4605830  16.2250711  43.4460793  88.8795245
  16.1464343  43.1120657  89.7731003  17.0460378  43.9382561  88.8786717
  10.7612233  35.1818585  88.1298767  11.7071338  35.0524793  88.1987185
  10.3826478  34.4433247  88.6068195  24.7405452  37.3738539 101.2277600
  25.4708841  37.1123827 101.7885303  24.1312398  36.6367261 101.2679668
  22.8220749  35.5146402 101.8252051  22.0953913  35.3802367 101.2168543
  22.4068036  35.8223230 102.6308769   8.9455150  33.1068562  88.0653652
   8.0386606  32.8101674  88.1416366   9.2231131  32.8098380  87.1987939
   7.7153935  29.9655497  88.2065632   8.5773099  30.2910395  88.4661449
   7.9004279  29.1786993  87.6938697  15.8686571  28.8384023  95.3500855
  15.2885240  29.4968827  94.9678907  15.6022504  28.0161368  94.9388272
  14.6511449  30.9984114  94.4057203  13.7637304  31.2833764  94.1877398
  15.0665438  30.8377877  93.5584480   2.6595700  45.5791865  99.4928648
   2.5250168  44.8192266  98.9266646   2.2427762  46.3032765  99.0257437
  13.7954663  40.7628788  88.5005223  14.4990513  40.9678791  89.1162879
  13.0717312  41.3305550  88.7654306  14.6252473  36.5138650  94.6207493
  14.5687675  36.9707201  93.7815126  15.1780816  35.7529334  94.4430336
  18.4357279  32.3028382  95.4457613  18.1794213  31.9025017  96.2765820
  17.8110147  33.0172176  95.3207752  22.7469617  35.0424455  97.9528904
  22.1869175  35.1117644  98.7260466  22.1413120  34.8665439  97.2328400
   5.8164826  46.4761182  99.7047090   5.6997210  47.4206614  99.6025781
   4.9957272  46.1734744 100.0932889  15.7041360  41.2011318  90.5503683
  16.5386964  40.7692516  90.3681158  15.5425703  41.0293331  91.4780577
  15.3587252  37.7043431  91.9160022  15.3036056  37.5387702  90.9748466
  14.7333308  38.4119464  92.0722212   8.6683378  27.2051540  91.4945341
   8.6562048  28.1493380  91.6513612   9.5606800  27.0221685  91.2004802
   8.5972942  45.8820430  99.5813097   7.6468573  45.8822292  99.4677470
   8.9005428  45.1353165  99.0649132  24.3325635  51.7180969 100.6458860
  24.9704045  51.5987716  99.9422200  24.2146478  52.6661813 100.7046812
  21.1415342  51.6708397 100.5820384  20.8033853  51.5549462  99.6940919
  22.0105110  51.2699562 100.5621391  17.0002157  53.5243873  96.5717275
  16.4367022  53.4333810  95.8033563  16.8854552  52.7043778  97.0519768
  21.6235125  52.8243249 106.5406590  21.6123765  52.4296047 105.6687094
  21.7855764  52.0909321 107.1340361  14.5466589  55.0195065  99.4101496
  15.3387881  54.6785890  98.9947795  14.7863239  55.1290040 100.3303649
  22.5801716  57.1914841  91.8831740  21.9289696  57.7768921  91.4965754
  23.3746079  57.7221036  91.9426778  16.5057343  54.2803978  92.2818875
  17.2788219  53.7332965  92.1431750  16.8582742  55.1448227  92.4933336
  18.3442386  55.6080360 105.4885774  18.0532252  56.5125991 105.3732440
  18.9799370  55.6496888 106.2029843  19.2698593  52.9857209 102.0787134
  19.8662165  52.7613231 101.3644097  19.3273564  52.2441954 102.6812581
  18.8423621  50.4396644  89.9137325  19.0949142  49.9178166  89.1520788
  17.9048180  50.2762790  90.0164008  23.8866904  49.4432423  97.7212068
  24.6729993  49.0251846  97.3702485  24.1505608  50.3478515  97.8893716
  24.0576981  54.8805273  92.4200725  23.4222814  54.9539899  93.1321629
  23.7274388  55.4698872  91.7419804  29.2875331  49.3807656  98.6245046
  30.0200503  48.8106873  98.8582876  28.5314687  48.9929256  99.0651552
  18.5619910  52.3424750  92.1161699  18.4456168  51.6669654  92.7842784
  18.6722170  51.8557124  91.2993853  20.9051451  51.8034897  95.8208389
  20.5409658  51.2765518  96.5321310  21.7618567  51.4133366  95.6474874
  26.8100751  43.0929230 103.0839655  26.4784076  43.9624641 102.8600870
  26.2146365  42.7765514 103.7633685  20.5456938  46.8324797  90.8169737
  20.7131340  47.7005033  91.1840208  20.3554107  46.9952079  89.8931026
  23.3032271  55.2941776 102.4835568  23.0032994  56.1966815 102.3751375
  22.9583330  55.0273959 103.3356720  16.7544752  51.7455573  98.5172272
  15.8295249  51.6131787  98.7249964  17.0029166  52.5249792  99.0142214
  26.7029415  47.8124316 100.1633005  25.7946292  47.7439725  99.8691766
  26.6517010  48.2896261 100.9914830  20.5246159  49.2882455  91.8016404
  20.4045784  49.7339505  92.6401884  19.8298747  49.6367772  91.2429942
  14.1153563  51.3888846  99.3516061  14.2445945  51.6423325 100.2655473
  13.4351015  51.9816554  99.0320716  18.2853051  62.0586096  95.4506535
  18.2077080  63.0093921  95.5295016  17.6814694  61.7131969  96.1081462
  20.7770280  49.2313962 108.1067902  20.0003614  49.7907882 108.0970767
  21.4160843  49.7170745 108.6282772  28.5691061  46.0140755 101.9410879
  27.9265441  46.3073288 101.2950673  28.0645990  45.8993675 102.7464076
  26.2231225  49.7603928  92.6296738  27.1349081  49.9931314  92.4544436
  25.7140872  50.3440972  92.0671817  19.0316653  52.0399415 107.6685869
  19.7731337  52.5784459 107.3920693  18.3253638  52.6665704 107.8257421
  24.5071992  54.1828556 106.2658031  24.9155348  53.7410966 105.5212663
  23.7849254  53.6081183 106.5192224  20.8603062  49.1201162 103.6391588
  21.7064258  49.5440576 103.7826237  20.8001700  48.4634787 104.3330151
  24.8300807  54.7429746 100.0210320  24.2009669  54.9075460  99.3186387
  24.4426469  55.1571356 100.7921284  28.7090039  55.6784184  97.3754683
  28.0241077  56.0583085  96.8251717  28.7933888  56.2879511  98.1086631
  24.0102508  46.7805531 105.2972761  23.7663440  47.5347591 104.7607037
  24.2862438  47.1590878 106.1320008  25.9640971  53.3244143 103.9750027
  26.1757866  53.9675903 103.2984408  25.9170719  52.4906460 103.5071957
  23.5667199  45.9361964 100.8786599  22.7051679  46.2343217 101.1703337
  23.5929634  46.1532363  99.9467632  20.3828769  54.4804154  97.2860405
  20.8467114  54.7591857  96.4965027  20.1185567  53.5787599  97.1033495
  17.2752850  54.0275636 100.2240168  17.8454207  54.4562904  99.5857652
  17.8660962  53.7458220 100.9224354  19.3197655  50.6027307  94.0949970
  20.0221698  51.0548350  94.5623896  18.9878283  49.9611125  94.7229863
  17.7678016  49.1939063 108.4701179  17.1376677  49.8755344 108.7036576
  17.6614104  49.0822145 107.5254317  13.0622989  48.8610859  99.3967103
  12.2722043  49.1168388  98.9207214  13.5534236  49.6759197  99.5019144
  27.0786798  56.2016098 102.1472384  27.9004242  55.7996286 101.8655066
  27.0749201  56.0984333 103.0988500  15.0137734  49.2255439  96.3550580
  14.2168898  49.3374133  96.8734076  14.7863327  49.5642091  95.4891471
  20.8443402  55.7500142 104.3033095  20.9087834  56.2120549 105.1391267
  20.1354326  55.1197507 104.4315405  11.3460692  49.1141350 101.8282094
  11.5968730  49.9988360 102.0939670  11.8820240  48.9345951 101.0557186
  35.1692792  52.5454847  98.4957356  34.4156500  51.9762245  98.3401360
  35.3040333  52.5117511  99.4427990  20.5591420  57.4168249  94.1712075
  20.4237094  58.2619785  94.5996923  21.1001232  57.6187527  93.4078009
  14.0120817  54.9343687  94.7440000  14.5245338  55.7286938  94.8945565
  14.6643530  54.2369978  94.6773602  15.8215702  58.0509444  96.8262753
  15.9982330  58.9727408  96.6383737  16.6172535  57.7367863  97.2557133
  15.1068058  50.0974075 106.7024917  14.9921573  49.1959333 107.0032015
  14.2512576  50.3437772 106.3509733  22.1859896  58.0391816 108.3012417
  21.7423750  57.2528194 107.9833322  22.8477110  58.2270966 107.6356308
  16.9447017  59.5687617 102.8273096  17.4954442  59.4404681 102.0550090
  16.1058493  59.8682506 102.4767988  24.2841134  58.3194616 106.3293818
  24.2659609  59.1403497 105.8374088  25.2061054  58.1948691 106.5543960
  20.7414188  55.8338745 107.1717327  21.2742525  55.0727033 106.9416635
  20.2128269  55.5412397 107.9141481  23.9083883  40.9398811 102.7010969
  23.5648153  41.8300453 102.6250079  24.2762846  40.7500469 101.8380554
  11.9769734  53.2632342  95.5199571  12.8144956  53.6729350  95.3033278
  12.1548001  52.3231784  95.4899765  23.8734166  50.9307422  91.2083404
  23.3580789  51.7012027  91.4471791  23.6011474  50.2572558  91.8316465
  21.4581277  45.7757123  96.2668642  20.6022873  45.3863973  96.0874281
  21.8708229  45.8549084  95.4068428  22.9880424  43.3103466 100.6660202
  22.4845219  43.2733601  99.8528007  23.2811030  44.2196209 100.7256858
  19.2323309  43.3942196  99.6726383  20.0976306  43.1985005  99.3132273
  19.3000818  43.1652548 100.5995740  28.8468440  53.6839777  93.1436577
  28.0697883  53.3450936  92.6991739  29.5259921  53.6892400  92.4691542
  23.6620469  48.8034514  93.0343185  23.3570605  49.1180664  93.8853328
  24.6150911  48.8815934  93.0770518  22.1066901  54.9624738  94.6836139
  21.5788262  54.2277497  94.3709376  21.6054404  55.7399414  94.4376107
  27.0859747  53.1573758  99.8003185  26.4283421  53.8473020  99.8883314
  27.8900146  53.5470190 100.1437171  16.8385628  45.6244404  97.0442750
  17.4129380  45.4019585  96.3115943  17.4256611  45.6933098  97.7971352
  25.8965206  51.5118131  97.8507127  26.4097087  52.1448123  98.3528837
  26.5466430  50.9119326  97.4850487  17.1655216  47.6548865  91.0638636
  16.3292528  47.9923551  91.3847910  17.0259985  47.5197845  90.1265773
  19.1408296  42.4985653  95.7717820  18.4872709  42.1834670  95.1474434
  19.0988770  41.8761393  96.4977643  20.2519501  52.7804948  87.6871112
  19.3446563  52.5494201  87.8862261  20.7490533  51.9842567  87.8745093
  23.1587580  61.4902455  90.6067798  22.4849279  61.7934152  91.2152756
  23.5453402  62.2931535  90.2573255  22.3746037  48.9867586 100.0965467
  21.4568598  49.2082533  99.9387155  22.7906180  49.0613897  99.2377175
  23.1581084  50.3859002  95.2268148  23.9052903  50.8980399  94.9175270
  23.4272674  50.0643055  96.0872541  21.4307735  52.8817543  92.2095102
  20.5218954  52.5976576  92.3067572  21.4602818  53.3016621  91.3498409
  26.6627002  56.4924132  95.9786269  26.2089329  55.6515042  96.0351460
  26.0320969  57.1285531  96.3161050  25.6059921  47.4216118  97.2086937
  24.8682678  46.9093505  97.5397179  25.8586695  46.9816500  96.3970214
  25.1059941  58.3300629  96.9136088  25.3982916  58.8905686  96.1948453
  25.6158562  58.6229190  97.6689247  25.7071549  40.1992370  97.8028706
  26.0130426  39.3389734  97.5154621  26.4324154  40.7909991  97.6027700
  11.9995905  50.6023057  96.1910304  11.8020305  50.0092418  95.4661371
  11.4442569  50.2975267  96.9086243  19.9792629  50.4946163  98.3104897
  20.0341238  49.5420000  98.2347374  19.1683831  50.6505602  98.7946196
  21.1283822  54.4226286  89.5483180  20.6903252  53.7062145  89.0888818
  21.8694263  54.6502401  88.9868272  17.9184988  49.1123223  96.0695276
  17.1052854  49.4117394  96.4760468  18.4143983  48.7178912  96.7869758
  20.0693566  59.1080980  98.0029541  20.0269745  59.3341826  97.0738073
  20.9856265  58.8744355  98.1515342  23.5159200  49.5765048 104.9010170
  23.8708588  49.8036521 105.7604636  24.1631331  49.9083424 104.2787425
  29.2456937  52.6983483  95.6059499  29.1074836  52.8885079  94.6780688
  28.8893156  53.4602866  96.0627550  17.4099063  46.6841579 101.6856511
  18.0498443  46.5430338 100.9879474  16.5776594  46.3976092 101.3095113
  29.2726317  54.7660010 100.6170771  29.7062823  54.6735300 101.4653825
  29.9857897  54.7417511  99.9790787  18.1859367  55.9844009  97.7991504
  18.9799966  55.4894329  97.5974078  17.4751060  55.4561872  97.4359209
  23.0054212  58.3662105 102.1503871  23.0591234  58.9353041 102.9181587
  22.1368993  58.5363990 101.7857908  14.4942131  50.1287091  93.8751256
  13.5639719  50.0671546  94.0921218  14.5899603  49.6063044  93.0787897
  14.4127680  46.6541904  96.4629498  14.6734497  47.5687237  96.3538658
  15.2344852  46.1866346  96.6126111  15.8852605  48.0679661 103.6328322
  16.5575658  47.8597023 102.9840971  15.0582392  47.8701747 103.1933555
  30.1341866  54.8083711 103.1503656  30.3277756  55.7129522 103.3962931
  30.0342484  54.3491130 103.9842241  21.7878177  44.6941602 105.6493983
  21.1406092  45.3931551 105.5558460  22.5579192  45.1277746 106.0170231
  25.1956975  54.9590454 108.7244537  25.0442481  54.7301006 107.8074620
  25.1861654  55.9161055 108.7375882  21.9642311  52.5322367 103.7090803
  22.8934371  52.6833526 103.5359770  21.5433341  52.6206387 102.8539450
  20.7630643  56.5573031 101.4789341  20.6241729  56.1891815 102.3515279
  19.9745239  57.0720670 101.3073298  21.3578795  61.6582128  92.8214877
  21.5330551  61.1870171  93.6360500  20.6711583  62.2847894  93.0496138
  22.3135858  55.9354634  98.8678178  21.9785691  55.8955404  99.7635828
  21.8139804  55.2699350  98.3948589  16.2880102  51.3422264 104.3930760
  16.1499900  50.6102503 104.9942299  17.1985026  51.2531164 104.1114947
  25.2495050  53.2810668  89.1415238  24.6324221  52.5557496  89.0448291
  24.7811538  54.0420028  88.7982312  18.9162403  51.0542223 103.8814439
  19.6262021  50.4135415 103.8401058  18.8731711  51.3055118 104.8040620
  26.9049182  57.9909576 106.8021018  26.8461728  57.3068797 106.1351601
  27.3068700  58.7328566 106.3501644  17.6291337  48.0407441 105.7010079
  17.0928694  47.5898179 106.3531675  17.0408045  48.1753350 104.9580543
  15.9239880  64.8071490  99.5954737  16.1636479  65.4390014 100.2733756
  15.0809077  64.4559530  99.8820097  17.0393596  47.4996092  88.2636542
  16.1623062  47.3784893  87.8998789  17.5151349  46.7082171  88.0115431
  26.9066589  55.9549160 105.0334998  26.0193368  55.6175082 105.1561397
  27.4765140  55.2232192 105.2703763   8.5595736  52.2873252  98.3578049
   9.2466776  51.9734982  97.7699065   8.4043865  53.1914617  98.0845301
  13.3630458  47.1763449 102.7863073  13.2788647  46.5689118 102.0513483
  12.5413165  47.6672467 102.7872570  20.4367742  60.6150613 101.9996241
  20.3637914  61.4205584 102.5115546  19.9945135  60.8142579 101.1744263
  20.2257522  59.8522383  95.5099063  19.4425044  60.3944063  95.6037287
  20.9250267  60.3696362  95.9093304  23.5354172  45.6617012  98.1533268
  24.0322872  44.9086975  97.8334338  22.7641153  45.6981329  97.5876478
  31.3883929  51.3657378  99.7951560  31.3773806  52.2482093  99.4245493
  30.5201309  51.0128929  99.6006097  22.8966426  60.5137447 104.1554400
  23.6094398  61.1484912 104.0830301  22.4056454  60.6101313 103.3394402
  24.6183953  54.4188699  95.7271692  23.6840231  54.5390162  95.5576396
  24.7960621  53.5161166  95.4631701  20.1189141  47.8034395  97.8804953
  19.7486928  47.2505436  98.5685858  20.6148233  47.1992529  97.3279953
  28.0056504  50.2606019  96.2621726  28.4716956  51.0934010  96.1882028
  28.4564005  49.7951000  96.9666984  17.9478339  58.2631890 104.9759971
  18.6487799  58.8968373 105.1289365  17.4773454  58.6046622 104.2155610
  26.0732735  56.6049840  93.2607878  26.3492579  56.4906435  94.1701752
  25.2037234  56.2067325  93.2220051  25.9773167  42.6286606 100.3012627
  25.0636247  42.8590833 100.4694834  26.4066268  42.7125050 101.1526659
  25.7479625  50.8176498 102.8012521  25.0951076  51.0652405 102.1464974
  26.1260005  50.0040636 102.4674998  22.7086799  60.8536191  96.9040691
  22.8909194  60.0357847  97.3668444  23.5319785  61.0703883  96.4665581
  23.0428965  59.7804376  94.1655740  23.5716731  59.2696831  93.5525902
  23.3057184  59.4646906  95.0301273  21.7967198  51.5596309 109.2878558
  21.1207835  51.4590438 109.9580933  22.6194832  51.4035522 109.7514555
  13.5446057  57.7968245 101.9091073  14.1299494  57.0511933 102.0418978
  13.3470896  58.1072202 102.7927737  16.3984713  60.8319493  96.9253516
  15.7295088  61.3165620  96.4417556  16.2597582  61.0788713  97.8396894
   8.1363712  50.3673845 100.6295517   8.1747812  49.8337436 101.4232635
   7.6304005  49.8409051 100.0106494  20.5389981  62.8663236 103.5236174
  21.0908289  63.0294858 104.2885259  20.8796175  63.4567674 102.8516199
  15.5154474  45.2138386 104.1258059  15.5795801  46.0753217 103.7135457
  15.4521595  44.6012388 103.3930417  25.3900855  57.6924494 109.3784829
  25.9340759  58.3054452 108.8839783  24.8087700  58.2504072 109.8951842
  11.7672290  49.0937948  93.7049448  12.0625731  48.1848626  93.6516502
  10.8660325  49.0725687  93.3830450  23.6758368  60.8145212 100.5099856
  23.5509508  60.0134952 100.0010802  24.3337460  61.3091405 100.0213826
  15.2966537  47.1693944  99.6876997  14.5753122  47.7829912  99.5484470
  16.0859792  47.7051709  99.6093643  25.7393277  58.6154232 102.1379406
  24.7923612  58.4959583 102.0657733  26.0876050  57.7276730 102.2205668
  13.4960131  46.7752045  93.8288773  13.1672837  45.8949424  93.6463879
  13.8499502  46.7199714  94.7165162  22.7439710  58.4106948  98.3383759
  22.5964673  57.4823655  98.5191329  23.5693204  58.4327039  97.8540834
  16.6101954  47.0625015  94.1964251  16.9498027  47.5910936  93.4742859
  17.0574075  47.4005421  94.9722817  26.3473832  59.2335507  99.4248631
  27.2720379  59.0278368  99.2873083  26.1789135  58.9851908 100.3337973
  19.3045395  45.4462066 103.6467319  18.9642216  44.6469879 104.0487999
  18.5984402  45.7463777 103.0744152  19.9561867  42.5311378 102.0994642
  20.7787936  42.0571856 101.9773532  20.1999931  43.3101862 102.5993328
  18.5970102  45.5599637  92.3957544  19.3178464  45.9380889  91.8921260
  17.9735406  46.2788513  92.4992522  22.7401224  46.2644786  93.3315876
  22.9564839  47.1469424  93.0304704  22.2595292  45.8730999  92.6021518
  17.4800446  49.2230499  99.9086621  17.3345027  49.5370802 100.8010902
  17.0025649  49.8415399  99.3557519  19.3396829  46.2133047  99.9567510
  19.3258397  45.3174140  99.6199808  20.0569257  46.2203711 100.5905796
  21.1922959  46.6470387 102.0020638  20.9340737  47.5687458 102.0004968
  20.6608000  46.2500822 102.6921102  26.1369148  59.7521174  94.7810723
  26.3106026  59.1867597  94.0284575  26.6298039  60.5522069  94.5990213
  11.9546108  51.7635843 102.8474282  11.4099576  52.5395651 102.9794556
  12.8325458  52.1106648 102.6893403  18.7433725  45.0947427  95.2255080
  18.8649636  44.1664073  95.4245968  18.4535767  45.1086113  94.3133396
  21.6124915  42.7802338  98.3621800  21.6346612  42.8441671  97.4073780
  22.0292974  41.9406846  98.5562306  31.9908539  52.5157597  96.4001023
  32.4339685  51.7664922  96.0020146  31.1135050  52.5067733  96.0174755
  27.1244321  59.0687939  91.8807621  27.8195225  59.6894631  92.0994936
  27.4667471  58.2183290  92.1559999  12.7412130  50.8905740 105.7404439
  11.9993866  51.0388375 106.3269069  12.4204874  51.1514005 104.8771188
  29.0235744  56.5187644  93.4094952  29.5487068  56.8574917  92.6844272
  28.9358096  55.5834659  93.2258087  20.6855792  60.4321718 105.5384829
  20.9942919  60.1870865 106.4107528  21.4831275  60.6368356 105.0503699
  20.7076405  62.5859627  97.7690205  20.2681395  62.0936006  98.4623062
  21.4584521  62.0432595  97.5282280  13.1868744  58.7771168  97.7714833
  14.0126763  58.4774940  97.3913477  12.8362796  58.0078791  98.2204622
  18.1550277  58.1297636  99.8412507  17.5330286  57.4668342  99.5414735
  18.8255144  58.1558768  99.1586155  11.3877349  56.6957495  98.7303767
  10.5509257  56.2679669  98.5487768  11.3600994  56.8889938  99.6674558
  28.7129650  57.1520548 108.7146150  27.9225194  57.1344687 108.1750649
  28.4763004  57.6908841 109.4695186  28.8327525  54.0013014 106.0278878
  28.8825530  53.8363022 106.9694401  28.7241448  53.1340273 105.6376759
  17.7163784  56.6801560  93.3170967  17.8651904  57.3637024  92.6637640
  18.5230227  56.6606650  93.8320423  26.1231287  49.9843942 107.3438185
  27.0241150  49.8450407 107.0522183  26.1979262  50.1498397 108.2836363
  20.4574093  47.3610797 106.1891371  19.5877402  47.6544363 105.9173960
  20.6933573  47.9451242 106.9098635  30.3345722  56.4209956 106.2720900
  30.0430530  56.7839936 107.1084361  29.7217853  55.7076964 106.0934232
  31.5341404  53.9862835  98.7923470  32.3688295  54.4252639  98.9561031
  31.6700533  53.5101489  97.9731716  28.5832910  51.5442570 104.7400958
  29.0587032  51.7370217 103.9319809  27.6598475  51.6001756 104.4944342
  15.4716417  52.7066737  94.3232036  15.2262459  51.8029067  94.5212246
  15.6412331  52.7083888  93.3811514  23.1613126  43.5790414 103.7056792
  23.6795070  44.3151441 103.3803280  22.8068259  43.8854407 104.5403551
  14.7412064  48.4395095  91.8218198  14.0481309  48.5139450  91.1658234
  14.4963816  47.6755439  92.3439715  23.4125721  39.9990696  99.2257688
  23.6927474  39.3313885  99.8518115  24.1976328  40.1919792  98.7132352
  21.2159189  59.1749690  90.7882715  20.6433156  59.7939877  90.3353187
  21.7891983  59.7249052  91.3222637  27.2834579  48.4208330 102.9729264
  28.2352002  48.5206428 102.9941488  27.1138029  47.6286599 103.4827348
  25.3048958  45.5063914 103.1588664  24.7098891  45.7868926 102.4635153
  25.0198655  45.9957815 103.9305406  24.4356449  59.4586840  91.9191297
  25.3687122  59.3932402  92.1224173  24.3479662  60.2943107  91.4605830
  27.0644466  58.7752711  88.8795245  26.9858097  58.4412574  89.7731003
  27.8854132  59.2674479  88.8786717  29.7622657  51.6414450 102.0871563
  29.7298977  50.7030451 102.2731247  30.3723280  51.7198487 101.3537388
  21.6005988  50.5110503  88.1298767  22.5465092  50.3816711  88.1987185
  21.2220233  49.7725165  88.6068195  29.9117145  48.4325493 102.1329846
  29.3956194  47.6483950 101.9459775  30.7957094  48.1044210 102.2976366
  27.5727872  42.1766509  98.0925659  27.3752693  41.8681597  98.9768991
  28.1827578  42.9028148  98.2223589  35.5799207  52.7030457 101.2277600
  36.3102595  52.4415745 101.7885303  34.9706152  51.9659179 101.2679668
  33.6614504  50.8438319 101.8252051  32.9347667  50.7094284 101.2168543
  33.2461791  51.1515148 102.6308769  21.4844680  54.5628249 109.5899424
  22.4047690  54.7406848 109.7839471  21.4494263  53.6184295 109.4379123
  19.7848905  48.4360479  88.0653652  18.8780360  48.1393592  88.1416366
  20.0624886  48.1390298  87.1987939  10.7026845  49.7566843  98.5152699
  10.3829630  48.9032151  98.2227073  10.1560273  49.9715421  99.2710666
  14.4806753  52.4729284 102.2322205  14.6992762  53.4046392 102.2510239
  14.8932527  52.1137258 103.0177009  21.4010971  42.9797369  94.2197894
  20.5911699  42.6344454  94.5953140  22.0895387  42.6704913  94.8085505
  23.3301519  42.0575416  95.8422190  23.8832557  42.4770869  96.5012214
  23.5671605  41.1311164  95.8845146  18.5547689  45.2947415  88.2065632
  19.4166853  45.6202313  88.4661449  18.7398034  44.5078911  87.6938697
  10.5715105  53.3769754 100.4845820   9.8778577  52.9623707  99.9715775
  11.3188096  53.4190291  99.8879239  26.7080326  44.1675941  95.3500855
  26.1278995  44.8260745  94.9678907  26.4416259  43.3453286  94.9388272
  25.1583892  43.5680999  97.5522175  25.6583671  43.6797533  96.7436494
  25.8019500  43.2642052  98.1922983  19.2165888  51.4759628 110.4390016
  18.7332970  52.2759989 110.6453905  19.3026827  51.4867573 109.4857460
  12.4851848  53.3088008  98.3611835  12.4622536  53.4075695  97.4093718
  12.7952484  54.1553159  98.6829001  15.1439226  55.3664163 102.4758450
  16.0982479  55.3348105 102.4088381  14.9451749  54.9054787 103.2908676
  15.7338608  53.9365279 105.0429247  16.5531497  54.4309358 105.0664085
  16.0075415  53.0197247 105.0146815  25.4905204  46.3276031  94.4057203
  24.6031059  46.6125682  94.1877398  25.9059193  46.1669795  93.5584480
  28.8419740  46.3522552  98.1211542  29.6180130  46.8419005  98.3936159
  28.1167874  46.7780607  98.5783412  31.2792299  47.0650172  99.1785483
  31.8736789  46.8245908  98.4678791  31.3518882  46.3457302  99.8059019
  13.4989454  60.9083783  99.4928648  13.3643922  60.1484183  98.9266646
  13.0821517  61.6324682  99.0257437  24.6348417  56.0920706  88.5005223
  25.3384267  56.2970709  89.1162879  23.9111066  56.6597468  88.7654306
  25.4646228  51.8430567  94.6207493  25.4081429  52.2999119  93.7815126
  26.0174570  51.0821252  94.4430336  29.2751034  47.6320299  95.4457613
  29.0187968  47.2316935  96.2765820  28.6503902  48.3464093  95.3207752
  33.5863371  50.3716373  97.9528904  33.0262929  50.4409562  98.7260466
  32.9806875  50.1957357  97.2328400  16.6558580  61.8053100  99.7047090
  16.5390964  62.7498532  99.6025781  15.8351026  61.5026661 100.0932889
  26.5435115  56.5303235  90.5503683  27.3780719  56.0984434  90.3681158
  26.3819458  56.3585249  91.4780577  26.1981007  53.0335349  91.9160022
  26.1429811  52.8679620  90.9748466  25.5727062  53.7411382  92.0722212
  23.5126914  55.3384261 111.2413585  24.3818074  55.5124913 110.8800220
  23.0333666  56.1578677 111.1189314  19.5077132  42.5343458  91.4945341
  19.4955802  43.4785298  91.6513612  20.4000554  42.3513603  91.2004802
  17.6813094  62.4581362 102.9203019  18.5840341  62.4904972 103.2369514
  17.4550464  61.5281812 102.9349354  19.4366696  61.2112348  99.5813097
  18.4862327  61.2114210  99.4677470  19.7399183  60.4645083  99.0649132
  23.3229252  39.1286234  95.7491277  22.5561648  38.5744721  95.8947960
  23.7339957  39.2008103  96.6105429  35.1719390  67.0472886 100.6458860
  35.8097800  66.9279634  99.9422200  35.0540233  67.9953730 100.7046812
  31.9809096  67.0000315 100.5820384  31.6427608  66.8841379  99.6940919
  32.8498864  66.5991480 100.5621391  27.8395912  68.8535791  96.5717275
  27.2760777  68.7625728  95.8033563  27.7248307  68.0335695  97.0519768
  32.4628879  68.1535166 106.5406590  32.4517520  67.7587965 105.6687094
  32.6249519  67.4201239 107.1340361  25.3860344  70.3486983  99.4101496
  26.1781636  70.0077807  98.9947795  25.6256994  70.4581958 100.3303649
  33.4195471  72.5206759  91.8831740  32.7683450  73.1060839  91.4965754
  34.2139833  73.0512954  91.9426778  27.3451098  69.6095896  92.2818875
  28.1181974  69.0624883  92.1431750  27.6976497  70.4740145  92.4933336
  29.1836140  70.9372278 105.4885774  28.8926006  71.8417909 105.3732440
  29.8193125  70.9788806 106.2029843  30.1092347  68.3149127 102.0787134
  30.7055919  68.0905149 101.3644097  30.1667319  67.5733872 102.6812581
  29.6817376  65.7688562  89.9137325  29.9342896  65.2470083  89.1520788
  28.7441935  65.6054707  90.0164008  34.7260658  64.7724340  97.7212068
  35.5123748  64.3543763  97.3702485  34.9899363  65.6770432  97.8893716
  34.8970736  70.2097191  92.4200725  34.2616569  70.2831817  93.1321629
  34.5668142  70.7990789  91.7419804  40.1269085  64.7099574  98.6245046
  40.8594257  64.1398790  98.8582876  39.3708441  64.3221174  99.0651552
  29.4013664  67.6716668  92.1161699  29.2849922  66.9961571  92.7842784
  29.5115924  67.1849042  91.2993853  31.7445205  67.1326815  95.8208389
  31.3803412  66.6057436  96.5321310  32.6012321  66.7425284  95.6474874
  37.6494506  58.4221148 103.0839655  37.3177831  59.2916559 102.8600870
  37.0540119  58.1057432 103.7633685  31.3850692  62.1616715  90.8169737
  31.5525095  63.0296951  91.1840208  31.1947861  62.3243996  89.8931026
  34.1426025  70.6233694 102.4835568  33.8426748  71.5258732 102.3751375
  33.7977085  70.3565877 103.3356720  27.5938507  67.0747490  98.5172272
  26.6689003  66.9423705  98.7249964  27.8422920  67.8541710  99.0142214
  37.5423169  63.1416234 100.1633005  36.6340046  63.0731642  99.8691766
  37.4910765  63.6188179 100.9914830  31.3639913  64.6174372  91.8016404
  31.2439538  65.0631423  92.6401884  30.6692501  64.9659690  91.2429942
  24.9547318  66.7180764  99.3516061  25.0839699  66.9715243 100.2655473
  24.2744769  67.3108472  99.0320716  29.1246805  77.3878014  95.4506535
  29.0470835  78.3385839  95.5295016  28.5208449  77.0423886  96.1081462
  31.6164035  64.5605879 108.1067902  30.8397369  65.1199800 108.0970767
  32.2554598  65.0462662 108.6282772  39.4084816  61.3432672 101.9410879
  38.7659196  61.6365205 101.2950673  38.9039744  61.2285593 102.7464076
  37.0624979  65.0895845  92.6296738  37.9742835  65.3223232  92.4544436
  36.5534626  65.6732890  92.0671817  29.8710407  67.3691333 107.6685869
  30.6125092  67.9076377 107.3920693  29.1647393  67.9957621 107.8257421
  35.3465747  69.5120473 106.2658031  35.7549103  69.0702884 105.5212663
  34.6243008  68.9373101 106.5192224  31.6996817  64.4493080 103.6391588
  32.5458012  64.8732494 103.7826237  31.6395455  63.7926704 104.3330151
  35.6694562  70.0721664 100.0210320  35.0403424  70.2367378  99.3186387
  35.2820224  70.4863273 100.7921284  39.5483793  71.0076102  97.3754683
  38.8634832  71.3875003  96.8251717  39.6327643  71.6171428  98.1086631
  34.8496262  62.1097448 105.2972761  34.6057194  62.8639509 104.7607037
  35.1256193  62.4882796 106.1320008  36.8034725  68.6536061 103.9750027
  37.0151620  69.2967821 103.2984408  36.7564473  67.8198377 103.5071957
  34.4060954  61.2653881 100.8786599  33.5445433  61.5635135 101.1703337
  34.4323389  61.4824280  99.9467632  31.2222523  69.8096072  97.2860405
  31.6860869  70.0883775  96.4965027  30.9579322  68.9079516  97.1033495
  28.1146604  69.3567553 100.2240168  28.6847962  69.7854822  99.5857652
  28.7054716  69.0750138 100.9224354  30.1591409  65.9319224  94.0949970
  30.8615453  66.3840268  94.5623896  29.8272038  65.2903043  94.7229863
  28.6071771  64.5230981 108.4701179  27.9770432  65.2047262 108.7036576
  28.5007859  64.4114063 107.5254317  23.9016743  64.1902777  99.3967103
  23.1115797  64.4460305  98.9207214  24.3927991  65.0051115  99.5019144
  37.9180553  71.5308016 102.1472384  38.7397997  71.1288203 101.8655066
  37.9142956  71.4276250 103.0988500  25.8531489  64.5547356  96.3550580
  25.0562652  64.6666050  96.8734076  25.6257081  64.8934008  95.4891471
  31.6837156  71.0792059 104.3033095  31.7481589  71.5412467 105.1391267
  30.9748080  70.4489424 104.4315405  22.1854446  64.4433267 101.8282094
  22.4362485  65.3280277 102.0939670  22.7213995  64.2637869 101.0557186
  46.0086546  67.8746765  98.4957356  45.2550254  67.3054163  98.3401360
  46.1434087  67.8409429  99.4427990  31.3985174  72.7460167  94.1712075
  31.2630849  73.5911703  94.5996923  31.9394987  72.9479445  93.4078009
  27.8852514  58.8251747 110.8326430  27.4919459  58.2717945 111.5074074
  28.7018654  59.1362325 111.2232948  24.8514571  70.2635605  94.7440000
  25.3639092  71.0578855  94.8945565  25.5037284  69.5661895  94.6773602
  26.6609456  73.3801361  96.8262753  26.8376084  74.3019326  96.6383737
  27.4566290  73.0659780  97.2557133  30.8020475  60.2409626 108.4246687
  31.5430188  60.8416779 108.3451149  31.0338398  59.4987264 107.8664729
  25.9461813  65.4265993 106.7024917  25.8315328  64.5251250 107.0032015
  25.0906330  65.6729690 106.3509733  33.0253650  73.3683733 108.3012417
  32.5817505  72.5820112 107.9833322  33.6870864  73.5562884 107.6356308
  27.7840772  74.8979535 102.8273096  28.3348197  74.7696598 102.0550090
  26.9452248  75.1974424 102.4767988  35.1234889  73.6486533 106.3293818
  35.1053364  74.4695414 105.8374088  36.0454809  73.5240609 106.5543960
  31.5807943  71.1630663 107.1717327  32.1136279  70.4018951 106.9416635
  31.0522024  70.8704315 107.9141481  34.7477638  56.2690729 102.7010969
  34.4041907  57.1592370 102.6250079  35.1156600  56.0792386 101.8380554
  22.8163488  68.5924259  95.5199571  23.6538710  69.0021268  95.3033278
  22.9941756  67.6523701  95.4899765  34.7127920  66.2599340  91.2083404
  34.1974544  67.0303945  91.4471791  34.4405229  65.5864476  91.8316465
  32.2975031  61.1049041  96.2668642  31.4416628  60.7155891  96.0874281
  32.7101983  61.1841001  95.4068428  33.8274178  58.6395384 100.6660202
  33.3238974  58.6025519  99.8528007  34.1204785  59.5488127 100.7256858
  30.0717064  58.7234114  99.6726383  30.9370061  58.5276922  99.3132273
  30.1394573  58.4944465 100.5995740  39.6862194  69.0131695  93.1436577
  38.9091637  68.6742854  92.6991739  40.3653675  69.0184318  92.4691542
  34.5014224  64.1326432  93.0343185  34.1964359  64.4472581  93.8853328
  35.4544666  64.2107852  93.0770518  32.9460655  70.2916655  94.6836139
  32.4182017  69.5569415  94.3709376  32.4448158  71.0691332  94.4376107
  37.9253501  68.4865676  99.8003185  37.2677176  69.1764937  99.8883314
  38.7293901  68.8762108 100.1437171  27.6779383  60.9536322  97.0442750
  28.2523135  60.7311503  96.3115943  28.2650365  61.0225016  97.7971352
  36.7358960  66.8410048  97.8507127  37.2490842  67.4740040  98.3528837
  37.3860184  66.2411244  97.4850487  28.0048970  62.9840783  91.0638636
  27.1686282  63.3215469  91.3847910  27.8653740  62.8489762  90.1265773
  29.9802051  57.8277570  95.7717820  29.3266463  57.5126588  95.1474434
  29.9382525  57.2053311  96.4977643  31.0913256  68.1096866  87.6871112
  30.1840317  67.8786119  87.8862261  31.5884288  67.3134485  87.8745093
  33.9981334  76.8194373  90.6067798  33.3243033  77.1226070  91.2152756
  34.3847156  77.6223453  90.2573255  33.2139791  64.3159504 100.0965467
  32.2962352  64.5374451  99.9387155  33.6299935  64.3905815  99.2377175
  33.9974839  65.7150920  95.2268148  34.7446658  66.2272317  94.9175270
  34.2666428  65.3934972  96.0872541  32.2701489  68.2109460  92.2095102
  31.3612708  67.9268493  92.3067572  32.2996573  68.6308539  91.3498409
  37.5020756  71.8216050  95.9786269  37.0483084  70.9806960  96.0351460
  36.8714723  72.4577448  96.3161050  36.4453676  62.7508036  97.2086937
  35.7076433  62.2385422  97.5397179  36.6980450  62.3108418  96.3970214
  35.9453696  73.6592547  96.9136088  36.2376670  74.2197604  96.1948453
  36.4552316  73.9521108  97.6689247  36.5465303  55.5284288  97.8028706
  36.8524180  54.6681651  97.5154621  37.2717908  56.1201908  97.6027700
  22.8389659  65.9314975  96.1910304  22.6414059  65.3384335  95.4661371
  22.2836323  65.6267185  96.9086243  30.8186383  65.8238081  98.3104897
  30.8734993  64.8711917  98.2347374  30.0077585  65.9797520  98.7946196
  31.9677577  69.7518204  89.5483180  31.5297007  69.0354063  89.0888818
  32.7088018  69.9794319  88.9868272  28.7578743  64.4415141  96.0695276
  27.9446608  64.7409311  96.4760468  29.2537737  64.0470830  96.7869758
  30.9087321  74.4372898  98.0029541  30.8663500  74.6633744  97.0738073
  31.8250020  74.2036272  98.1515342  34.3552955  64.9056965 104.9010170
  34.7102342  65.1328438 105.7604636  35.0025086  65.2375342 104.2787425
  40.0850692  68.0275401  95.6059499  39.9468590  68.2176997  94.6780688
  39.7286910  68.7894784  96.0627550  28.2492818  62.0133496 101.6856511
  28.8892197  61.8722255 100.9879474  27.4170348  61.7268010 101.3095113
  40.1120071  70.0951928 100.6170771  40.5456578  70.0027217 101.4653825
  40.8251652  70.0709429  99.9790787  29.0253122  71.3135927  97.7991504
  29.8193720  70.8186247  97.5974078  28.3144814  70.7853790  97.4359209
  33.8447966  73.6954022 102.1503871  33.8984988  74.2644959 102.9181587
  32.9762747  73.8655907 101.7857908  25.3335885  65.4579008  93.8751256
  24.4033473  65.3963464  94.0921218  25.4293357  64.9354961  93.0787897
  25.2521434  61.9833821  96.4629498  25.5128251  62.8979155  96.3538658
  26.0738606  61.5158264  96.6126111  26.7246359  63.3971578 103.6328322
  27.3969413  63.1888941 102.9840971  25.8976146  63.1993664 103.1933555
  40.9735621  70.1375629 103.1503656  41.1671511  71.0421439 103.3962931
  40.8736239  69.6783048 103.9842241  32.6271931  60.0233519 105.6493983
  31.9799847  60.7223469 105.5558460  33.3972947  60.4569663 106.0170231
  36.0350729  70.2882372 108.7244537  35.8836236  70.0592923 107.8074620
  36.0255409  71.2452973 108.7375882  32.8036066  67.8614284 103.7090803
  33.7328126  68.0125444 103.5359770  32.3827096  67.9498305 102.8539450
  31.6024398  71.8864949 101.4789341  31.4635483  71.5183733 102.3515279
  30.8138994  72.4012588 101.3073298  32.1972550  76.9874045  92.8214877
  32.3724305  76.5162088  93.6360500  31.5105338  77.6139811  93.0496138
  33.1529613  71.2646551  98.8678178  32.8179445  71.2247321  99.7635828
  32.6533558  70.5991267  98.3948589  27.1273857  66.6714181 104.3930760
  26.9893655  65.9394420 104.9942299  28.0378780  66.5823082 104.1114947
  36.0888804  68.6102586  89.1415238  35.4717975  67.8849414  89.0448291
  35.6205293  69.3711946  88.7982312  29.7556157  66.3834141 103.8814439
  30.4655776  65.7427333 103.8401058  29.7125466  66.6347036 104.8040620
  37.7442936  73.3201494 106.8021018  37.6855482  72.6360714 106.1351601
  38.1462454  74.0620484 106.3501644  28.4685091  63.3699359 105.7010079
  27.9322448  62.9190097 106.3531675  27.8801800  63.5045267 104.9580543
  26.7633635  80.1363408  99.5954737  27.0030233  80.7681932 100.2733756
  25.9202831  79.7851448  99.8820097  27.8787350  62.8288010  88.2636542
  27.0016817  62.7076811  87.8998789  28.3545103  62.0374088  88.0115431
  37.7460343  71.2841078 105.0334998  36.8587122  70.9467000 105.1561397
  38.3158894  70.5524109 105.2703763  19.3989490  67.6165170  98.3578049
  20.0860530  67.3026900  97.7699065  19.2437619  68.5206534  98.0845301
  24.2024213  62.5055366 102.7863073  24.1182401  61.8981036 102.0513483
  23.3806919  62.9964385 102.7872570  31.2761497  75.9442530 101.9996241
  31.2031668  76.7497502 102.5115546  30.8338890  76.1434496 101.1744263
  31.0651276  75.1814300  95.5099063  30.2818798  75.7235981  95.6037287
  31.7644022  75.6988280  95.9093304  34.3747926  60.9908930  98.1533268
  34.8716626  60.2378892  97.8334338  33.6034908  61.0273247  97.5876478
  42.2277684  66.6949295  99.7951560  42.2167560  67.5774011  99.4245493
  41.3595063  66.3420846  99.6006097  33.7360180  75.8429364 104.1554400
  34.4488152  76.4776829 104.0830301  33.2450209  75.9393230 103.3394402
  35.4577707  69.7480617  95.7271692  34.5233986  69.8682080  95.5576396
  35.6354376  68.8453084  95.4631701  30.9582895  63.1326313  97.8804953
  30.5880683  62.5797353  98.5685858  31.4541988  62.5284446  97.3279953
  38.8450259  65.5897936  96.2621726  39.3110711  66.4225928  96.1882028
  39.2957759  65.1242918  96.9666984  28.7872094  73.5923808 104.9759971
  29.4881553  74.2260291 105.1289365  28.3167209  73.9338539 104.2155610
  36.9126490  71.9341758  93.2607878  37.1886334  71.8198352  94.1701752
  36.0430988  71.5359243  93.2220051  36.8166921  57.9578523 100.3012627
  35.9030001  58.1882750 100.4694834  37.2460023  58.0416967 101.1526659
  36.5873380  66.1468415 102.8012521  35.9344830  66.3944323 102.1464974
  36.9653760  65.3332554 102.4674998  33.5480554  76.1828109  96.9040691
  33.7302948  75.3649764  97.3668444  34.3713540  76.3995801  96.4665581
  33.8822719  75.1096294  94.1655740  34.4110486  74.5988748  93.5525902
  34.1450939  74.7938824  95.0301273  32.6360953  66.8888226 109.2878558
  31.9601590  66.7882356 109.9580933  33.4588587  66.7327440 109.7514555
  24.3839812  73.1260163 101.9091073  24.9693249  72.3803851 102.0418978
  24.1864650  73.4364120 102.7927737  27.2378467  76.1611410  96.9253516
  26.5688842  76.6457538  96.4417556  27.0991337  76.4080631  97.8396894
  18.9757467  65.6965763 100.6295517  19.0141566  65.1629354 101.4232635
  18.4697759  65.1700969 100.0106494  31.3783736  78.1955154 103.5236174
  31.9302044  78.3586775 104.2885259  31.7189929  78.7859592 102.8516199
  26.3548229  60.5430304 104.1258059  26.4189555  61.4045135 103.7135457
  26.2915349  59.9304305 103.3930417  25.8300501  62.6153436 107.7731093
  26.4572540  62.2330514 108.3868617  24.9728420  62.3967638 108.1386786
  36.2294610  73.0216411 109.3784829  36.7734514  73.6346370 108.8839783
  35.6481455  73.5795990 109.8951842  22.6066044  64.4229865  93.7049448
  22.9019485  63.5140544  93.6516502  21.7054080  64.4017605  93.3830450
  34.5152123  76.1437129 100.5099856  34.3903262  75.3426869 100.0010802
  35.1731214  76.6383323 100.0213826  26.1360291  62.4985862  99.6876997
  25.4146877  63.1121830  99.5484470  26.9253547  63.0343627  99.6093643
  36.5787031  73.9446149 102.1379406  35.6317367  73.8251501 102.0657733
  36.9269804  73.0568648 102.2205668  28.9386605  59.8340288 105.9617648
  29.4621006  60.0802585 106.7243958  28.7198938  60.6660323 105.5420786
  24.3353886  62.1043963  93.8288773  24.0066592  61.2241342  93.6463879
  24.6893256  62.0491632  94.7165162  33.5833465  73.7398866  98.3383759
  33.4358427  72.8115573  98.5191329  34.4086958  73.7618956  97.8540834
  27.4495709  62.3916933  94.1964251  27.7891781  62.9202854  93.4742859
  27.8967829  62.7297339  94.9722817  37.1867586  74.5627424  99.4248631
  38.1114134  74.3570286  99.2873083  37.0182890  74.3143826 100.3337973
  30.1439150  60.7753983 103.6467319  29.8035970  59.9761797 104.0487999
  29.4378156  61.0755694 103.0744152  30.7955622  57.8603296 102.0994642
  31.6181691  57.3863774 101.9773532  31.0393685  58.6393780 102.5993328
  29.4363856  60.8891554  92.3957544  30.1572219  61.2672807  91.8921260
  28.8129160  61.6080431  92.4992522  33.5794979  61.5936703  93.3315876
  33.7958593  62.4761341  93.0304704  33.0989046  61.2022917  92.6021518
  28.3194200  64.5522417  99.9086621  28.1738781  64.8662720 100.8010902
  27.8419404  65.1707317  99.3557519  30.1790583  61.5424965  99.9567510
  30.1652152  60.6466058  99.6199808  30.8963011  61.5495628 100.5905796
  32.0316714  61.9762305 102.0020638  31.7734492  62.8979375 102.0004968
  31.5001754  61.5792739 102.6921102  36.9762903  75.0813092  94.7810723
  37.1499780  74.5159514  94.0284575  37.4691794  75.8813987  94.5990213
  22.7939862  67.0927761 102.8474282  22.2493331  67.8687569 102.9794556
  23.6719212  67.4398565 102.6893403  29.5827479  60.4239345  95.2255080
  29.7043390  59.4955991  95.4245968  29.2929521  60.4378031  94.3133396
  32.4518670  58.1094255  98.3621800  32.4740366  58.1733588  97.4073780
  32.8686729  57.2698764  98.5562306  42.8302294  67.8449515  96.4001023
  43.2733440  67.0956840  96.0020146  41.9528804  67.8359651  96.0174755
  37.9638075  74.3979856  91.8807621  38.6588980  75.0186549  92.0994936
  38.3061225  73.5475207  92.1559999  23.5805884  66.2197657 105.7404439
  22.8387620  66.3680293 106.3269069  23.2598629  66.4805923 104.8771188
  39.8629498  71.8479562  93.4094952  40.3880822  72.1866835  92.6844272
  39.7751851  70.9126577  93.2258087  31.5249547  75.7613635 105.5384829
  31.8336673  75.5162782 106.4107528  32.3225029  75.9660274 105.0503699
  31.5470159  77.9151545  97.7690205  31.1075149  77.4227924  98.4623062
  32.2978276  77.3724513  97.5282280  24.0262498  74.1063086  97.7714833
  24.8520518  73.8066858  97.3913477  23.6756550  73.3370708  98.2204622
  28.9944031  73.4589554  99.8412507  28.3724040  72.7960259  99.5414735
  29.6648898  73.4850686  99.1586155  22.2271103  72.0249412  98.7303767
  21.3903011  71.5971587  98.5487768  22.1994748  72.2181856  99.6674558
  29.0668559  61.9371342 109.4345013  29.1156714  62.8133465 109.0522782
  29.6091073  61.3948735 108.8616656  39.5523404  72.4812465 108.7146150
  38.7618948  72.4636604 108.1750649  39.3156759  73.0200759 109.4695186
  39.6721279  69.3304932 106.0278878  39.7219284  69.1654939 106.9694401
  39.5635203  68.4632191 105.6376759  28.5557538  72.0093478  93.3170967
  28.7045658  72.6928942  92.6637640  29.3623982  71.9898568  93.8320423
  36.9625042  65.3135860 107.3438185  37.8634905  65.1742325 107.0522183
  37.0373016  65.4790315 108.2836363  31.2967847  62.6902715 106.1891371
  30.4271157  62.9836281 105.9173960  31.5327327  63.2743160 106.9098635
  41.1739476  71.7501873 106.2720900  40.8824285  72.1131854 107.1084361
  40.5611608  71.0368882 106.0934232  42.3735159  69.3154753  98.7923470
  43.2082050  69.7544557  98.9561031  42.5094287  68.8393406  97.9731716
  39.4226664  66.8734488 104.7400958  39.8980786  67.0662134 103.9319809
  38.4992230  66.9293674 104.4944342  26.3110171  68.0358655  94.3232036
  26.0656213  67.1320985  94.5212246  26.4806086  68.0375806  93.3811514
  34.0006881  58.9082332 103.7056792  34.5188825  59.6443358 103.3803280
  33.6462014  59.2146325 104.5403551  25.5805819  63.7687013  91.8218198
  24.8875064  63.8431368  91.1658234  25.3357571  63.0047356  92.3439715
  34.2519475  55.3282614  99.2257688  34.5321229  54.6605803  99.8518115
  35.0370082  55.5211710  98.7132352  32.0552944  74.5041608  90.7882715
  31.4826911  75.1231795  90.3353187  32.6285737  75.0540970  91.3222637
  38.1228333  63.7500248 102.9729264  39.0745756  63.8498346 102.9941488
  37.9531784  62.9578517 103.4827348  36.1442713  60.8355831 103.1588664
  35.5492645  61.1160844 102.4635153  35.8592410  61.3249732 103.9305406
  35.2750203  74.7878758  91.9191297  36.2080877  74.7224320  92.1224173
  35.1873416  75.6235025  91.4605830  37.9038220  74.1044628  88.8795245
  37.8251852  73.7704492  89.7731003  38.7247887  74.5966396  88.8786717
  40.6016411  66.9706368 102.0871563  40.5692731  66.0322368 102.2731247
  41.2117035  67.0490404 101.3537388  32.4399742  65.8402421  88.1298767
  33.3858847  65.7108629  88.1987185  32.0613987  65.1017083  88.6068195
  40.7510900  63.7617411 102.1329846  40.2349948  62.9775868 101.9459775
  41.6350848  63.4336128 102.2976366  38.4121627  57.5058427  98.0925659
  38.2146448  57.1973515  98.9768991  39.0221332  58.2320066  98.2223589
  46.4192961  68.0322375 101.2277600  47.1496350  67.7707663 101.7885303
  45.8099907  67.2951097 101.2679668  44.5008258  66.1730237 101.8252051
  43.7741422  66.0386202 101.2168543  44.0855545  66.4807066 102.6308769
  32.3238435  69.8920167 109.5899424  33.2441444  70.0698766 109.7839471
  32.2888018  68.9476212 109.4379123  30.6242659  63.7652397  88.0653652
  29.7174115  63.4685510  88.1416366  30.9018640  63.4682215  87.1987939
  21.5420600  65.0858761  98.5152699  21.2223384  64.2324069  98.2227073
  20.9954028  65.3007339  99.2710666  25.3200507  67.8021202 102.2322205
  25.5386517  68.7338309 102.2510239  25.7326281  67.4429176 103.0177009
  32.2404725  58.3089287  94.2197894  31.4305453  57.9636372  94.5953140
  32.9289142  57.9996831  94.8085505  34.1695273  57.3867334  95.8422190
  34.7226312  57.8062787  96.5012214  34.4065360  56.4603082  95.8845146
  30.1928373  63.3754407 111.6224954  30.0925099  64.3248764 111.5537045
  29.9749915  63.0472646 110.7501024  29.3941444  60.6239332  88.2065632
  30.2560608  60.9494231  88.4661449  29.5791788  59.8370828  87.6938697
  21.4108860  68.7061672 100.4845820  20.7172331  68.2915625  99.9715775
  22.1581851  68.7482209  99.8879239  37.5474080  59.4967859  95.3500855
  36.9672749  60.1552663  94.9678907  37.2810013  58.6745203  94.9388272
  35.9977647  58.8972916  97.5522175  36.4977425  59.0089451  96.7436494
  36.6413255  58.5933969  98.1922983  30.0559643  66.8051546 110.4390016
  29.5726724  67.6051906 110.6453905  30.1420582  66.8159491 109.4857460
  23.3245602  68.6379926  98.3611835  23.3016290  68.7367613  97.4093718
  23.6346239  69.4845077  98.6829001  25.9832980  70.6956081 102.4758450
  26.9376234  70.6640023 102.4088381  25.7845504  70.2346705 103.2908676
  26.5732362  69.2657197 105.0429247  27.3925251  69.7601276 105.0664085
  26.8469170  68.3489165 105.0146815  36.3298958  61.6567949  94.4057203
  35.4424813  61.9417600  94.1877398  36.7452947  61.4961713  93.5584480
  39.6813495  61.6814470  98.1211542  40.4573885  62.1710923  98.3936159
  38.9561629  62.1072524  98.5783412  42.1186053  62.3942089  99.1785483
  42.7130544  62.1537825  98.4678791  42.1912637  61.6749220  99.8059019
  24.3383209  76.2375700  99.4928648  24.2037677  75.4776101  98.9266646
  23.9215271  76.9616600  99.0257437  35.4742172  71.4212624  88.5005223
  36.1778022  71.6262626  89.1162879  34.7504821  71.9889386  88.7654306
  36.3039982  67.1722485  94.6207493  36.2475184  67.6291037  93.7815126
  36.8568325  66.4113170  94.4430336  40.1144788  62.9612217  95.4457613
  39.8581722  62.5608853  96.2765820  39.4897656  63.6756011  95.3207752
  44.4257126  65.7008290  97.9528904  43.8656684  65.7701480  98.7260466
  43.8200629  65.5249275  97.2328400  27.4952335  77.1345017  99.7047090
  27.3784719  78.0790450  99.6025781  26.6744781  76.8318579 100.0932889
  37.3828869  71.8595153  90.5503683  38.2174473  71.4276352  90.3681158
  37.2213212  71.6877167  91.4780577  37.0374761  68.3627266  91.9160022
  36.9823565  68.1971538  90.9748466  36.4120817  69.0703299  92.0722212
  21.8267276  63.5995331 105.7421444  22.4726140  63.0894285 106.2308670
  21.6184428  64.3364012 106.3164870  34.3520669  70.6676178 111.2413585
  35.2211828  70.8416830 110.8800220  33.8727420  71.4870595 111.1189314
  30.3470887  57.8635375  91.4945341  30.3349557  58.8077215  91.6513612
  31.2394309  57.6805521  91.2004802  28.5206849  77.7873279 102.9203019
  29.4234096  77.8196889 103.2369514  28.2944219  76.8573730 102.9349354
  30.2760451  76.5404266  99.5813097  29.3256082  76.5406127  99.4677470
  30.5792937  75.7937000  99.0649132  34.1623006  54.4578152  95.7491277
  33.3955402  53.9036639  95.8947960  34.5733711  54.5300021  96.6105429
  26.1664767  60.7462948 109.8396459  27.0296229  60.3899753 110.0499783
  25.5930178  60.4076843 110.5271863  46.0113144  82.3764804 100.6458860
  46.6491554  82.2571551  99.9422200  45.8933987  83.3245648 100.7046812
  42.8202851  82.3292232 100.5820384  42.4821362  82.2133297  99.6940919
  43.6892619  81.9283397 100.5621391  38.6789666  84.1827709  96.5717275
  38.1154531  84.0917646  95.8033563  38.5642061  83.3627613  97.0519768
  43.3022634  83.4827084 106.5406590  43.2911274  83.0879882 105.6687094
  43.4643273  82.7493157 107.1340361  36.2254098  85.6778900  99.4101496
  37.0175390  85.3369725  98.9947795  36.4650748  85.7873875 100.3303649
  44.2589225  87.8498676  91.8831740  43.6077205  88.4352757  91.4965754
  45.0533588  88.3804871  91.9426778  38.1844852  84.9387814  92.2818875
  38.9575728  84.3916801  92.1431750  38.5370251  85.8032063  92.4933336
  40.0229895  86.2664196 105.4885774  39.7319761  87.1709827 105.3732440
  40.6586879  86.3080723 106.2029843  40.9486102  83.6441044 102.0787134
  41.5449674  83.4197067 101.3644097  41.0061073  82.9025790 102.6812581
  40.5211130  81.0980480  89.9137325  40.7736651  80.5762001  89.1520788
  39.5835689  80.9346625  90.0164008  45.5654413  80.1016258  97.7212068
  46.3517502  79.6835681  97.3702485  45.8293117  81.0062350  97.8893716
  45.7364490  85.5389108  92.4200725  45.1010323  85.6123735  93.1321629
  45.4061897  86.1282707  91.7419804  50.9662840  80.0391491  98.6245046
  51.6988012  79.4690708  98.8582876  50.2102196  79.6513092  99.0651552
  40.2407419  83.0008586  92.1161699  40.1243677  82.3253489  92.7842784
  40.3509679  82.5140960  91.2993853  42.5838960  82.4618733  95.8208389
  42.2197167  81.9349354  96.5321310  43.4406076  82.0717202  95.6474874
  48.4888260  73.7513065 103.0839655  48.1571585  74.6208476 102.8600870
  47.8933874  73.4349349 103.7633685  42.2244447  77.4908632  90.8169737
  42.3918849  78.3588869  91.1840208  42.0341616  77.6535914  89.8931026
  44.9819780  85.9525611 102.4835568  44.6820503  86.8550650 102.3751375
  44.6370839  85.6857794 103.3356720  38.4332261  82.4039408  98.5172272
  37.5082758  82.2715622  98.7249964  38.6816675  83.1833627  99.0142214
  48.3816924  78.4708151 100.1633005  47.4733801  78.4023560  99.8691766
  48.3304519  78.9480096 100.9914830  42.2033668  79.9466290  91.8016404
  42.0833293  80.3923341  92.6401884  41.5086256  80.2951608  91.2429942
  35.7941072  82.0472682  99.3516061  35.9233454  82.3007161 100.2655473
  35.1138524  82.6400390  99.0320716  39.9640560  92.7169932  95.4506535
  39.8864589  93.6677757  95.5295016  39.3602203  92.3715804  96.1081462
  42.4557789  79.8897797 108.1067902  41.6791123  80.4491717 108.0970767
  43.0948352  80.3754580 108.6282772  50.2478570  76.6724590 101.9410879
  49.6052950  76.9657123 101.2950673  49.7433499  76.5577510 102.7464076
  47.9018734  80.4187763  92.6296738  48.8136590  80.6515150  92.4544436
  47.3928381  81.0024807  92.0671817  40.7104162  82.6983250 107.6685869
  41.4518846  83.2368294 107.3920693  40.0041147  83.3249539 107.8257421
  46.1859501  84.8412391 106.2658031  46.5942857  84.3994801 105.5212663
  45.4636763  84.2665018 106.5192224  42.5390571  79.7784998 103.6391588
  43.3851767  80.2024411 103.7826237  42.4789209  79.1218622 104.3330151
  46.5088316  85.4013582 100.0210320  45.8797178  85.5659296  99.3186387
  46.1213978  85.8155191 100.7921284  50.3877548  86.3368019  97.3754683
  49.7028586  86.7166921  96.8251717  50.4721397  86.9463346  98.1086631
  45.6890017  77.4389366 105.2972761  45.4450949  78.1931427 104.7607037
  45.9649947  77.8174714 106.1320008  47.6428480  83.9827978 103.9750027
  47.8545375  84.6259738 103.2984408  47.5958228  83.1490295 103.5071957
  45.2454708  76.5945799 100.8786599  44.3839188  76.8927053 101.1703337
  45.2717143  76.8116198  99.9467632  42.0616278  85.1387990  97.2860405
  42.5254623  85.4175693  96.4965027  41.7973076  84.2371434  97.1033495
  38.9540359  84.6859471 100.2240168  39.5241716  85.1146740  99.5857652
  39.5448471  84.4042056 100.9224354  40.9985164  81.2611142  94.0949970
  41.7009207  81.7132186  94.5623896  40.6665792  80.6194961  94.7229863
  39.4465525  79.8522899 108.4701179  38.8164186  80.5339179 108.7036576
  39.3401613  79.7405980 107.5254317  34.7410498  79.5194695  99.3967103
  33.9509552  79.7752223  98.9207214  35.2321745  80.3343032  99.5019144
  48.7574307  86.8599934 102.1472384  49.5791751  86.4580121 101.8655066
  48.7536710  86.7568168 103.0988500  36.6925243  79.8839274  96.3550580
  35.8956407  79.9957968  96.8734076  36.4650835  80.2225926  95.4891471
  42.5230911  86.4083977 104.3033095  42.5875343  86.8704384 105.1391267
  41.8141835  85.7781342 104.4315405  33.0248201  79.7725185 101.8282094
  33.2756239  80.6572195 102.0939670  33.5607749  79.5929787 101.0557186
  56.8480301  83.2038682  98.4957356  56.0944009  82.6346080  98.3401360
  56.9827842  83.1701347  99.4427990  42.2378929  88.0752085  94.1712075
  42.1024603  88.9203620  94.5996923  42.7788741  88.2771362  93.4078009
  38.7246268  74.1543664 110.8326430  38.3313214  73.6009863 111.5074074
  39.5412409  74.4654243 111.2232948  35.6908326  85.5927523  94.7440000
  36.2032847  86.3870773  94.8945565  36.3431039  84.8953813  94.6773602
  37.5003211  88.7093279  96.8262753  37.6769839  89.6311244  96.6383737
  38.2960044  88.3951698  97.2557133  41.6414229  75.5701544 108.4246687
  42.3823943  76.1708697 108.3451149  41.8732152  74.8279181 107.8664729
  36.7855567  80.7557911 106.7024917  36.6709082  79.8543168 107.0032015
  35.9300085  81.0021608 106.3509733  43.8647405  88.6975651 108.3012417
  43.4211259  87.9112030 107.9833322  44.5264619  88.8854802 107.6356308
  38.6234526  90.2271453 102.8273096  39.1741951  90.0988516 102.0550090
  37.7846002  90.5266342 102.4767988  45.9628643  88.9778451 106.3293818
  45.9447118  89.7987332 105.8374088  46.8848563  88.8532526 106.5543960
  42.4201697  86.4922581 107.1717327  42.9530034  85.7310869 106.9416635
  41.8915778  86.1996232 107.9141481  45.5871392  71.5982646 102.7010969
  45.2435662  72.4884288 102.6250079  45.9550355  71.4084304 101.8380554
  33.6557243  83.9216177  95.5199571  34.4932465  84.3313185  95.3033278
  33.8335510  82.9815619  95.4899765  45.5521675  81.5891258  91.2083404
  45.0368298  82.3595862  91.4471791  45.2798983  80.9156394  91.8316465
  43.1368786  76.4340958  96.2668642  42.2810382  76.0447809  96.0874281
  43.5495738  76.5132919  95.4068428  44.6667933  73.9687302 100.6660202
  44.1632728  73.9317437  99.8528007  44.9598539  74.8780044 100.7256858
  40.9110818  74.0526031  99.6726383  41.7763815  73.8568840  99.3132273
  40.9788327  73.8236383 100.5995740  50.5255949  84.3423612  93.1436577
  49.7485392  84.0034772  92.6991739  51.2047430  84.3476235  92.4691542
  45.3407978  79.4618350  93.0343185  45.0358114  79.7764499  93.8853328
  46.2938420  79.5399770  93.0770518  43.7854410  85.6208573  94.6836139
  43.2575771  84.8861333  94.3709376  43.2841913  86.3983249  94.4376107
  48.7647256  83.8157593  99.8003185  48.1070930  84.5056855  99.8883314
  49.5687655  84.2054025 100.1437171  38.5173137  76.2828239  97.0442750
  39.0916889  76.0603421  96.3115943  39.1044120  76.3516934  97.7971352
  47.5752715  82.1701966  97.8507127  48.0884596  82.8031958  98.3528837
  48.2253939  81.5703162  97.4850487  38.8442725  78.3132700  91.0638636
  38.0080037  78.6507387  91.3847910  38.7047494  78.1781680  90.1265773
  40.8195805  73.1569488  95.7717820  40.1660218  72.8418505  95.1474434
  40.7776279  72.5345229  96.4977643  41.9307010  83.4388783  87.6871112
  41.0234072  83.2078037  87.8862261  42.4278042  82.6426403  87.8745093
  44.8375089  92.1486290  90.6067798  44.1636788  92.4517987  91.2152756
  45.2240911  92.9515371  90.2573255  44.0533546  79.6451422 100.0965467
  43.1356107  79.8666369  99.9387155  44.4693689  79.7197732  99.2377175
  44.8368593  81.0442837  95.2268148  45.5840412  81.5564235  94.9175270
  45.1060183  80.7226890  96.0872541  43.1095243  83.5401378  92.2095102
  42.2006463  83.2560411  92.3067572  43.1390327  83.9600457  91.3498409
  48.3414511  87.1507968  95.9786269  47.8876838  86.3098878  96.0351460
  47.7108478  87.7869366  96.3161050  47.2847430  78.0799954  97.2086937
  46.5470187  77.5677340  97.5397179  47.5374204  77.6400335  96.3970214
  46.7847450  88.9884464  96.9136088  47.0770425  89.5489521  96.1948453
  47.2946071  89.2813025  97.6689247  47.3859058  70.8576206  97.8028706
  47.6917935  69.9973569  97.5154621  48.1111663  71.4493826  97.6027700
  33.6783414  81.2606892  96.1910304  33.4807814  80.6676253  95.4661371
  33.1230078  80.9559102  96.9086243  41.6580138  81.1529999  98.3104897
  41.7128747  80.2003835  98.2347374  40.8471340  81.3089438  98.7946196
  42.8071331  85.0810122  89.5483180  42.3690761  84.3645981  89.0888818
  43.5481772  85.3086237  88.9868272  39.5972497  79.7707058  96.0695276
  38.7840363  80.0701229  96.4760468  40.0931492  79.3762747  96.7869758
  41.7481075  89.7664815  98.0029541  41.7057254  89.9925662  97.0738073
  42.6643774  89.5328190  98.1515342  45.1946709  80.2348883 104.9010170
  45.5496097  80.4620356 105.7604636  45.8418840  80.5667260 104.2787425
  50.9244446  83.3567319  95.6059499  50.7862345  83.5468915  94.6780688
  50.5680665  84.1186702  96.0627550  39.0886572  77.3425414 101.6856511
  39.7285952  77.2014173 100.9879474  38.2564103  77.0559927 101.3095113
  50.9513826  85.4243846 100.6170771  51.3850332  85.3319135 101.4653825
  51.6645406  85.4001346  99.9790787  39.8646876  86.6427844  97.7991504
  40.6587475  86.1478165  97.5974078  39.1538568  86.1145708  97.4359209
  44.6841721  89.0245940 102.1503871  44.7378743  89.5936876 102.9181587
  43.8156502  89.1947825 101.7857908  36.1729640  80.7870926  93.8751256
  35.2427228  80.7255382  94.0921218  36.2687112  80.2646879  93.0787897
  36.0915189  77.3125739  96.4629498  36.3522006  78.2271072  96.3538658
  36.9132361  76.8450182  96.6126111  37.5640114  78.7263496 103.6328322
  38.2363167  78.5180858 102.9840971  36.7369900  78.5285582 103.1933555
  51.8129375  85.4667546 103.1503656  52.0065265  86.3713357 103.3962931
  51.7129993  85.0074966 103.9842241  43.4665686  75.3525437 105.6493983
  42.8193601  76.0515387 105.5558460  44.2366701  75.7861581 106.0170231
  46.8744484  85.6174289 108.7244537  46.7229990  85.3884841 107.8074620
  46.8649163  86.5744891 108.7375882  43.6429820  83.1906202 103.7090803
  44.5721880  83.3417362 103.5359770  43.2220850  83.2790223 102.8539450
  42.4418152  87.2156866 101.4789341  42.3029238  86.8475651 102.3515279
  41.6532748  87.7304506 101.3073298  43.0366304  92.3165963  92.8214877
  43.2118060  91.8454006  93.6360500  42.3499092  92.9431729  93.0496138
  43.9923367  86.5938469  98.8678178  43.6573200  86.5539239  99.7635828
  43.4927313  85.9283185  98.3948589  37.9667611  82.0006099 104.3930760
  37.8287409  81.2686338 104.9942299  38.8772535  81.9114999 104.1114947
  46.9282559  83.9394503  89.1415238  46.3111730  83.2141332  89.0448291
  46.4599047  84.7003864  88.7982312  40.5949912  81.7126058 103.8814439
  41.3049530  81.0719251 103.8401058  40.5519220  81.9638953 104.8040620
  48.5836691  88.6493412 106.8021018  48.5249237  87.9652632 106.1351601
  48.9856209  89.3912402 106.3501644  39.3078846  78.6991276 105.7010079
  38.7716203  78.2482015 106.3531675  38.7195554  78.8337185 104.9580543
  37.6027389  95.4655326  99.5954737  37.8423988  96.0973850 100.2733756
  36.7596586  95.1143366  99.8820097  38.7181105  78.1579928  88.2636542
  37.8410571  78.0368729  87.8998789  39.1938858  77.3666006  88.0115431
  48.5854098  86.6132996 105.0334998  47.6980877  86.2758918 105.1561397
  49.1552649  85.8816027 105.2703763  30.2383245  82.9457087  98.3578049
  30.9254285  82.6318818  97.7699065  30.0831374  83.8498452  98.0845301
  35.0417967  77.8347284 102.7863073  34.9576156  77.2272954 102.0513483
  34.2200673  78.3256302 102.7872570  42.1155251  91.2734448 101.9996241
  42.0425423  92.0789420 102.5115546  41.6732644  91.4726414 101.1744263
  41.9045031  90.5106218  95.5099063  41.1212553  91.0527898  95.6037287
  42.6037776  91.0280198  95.9093304  45.2141681  76.3200848  98.1533268
  45.7110381  75.5670810  97.8334338  44.4428662  76.3565164  97.5876478
  53.0671438  82.0241213  99.7951560  53.0561315  82.9065929  99.4245493
  52.1988818  81.6712764  99.6006097  44.5753935  91.1721282 104.1554400
  45.2881907  91.8068747 104.0830301  44.0843963  91.2685148 103.3394402
  46.2971462  85.0772535  95.7271692  45.3627740  85.1973997  95.5576396
  46.4748130  84.1745002  95.4631701  41.7976650  78.4618231  97.8804953
  41.4274437  77.9089271  98.5685858  42.2935742  77.8576364  97.3279953
  49.6844013  80.9189854  96.2621726  50.1504465  81.7517846  96.1882028
  50.1351514  80.4534836  96.9666984  39.6265848  88.9215726 104.9759971
  40.3275308  89.5552209 105.1289365  39.1560963  89.2630457 104.2155610
  47.7520244  87.2633675  93.2607878  48.0280088  87.1490270  94.1701752
  46.8824743  86.8651160  93.2220051  47.6560676  73.2870441 100.3012627
  46.7423756  73.5174668 100.4694834  48.0853777  73.3708885 101.1526659
  47.4267134  81.4760333 102.8012521  46.7738584  81.7236240 102.1464974
  47.8047514  80.6624471 102.4674998  44.3874308  91.5120026  96.9040691
  44.5696703  90.6941682  97.3668444  45.2107294  91.7287718  96.4665581
  44.7216474  90.4388211  94.1655740  45.2504240  89.9280666  93.5525902
  44.9844693  90.1230742  95.0301273  43.4754707  82.2180144 109.2878558
  42.7995344  82.1174273 109.9580933  44.2982341  82.0619358 109.7514555
  35.2233566  88.4552081 101.9091073  35.8087003  87.7095769 102.0418978
  35.0258405  88.7656037 102.7927737  38.0772222  91.4903328  96.9253516
  37.4082597  91.9749456  96.4417556  37.9385091  91.7372548  97.8396894
  29.8151221  81.0257681 100.6295517  29.8535321  80.4921272 101.4232635
  29.3091514  80.4992886 100.0106494  42.2177490  93.5247072 103.5236174
  42.7695798  93.6878693 104.2885259  42.5583684  94.1151509 102.8516199
  37.1941983  75.8722221 104.1258059  37.2583310  76.7337052 103.7135457
  37.1309104  75.2596223 103.3930417  36.6694256  77.9445354 107.7731093
  37.2966295  77.5622431 108.3868617  35.8122175  77.7259556 108.1386786
  47.0688364  88.3508329 109.3784829  47.6128268  88.9638287 108.8839783
  46.4875209  88.9087907 109.8951842  33.4459799  79.7521783  93.7049448
  33.7413240  78.8432461  93.6516502  32.5447834  79.7309522  93.3830450
  45.3545877  91.4729047 100.5099856  45.2297017  90.6718787 100.0010802
  46.0124969  91.9675240 100.0213826  36.9754046  77.8277780  99.6876997
  36.2540631  78.4413747  99.5484470  37.7647301  78.3635544  99.6093643
  47.4180786  89.2738067 102.1379406  46.4711121  89.1543418 102.0657733
  47.7663559  88.3860565 102.2205668  39.7780359  75.1632206 105.9617648
  40.3014761  75.4094503 106.7243958  39.5592692  75.9952241 105.5420786
  35.1747640  77.4335881  93.8288773  34.8460346  76.5533260  93.6463879
  35.5287011  77.3783549  94.7165162  44.4227219  89.0690783  98.3383759
  44.2752182  88.1407491  98.5191329  45.2480713  89.0910874  97.8540834
  38.2889463  77.7208850  94.1964251  38.6285536  78.2494772  93.4742859
  38.7361584  78.0589257  94.9722817  48.0261341  89.8919342  99.4248631
  48.9507888  89.6862203  99.2873083  47.8576644  89.6435743 100.3337973
  40.9832904  76.1045901 103.6467319  40.6429725  75.3053714 104.0487999
  40.2771910  76.4047612 103.0744152  41.6349376  73.1895214 102.0994642
  42.4575445  72.7155692 101.9773532  41.8787440  73.9685697 102.5993328
  40.2757611  76.2183472  92.3957544  40.9965973  76.5964725  91.8921260
  39.6522915  76.9372349  92.4992522  44.4188733  76.9228621  93.3315876
  44.6352348  77.8053259  93.0304704  43.9382801  76.5314834  92.6021518
  39.1587955  79.8814334  99.9086621  39.0132536  80.1954637 100.8010902
  38.6813158  80.4999235  99.3557519  41.0184338  76.8716882  99.9567510
  41.0045906  75.9757976  99.6199808  41.7356766  76.8787546 100.5905796
  42.8710468  77.3054222 102.0020638  42.6128246  78.2271293 102.0004968
  42.3395509  76.9084657 102.6921102  47.8156657  90.4105010  94.7810723
  47.9893535  89.8451432  94.0284575  48.3085548  91.2105904  94.5990213
  33.6333617  82.4219679 102.8474282  33.0887085  83.1979487 102.9794556
  34.5112967  82.7690483 102.6893403  40.4221234  75.7531262  95.2255080
  40.5437145  74.8247909  95.4245968  40.1323276  75.7669948  94.3133396
  43.2912424  73.4386173  98.3621800  43.3134121  73.5025506  97.4073780
  43.7080483  72.5990682  98.5562306  53.6696048  83.1741432  96.4001023
  54.1127194  82.4248758  96.0020146  52.7922559  83.1651569  96.0174755
  48.8031830  89.7271774  91.8807621  49.4982734  90.3478467  92.0994936
  49.1454980  88.8767125  92.1559999  34.4199639  81.5489575 105.7404439
  33.6781375  81.6972210 106.3269069  34.0992383  81.8097841 104.8771188
  50.7023253  87.1771479  93.4094952  51.2274577  87.5158752  92.6844272
  50.6145605  86.2418495  93.2258087  42.3643301  91.0905553 105.5384829
  42.6730428  90.8454700 106.4107528  43.1618783  91.2952192 105.0503699
  42.3863914  93.2443463  97.7690205  41.9468904  92.7519841  98.4623062
  43.1372030  92.7016430  97.5282280  34.8656252  89.4355004  97.7714833
  35.6914272  89.1358775  97.3913477  34.5150304  88.6662626  98.2204622
  39.8337786  88.7881472  99.8412507  39.2117795  88.1252177  99.5414735
  40.5042653  88.8142604  99.1586155  33.0664858  87.3541330  98.7303767
  32.2296766  86.9263504  98.5487768  33.0388503  87.5473773  99.6674558
  39.9062313  77.2663260 109.4345013  39.9550469  78.1425383 109.0522782
  40.4484827  76.7240653 108.8616656  50.3917159  87.8104383 108.7146150
  49.6012703  87.7928522 108.1750649  50.1550513  88.3492677 109.4695186
  50.5115034  84.6596849 106.0278878  50.5613039  84.4946857 106.9694401
  50.4028957  83.7924109 105.6376759  39.3951293  87.3385395  93.3170967
  39.5439413  88.0220860  92.6637640  40.2017736  87.3190485  93.8320423
  47.8018796  80.6427778 107.3438185  48.7028659  80.5034242 107.0522183
  47.8766771  80.8082232 108.2836363  42.1361602  78.0194632 106.1891371
  41.2664911  78.3128198 105.9173960  42.3721082  78.6035077 106.9098635
  52.0133231  87.0793791 106.2720900  51.7218039  87.4423772 107.1084361
  51.4005362  86.3660799 106.0934232  53.2128913  84.6446671  98.7923470
  54.0475804  85.0836475  98.9561031  53.3488042  84.1685324  97.9731716
  50.2620419  82.2026406 104.7400958  50.7374541  82.3954052 103.9319809
  49.3385984  82.2585591 104.4944342  37.1503926  83.3650573  94.3232036
  36.9049967  82.4612903  94.5212246  37.3199840  83.3667723  93.3811514
  44.8400635  74.2374249 103.7056792  45.3582579  74.9735276 103.3803280
  44.4855768  74.5438242 104.5403551  36.4199573  79.0978930  91.8218198
  35.7268818  79.1723285  91.1658234  36.1751325  78.3339274  92.3439715
  45.0913230  70.6574532  99.2257688  45.3714983  69.9897721  99.8518115
  45.8763837  70.8503627  98.7132352  42.8946698  89.8333526  90.7882715
  42.3220665  90.4523713  90.3353187  43.4679492  90.3832887  91.3222637
  48.9622088  79.0792166 102.9729264  49.9139511  79.1790263 102.9941488
  48.7925538  78.2870434 103.4827348  46.9836467  76.1647749 103.1588664
  46.3886400  76.4452762 102.4635153  46.6986164  76.6541650 103.9305406
  46.1143958  90.1170676  91.9191297  47.0474631  90.0516237  92.1224173
  46.0267171  90.9526943  91.4605830  48.7431975  89.4336546  88.8795245
  48.6645606  89.0996410  89.7731003  49.5641641  89.9258314  88.8786717
  51.4410166  82.2998285 102.0871563  51.4086486  81.3614286 102.2731247
  52.0510789  82.3782322 101.3537388  43.2793497  81.1694338  88.1298767
  44.2252601  81.0400546  88.1987185  42.9007742  80.4309000  88.6068195
  51.5904654  79.0909329 102.1329846  51.0743703  78.3067785 101.9459775
  52.4744603  78.7628045 102.2976366  49.2515381  72.8350344  98.0925659
  49.0540202  72.5265433  98.9768991  49.8615087  73.5611983  98.2223589
  57.2586716  83.3614292 101.2277600  57.9890104  83.0999580 101.7885303
  56.6493661  82.6243014 101.2679668  55.3402013  81.5022155 101.8252051
  54.6135176  81.3678120 101.2168543  54.9249300  81.8098983 102.6308769
  43.1632189  85.2212085 109.5899424  44.0835199  85.3990684 109.7839471
  43.1281772  84.2768130 109.4379123  41.4636414  79.0944315  88.0653652
  40.5567869  78.7977427  88.1416366  41.7412395  78.7974133  87.1987939
  32.3814354  80.4150678  98.5152699  32.0617138  79.5615986  98.2227073
  31.8347782  80.6299256  99.2710666  36.1594262  83.1313119 102.2322205
  36.3780271  84.0630227 102.2510239  36.5720036  82.7721094 103.0177009
  43.0798479  73.6381204  94.2197894  42.2699208  73.2928289  94.5953140
  43.7682896  73.3288748  94.8085505  45.0089028  72.7159251  95.8422190
  45.5620066  73.1354705  96.5012214  45.2459114  71.7894999  95.8845146
  41.0322127  78.7046325 111.6224954  40.9318854  79.6540682 111.5537045
  40.8143669  78.3764564 110.7501024  40.2335198  75.9531250  88.2065632
  41.0954362  76.2786148  88.4661449  40.4185543  75.1662746  87.6938697
  32.2502614  84.0353590 100.4845820  31.5566086  83.6207542  99.9715775
  32.9975605  84.0774126  99.8879239  48.3867835  74.8259776  95.3500855
  47.8066504  75.4844580  94.9678907  48.1203768  74.0037121  94.9388272
  46.8371401  74.2264834  97.5522175  47.3371180  74.3381369  96.7436494
  47.4807009  73.9225887  98.1922983  40.8953397  82.1343464 110.4390016
  40.4120479  82.9343824 110.6453905  40.9814336  82.1451409 109.4857460
  34.1639357  83.9671843  98.3611835  34.1410045  84.0659531  97.4093718
  34.4739993  84.8136994  98.6829001  36.8226735  86.0247998 102.4758450
  37.7769988  85.9931941 102.4088381  36.6239258  85.5638622 103.2908676
  37.4126117  84.5949115 105.0429247  38.2319006  85.0893193 105.0664085
  37.6862924  83.6781083 105.0146815  47.1692713  76.9859867  94.4057203
  46.2818568  77.2709517  94.1877398  47.5846702  76.8253630  93.5584480
  50.5207249  77.0106388  98.1211542  51.2967639  77.5002840  98.3936159
  49.7955383  77.4364442  98.5783412  52.9579808  77.7234007  99.1785483
  53.5524298  77.4829743  98.4678791  53.0306391  77.0041138  99.8059019
  35.1776963  91.5667618  99.4928648  35.0431431  90.8068019  98.9266646
  34.7609026  92.2908518  99.0257437  46.3135926  86.7504541  88.5005223
  47.0171776  86.9554544  89.1162879  45.5898575  87.3181303  88.7654306
  47.1433737  82.5014403  94.6207493  47.0868938  82.9582954  93.7815126
  47.6962079  81.7405087  94.4430336  50.9538543  78.2904135  95.4457613
  50.6975477  77.8900770  96.2765820  50.3291411  79.0047929  95.3207752
  55.2650880  81.0300208  97.9528904  54.7050438  81.0993397  98.7260466
  54.6594384  80.8541193  97.2328400  38.3346089  92.4636935  99.7047090
  38.2178473  93.4082367  99.6025781  37.5138535  92.1610497 100.0932889
  48.2222624  87.1887071  90.5503683  49.0568228  86.7568269  90.3681158
  48.0606967  87.0169084  91.4780577  47.8768516  83.6919184  91.9160022
  47.8217320  83.5263455  90.9748466  47.2514571  84.3995217  92.0722212
  32.6661031  78.9287248 105.7421444  33.3119895  78.4186202 106.2308670
  32.4578182  79.6655930 106.3164870  45.1914423  85.9968096 111.2413585
  46.0605583  86.1708748 110.8800220  44.7121175  86.8162513 111.1189314
  41.1864641  73.1927293  91.4945341  41.1743311  74.1369133  91.6513612
  42.0788063  73.0097438  91.2004802  39.3600603  93.1165197 102.9203019
  40.2627850  93.1488807 103.2369514  39.1337973  92.1865648 102.9349354
  41.1154205  91.8696183  99.5813097  40.1649836  91.8698045  99.4677470
  41.4186691  91.1228918  99.0649132  45.0016761  69.7870070  95.7491277
  44.2349157  69.2328556  95.8947960  45.4127466  69.8591938  96.6105429
  37.0058522  76.0754865 109.8396459  37.8689983  75.7191670 110.0499783
  36.4323933  75.7368760 110.5271863  56.8506899  97.7056722 100.6458860
  57.4885309  97.5863469  99.9422200  56.7327742  98.6537566 100.7046812
  53.6596605  97.6584150 100.5820384  53.3215117  97.5425215  99.6940919
  54.5286373  97.2575315 100.5621391  49.5183421  99.5119626  96.5717275
  48.9548286  99.4209563  95.8033563  49.4035816  98.6919531  97.0519768
  54.1416388  98.8119002 106.5406590  54.1305029  98.4171800 105.6687094
  54.3037028  98.0785074 107.1340361  47.0647853 101.0070818  99.4101496
  47.8569145 100.6661643  98.9947795  47.3044503 101.1165793 100.3303649
  55.0982980 103.1790594  91.8831740  54.4470959 103.7644674  91.4965754
  55.8927342 103.7096789  91.9426778  49.0238607 100.2679731  92.2818875
  49.7969483  99.7208718  92.1431750  49.3764006 101.1323981  92.4933336
  50.8623649 101.5956113 105.4885774  50.5713515 102.5001744 105.3732440
  51.4980634 101.6372641 106.2029843  51.7879856  98.9732962 102.0787134
  52.3843428  98.7488984 101.3644097  51.8454828  98.2317707 102.6812581
  51.3604885  96.4272397  89.9137325  51.6130405  95.9053919  89.1520788
  50.4229444  96.2638543  90.0164008  56.4048167  95.4308176  97.7212068
  57.1911257  95.0127599  97.3702485  56.6686872  96.3354268  97.8893716
  56.5758245 100.8681026  92.4200725  55.9404078 100.9415652  93.1321629
  56.2455651 101.4574625  91.7419804  61.8056594  95.3683409  98.6245046
  62.5381766  94.7982626  98.8582876  61.0495950  94.9805009  99.0651552
  51.0801173  98.3300503  92.1161699  50.9637431  97.6545407  92.7842784
  51.1903433  97.8432877  91.2993853  53.4232714  97.7910650  95.8208389
  53.0590921  97.2641271  96.5321310  54.2799830  97.4009119  95.6474874
  59.3282015  89.0804983 103.0839655  58.9965340  89.9500394 102.8600870
  58.7327628  88.7641267 103.7633685  53.0638201  92.8200550  90.8169737
  53.2312604  93.6880786  91.1840208  52.8735370  92.9827832  89.8931026
  55.8213534 101.2817529 102.4835568  55.5214257 102.1842568 102.3751375
  55.4764594 101.0149712 103.3356720  49.2726016  97.7331326  98.5172272
  48.3476512  97.6007540  98.7249964  49.5210429  98.5125545  99.0142214
  59.2210678  93.8000069 100.1633005  58.3127555  93.7315478  99.8691766
  59.1698274  94.2772014 100.9914830  53.0427422  95.2758208  91.8016404
  52.9227047  95.7215258  92.6401884  52.3480010  95.6243525  91.2429942
  46.6334827  97.3764599  99.3516061  46.7627208  97.6299078 100.2655473
  45.9532278  97.9692307  99.0320716  50.8034314 108.0461849  95.4506535
  50.7258344 108.9969674  95.5295016  50.1995958 107.7007722  96.1081462
  53.2951544  95.2189715 108.1067902  52.5184878  95.7783635 108.0970767
  53.9342107  95.7046498 108.6282772  61.0872325  92.0016508 101.9410879
  60.4446705  92.2949041 101.2950673  60.5827253  91.8869428 102.7464076
  58.7412488  95.7479681  92.6296738  59.6530344  95.9807067  92.4544436
  58.2322135  96.3316725  92.0671817  51.5497916  98.0275168 107.6685869
  52.2912601  98.5660212 107.3920693  50.8434902  98.6541457 107.8257421
  57.0253256 100.1704309 106.2658031  57.4336612  99.7286719 105.5212663
  56.3030517  99.5956936 106.5192224  53.3784326  95.1076915 103.6391588
  54.2245521  95.5316329 103.7826237  53.3182964  94.4510540 104.3330151
  57.3482070 100.7305499 100.0210320  56.7190933 100.8951213  99.3186387
  56.9607733 101.1447109 100.7921284  61.2271302 101.6659937  97.3754683
  60.5422341 102.0458838  96.8251717  61.3115152 102.2755264  98.1086631
  56.5283771  92.7681284 105.2972761  56.2844703  93.5223344 104.7607037
  56.8043702  93.1466631 106.1320008  58.4822234  99.3119896 103.9750027
  58.6939129  99.9551656 103.2984408  58.4351982  98.4782213 103.5071957
  56.0848463  91.9237717 100.8786599  55.2232942  92.2218970 101.1703337
  56.1110898  92.1408116  99.9467632  52.9010032 100.4679907  97.2860405
  53.3648378 100.7467610  96.4965027  52.6366830  99.5663352  97.1033495
  49.7934113 100.0151389 100.2240168  50.3635471 100.4438657  99.5857652
  50.3842225  99.7333974 100.9224354  51.8378918  96.5903060  94.0949970
  52.5402962  97.0424103  94.5623896  51.5059547  95.9486879  94.7229863
  50.2859280  95.1814816 108.4701179  49.6557941  95.8631097 108.7036576
  50.1795368  95.0697898 107.5254317  45.5804252  94.8486612  99.3967103
  44.7903306  95.1044141  98.9207214  46.0715500  95.6634950  99.5019144
  59.5968062 102.1891851 102.1472384  60.4185506 101.7872039 101.8655066
  59.5930465 102.0860086 103.0988500  47.5318998  95.2131192  96.3550580
  46.7350161  95.3249886  96.8734076  47.3044590  95.5517844  95.4891471
  53.3624665 101.7375895 104.3033095  53.4269098 102.1996302 105.1391267
  52.6535589 101.1073260 104.4315405  43.8641955  95.1017103 101.8282094
  44.1149994  95.9864113 102.0939670  44.4001504  94.9221704 101.0557186
  67.6874055  98.5330600  98.4957356  66.9337763  97.9637998  98.3401360
  67.8221596  98.4993264  99.4427990  53.0772683 103.4044002  94.1712075
  52.9418358 104.2495538  94.5996923  53.6182496 103.6063280  93.4078009
  49.5640023  89.4835582 110.8326430  49.1706968  88.9301781 111.5074074
  50.3806163  89.7946161 111.2232948  46.5302080 100.9219440  94.7440000
  47.0426601 101.7162691  94.8945565  47.1824793 100.2245731  94.6773602
  48.3396965 104.0385197  96.8262753  48.5163593 104.9603161  96.6383737
  49.1353799 103.7243616  97.2557133  52.4807984  90.8993461 108.4246687
  53.2217697  91.5000614 108.3451149  52.7125907  90.1571099 107.8664729
  47.6249322  96.0849828 106.7024917  47.5102837  95.1835086 107.0032015
  46.7693839  96.3313525 106.3509733  49.4628281 105.5563370 102.8273096
  50.0135706 105.4280434 102.0550090  48.6239757 105.8558259 102.4767988
  56.8022397 104.3070369 106.3293818  56.7840873 105.1279250 105.8374088
  57.7242318 104.1824444 106.5543960  53.2595452 101.8214498 107.1717327
  53.7923788 101.0602786 106.9416635  52.7309533 101.5288150 107.9141481
  56.4265147  86.9274564 102.7010969  56.0829416  87.8176206 102.6250079
  56.7944109  86.7376222 101.8380554  44.4950997  99.2508095  95.5199571
  45.3326219  99.6605103  95.3033278  44.6729265  98.3107537  95.4899765
  56.3915429  96.9183175  91.2083404  55.8762053  97.6887780  91.4471791
  56.1192738  96.2448311  91.8316465  53.9762540  91.7632876  96.2668642
  53.1204137  91.3739726  96.0874281  54.3889492  91.8424837  95.4068428
  55.5061687  89.2979219 100.6660202  55.0026483  89.2609354  99.8528007
  55.7992294  90.2071962 100.7256858  51.7504573  89.3817949  99.6726383
  52.6157570  89.1860758  99.3132273  51.8182082  89.1528301 100.5995740
  61.3649703  99.6715530  93.1436577  60.5879146  99.3326689  92.6991739
  62.0441184  99.6768153  92.4691542  56.1801733  94.7910267  93.0343185
  55.8751868  95.1056417  93.8853328  57.1332175  94.8691687  93.0770518
  54.6248164 100.9500491  94.6836139  54.0969526 100.2153250  94.3709376
  54.1235667 101.7275167  94.4376107  59.6041010  99.1449511  99.8003185
  58.9464685  99.8348773  99.8883314  60.4081410  99.5345943 100.1437171
  49.3566892  91.6120157  97.0442750  49.9310644  91.3895338  96.3115943
  49.9437874  91.6808851  97.7971352  58.4146469  97.4993884  97.8507127
  58.9278351  98.1323876  98.3528837  59.0647693  96.8995079  97.4850487
  49.6836479  93.6424618  91.0638636  48.8473791  93.9799305  91.3847910
  49.5441249  93.5073598  90.1265773  51.6589560  88.4861406  95.7717820
  51.0053972  88.1710423  95.1474434  51.6170034  87.8637146  96.4977643
  52.7700765  98.7680701  87.6871112  51.8627826  98.5369954  87.8862261
  53.2671797  97.9718320  87.8745093  55.6768843 107.4778208  90.6067798
  55.0030542 107.7809905  91.2152756  56.0634665 108.2807288  90.2573255
  54.8927300  94.9743339 100.0965467  53.9749861  95.1958286  99.9387155
  55.3087444  95.0489650  99.2377175  55.6762348  96.3734755  95.2268148
  56.4234167  96.8856152  94.9175270  55.9453937  96.0518808  96.0872541
  53.9488998  98.8693296  92.2095102  53.0400217  98.5852329  92.3067572
  53.9784082  99.2892374  91.3498409  59.1808265 102.4799885  95.9786269
  58.7270592 101.6390795  96.0351460  58.5502232 103.1161284  96.3161050
  58.1241185  93.4091871  97.2086937  57.3863942  92.8969258  97.5397179
  58.3767958  92.9692253  96.3970214  57.6241205 104.3176382  96.9136088
  57.9164179 104.8781439  96.1948453  58.1339825 104.6104943  97.6689247
  58.2252812  86.1868123  97.8028706  58.5311689  85.3265487  97.5154621
  58.9505417  86.7785744  97.6027700  44.5177168  96.5898810  96.1910304
  44.3201568  95.9968171  95.4661371  43.9623832  96.2851020  96.9086243
  52.4973892  96.4821916  98.3104897  52.5522502  95.5295753  98.2347374
  51.6865094  96.6381355  98.7946196  53.6465086 100.4102039  89.5483180
  53.2084516  99.6937898  89.0888818  54.3875527 100.6378154  88.9868272
  50.4366252  95.0998976  96.0695276  49.6234117  95.3993147  96.4760468
  50.9325246  94.7054665  96.7869758  52.5874830 105.0956733  98.0029541
  52.5451009 105.3217579  97.0738073  53.5037529 104.8620108  98.1515342
  56.0340464  95.5640801 104.9010170  56.3889851  95.7912274 105.7604636
  56.6812595  95.8959177 104.2787425  61.7638201  98.6859237  95.6059499
  61.6256099  98.8760832  94.6780688  61.4074419  99.4478619  96.0627550
  49.9280327  92.6717332 101.6856511  50.5679706  92.5306091 100.9879474
  49.0957857  92.3851845 101.3095113  61.7907580 100.7535764 100.6170771
  62.2244087 100.6611053 101.4653825  62.5039161 100.7293264  99.9790787
  50.7040631 101.9719762  97.7991504  51.4981229 101.4770082  97.5974078
  49.9932323 101.4437625  97.4359209  55.5235475 104.3537858 102.1503871
  55.5772497 104.9228794 102.9181587  54.6550256 104.5239743 101.7857908
  47.0123394  96.1162844  93.8751256  46.0820982  96.0547299  94.0921218
  47.1080866  95.5938797  93.0787897  46.9308943  92.6417657  96.4629498
  47.1915760  93.5562990  96.3538658  47.7526115  92.1742099  96.6126111
  48.4033868  94.0555414 103.6328322  49.0756922  93.8472776 102.9840971
  47.5763655  93.8577500 103.1933555  62.6523130 100.7959464 103.1503656
  62.8459020 101.7005275 103.3962931  62.5523748 100.3366883 103.9842241
  54.3059440  90.6817355 105.6493983  53.6587356  91.3807304 105.5558460
  55.0760456  91.1153499 106.0170231  54.4823575  98.5198120 103.7090803
  55.4115635  98.6709279 103.5359770  54.0614605  98.6082140 102.8539450
  53.2811907 102.5448784 101.4789341  53.1422992 102.1767568 102.3515279
  52.4926503 103.0596424 101.3073298  53.8760059 107.6457881  92.8214877
  54.0511814 107.1745924  93.6360500  53.1892847 108.2723647  93.0496138
  54.8317122 101.9230387  98.8678178  54.4966954 101.8831157  99.7635828
  54.3321067 101.2575103  98.3948589  48.8061366  97.3298017 104.3930760
  48.6681164  96.5978256 104.9942299  49.7166289  97.2406917 104.1114947
  57.7676313  99.2686421  89.1415238  57.1505484  98.5433249  89.0448291
  57.2992802 100.0295781  88.7982312  51.4343666  97.0417976 103.8814439
  52.1443285  96.4011168 103.8401058  51.3912975  97.2930871 104.8040620
  50.1472600  94.0283194 105.7010079  49.6109957  93.5773932 106.3531675
  49.5589309  94.1629103 104.9580543  48.4421144 110.7947243  99.5954737
  48.6817742 111.4265767 100.2733756  47.5990340 110.4435283  99.8820097
  49.5574859  93.4871845  88.2636542  48.6804326  93.3660646  87.8998789
  50.0332612  92.6957924  88.0115431  59.4247852 101.9424913 105.0334998
  58.5374631 101.6050835 105.1561397  59.9946403 101.2107945 105.2703763
  41.0776999  98.2749005  98.3578049  41.7648039  97.9610735  97.7699065
  40.9225128  99.1790370  98.0845301  45.8811722  93.1639202 102.7863073
  45.7969910  92.5564871 102.0513483  45.0594428  93.6548220 102.7872570
  52.9549006 106.6026366 101.9996241  52.8819177 107.4081337 102.5115546
  52.5126399 106.8018332 101.1744263  52.7438785 105.8398136  95.5099063
  51.9606307 106.3819816  95.6037287  53.4431531 106.3572115  95.9093304
  56.0535435  91.6492765  98.1533268  56.5504135  90.8962728  97.8334338
  55.2822417  91.6857082  97.5876478  63.9065193  97.3533131  99.7951560
  63.8955069  98.2357846  99.4245493  63.0382572  97.0004682  99.6006097
  55.4147689 106.5013200 104.1554400  56.1275661 107.1360665 104.0830301
  54.9237718 106.5977066 103.3394402  57.1365216 100.4064452  95.7271692
  56.2021495 100.5265915  95.5576396  57.3141885  99.5036919  95.4631701
  52.6370404  93.7910148  97.8804953  52.2668192  93.2381189  98.5685858
  53.1329497  93.1868282  97.3279953  60.5237767  96.2481772  96.2621726
  60.9898220  97.0809763  96.1882028  60.9745268  95.7826753  96.9666984
  50.4659603 104.2507643 104.9759971  51.1669062 104.8844126 105.1289365
  49.9954718 104.5922375 104.2155610  58.5913999 102.5925593  93.2607878
  58.8673842 102.4782188  94.1701752  57.7218497 102.1943078  93.2220051
  58.4954430  88.6162359 100.3012627  57.5817510  88.8466586 100.4694834
  58.9247532  88.7000803 101.1526659  58.2660889  96.8052251 102.8012521
  57.6132339  97.0528158 102.1464974  58.6441269  95.9916389 102.4674998
  55.2268063 106.8411944  96.9040691  55.4090457 106.0233600  97.3668444
  56.0501049 107.0579636  96.4665581  55.5610228 105.7680129  94.1655740
  56.0897995 105.2572584  93.5525902  55.8238448 105.4522659  95.0301273
  54.3148462  97.5472062 109.2878558  53.6389099  97.4466191 109.9580933
  55.1376096  97.3911275 109.7514555  46.0627321 103.7843998 101.9091073
  46.6480758 103.0387686 102.0418978  45.8652159 104.0947955 102.7927737
  48.9165976 106.8195246  96.9253516  48.2476351 107.3041373  96.4417556
  48.7778846 107.0664466  97.8396894  40.6544976  96.3549599 100.6295517
  40.6929075  95.8213189 101.4232635  40.1485268  95.8284804 100.0106494
  53.0571245 108.8538989 103.5236174  53.6089553 109.0170611 104.2885259
  53.3977438 109.4443427 102.8516199  48.0335738  91.2014139 104.1258059
  48.0977064  92.0628970 103.7135457  47.9702858  90.5888141 103.3930417
  47.5088010  93.2737272 107.7731093  48.1360049  92.8914349 108.3868617
  46.6515929  93.0551473 108.1386786  44.2853553  95.0813701  93.7049448
  44.5806994  94.1724379  93.6516502  43.3841589  95.0601440  93.3830450
  56.1939632 106.8020965 100.5099856  56.0690771 106.0010705 100.0010802
  56.8518723 107.2967158 100.0213826  47.8147800  93.1569697  99.6876997
  47.0934386  93.7705665  99.5484470  48.6041056  93.6927462  99.6093643
  58.2574540 104.6029985 102.1379406  57.3104876 104.4835336 102.0657733
  58.6057313 103.7152483 102.2205668  50.6174114  90.4924124 105.9617648
  51.1408515  90.7386420 106.7243958  50.3986447  91.3244159 105.5420786
  46.0141395  92.7627798  93.8288773  45.6854101  91.8825177  93.6463879
  46.3680765  92.7075467  94.7165162  55.2620974 104.3982701  98.3383759
  55.1145936 103.4699408  98.5191329  56.0874467 104.4202792  97.8540834
  49.1283218  93.0500768  94.1964251  49.4679290  93.5786689  93.4742859
  49.5755338  93.3881174  94.9722817  58.8655095 105.2211260  99.4248631
  59.7901643 105.0154121  99.2873083  58.6970399 104.9727661 100.3337973
  51.8226659  91.4337819 103.6467319  51.4823479  90.6345632 104.0487999
  51.1165665  91.7339530 103.0744152  52.4743131  88.5187131 102.0994642
  53.2969200  88.0447609 101.9773532  52.7181194  89.2977615 102.5993328
  51.1151365  91.5475390  92.3957544  51.8359728  91.9256642  91.8921260
  50.4916669  92.2664267  92.4992522  55.2582488  92.2520539  93.3315876
  55.4746102  93.1345177  93.0304704  54.7776555  91.8606752  92.6021518
  49.9981709  95.2106252  99.9086621  49.8526290  95.5246555 100.8010902
  49.5206913  95.8291152  99.3557519  51.8578092  92.2008800  99.9567510
  51.8439661  91.3049893  99.6199808  52.5750520  92.2079464 100.5905796
  53.7104223  92.6346140 102.0020638  53.4522001  93.5563211 102.0004968
  53.1789263  92.2376575 102.6921102  58.6550412 105.7396927  94.7810723
  58.8287289 105.1743350  94.0284575  59.1479303 106.5397822  94.5990213
  44.4727371  97.7511596 102.8474282  43.9280840  98.5271404 102.9794556
  45.3506721  98.0982401 102.6893403  51.2614988  91.0823180  95.2255080
  51.3830899  90.1539826  95.4245968  50.9717030  91.0961866  94.3133396
  54.1306178  88.7678091  98.3621800  54.1527875  88.8317424  97.4073780
  54.5474238  87.9282599  98.5562306  64.5089803  98.5033350  96.4001023
  64.9520949  97.7540675  96.0020146  63.6316313  98.4943487  96.0174755
  59.6425584 105.0563692  91.8807621  60.3376489 105.6770384  92.0994936
  59.9848734 104.2059043  92.1559999  45.2593393  96.8781493 105.7404439
  44.5175129  97.0264128 106.3269069  44.9386138  97.1389758 104.8771188
  61.5417007 102.5063397  93.4094952  62.0668331 102.8450670  92.6844272
  61.4539360 101.5710412  93.2258087  53.2037056 106.4197471 105.5384829
  53.5124182 106.1746618 106.4107528  54.0012538 106.6244109 105.0503699
  53.2257668 108.5735380  97.7690205  52.7862658 108.0811759  98.4623062
  53.9765785 108.0308348  97.5282280  45.7050007 104.7646921  97.7714833
  46.5308027 104.4650693  97.3913477  45.3544059 103.9954544  98.2204622
  50.6731540 104.1173390  99.8412507  50.0511549 103.4544095  99.5414735
  51.3436407 104.1434521  99.1586155  43.9058612 102.6833248  98.7303767
  43.0690520 102.2555422  98.5487768  43.8782257 102.8765691  99.6674558
  50.7456068  92.5955178 109.4345013  50.7944223  93.4717300 109.0522782
  51.2878582  92.0532571 108.8616656  61.3508788  99.9888767 106.0278878
  61.4006793  99.8238775 106.9694401  61.2422712  99.1216026 105.6376759
  50.2345047 102.6677313  93.3170967  50.3833167 103.3512777  92.6637640
  51.0411491 102.6482403  93.8320423  58.6412551  95.9719695 107.3438185
  59.5422414  95.8326160 107.0522183  58.7160525  96.1374150 108.2836363
  52.9755356  93.3486550 106.1891371  52.1058665  93.6420116 105.9173960
  53.2114836  93.9326995 106.9098635  64.0522668  99.9738588  98.7923470
  64.8869559 100.4128393  98.9561031  64.1881796  99.4977242  97.9731716
  61.1014173  97.5318323 104.7400958  61.5768295  97.7245970 103.9319809
  60.1779739  97.5877509 104.4944342  47.9897680  98.6942490  94.3232036
  47.7443722  97.7904820  94.5212246  48.1593595  98.6959641  93.3811514
  55.6794390  89.5666167 103.7056792  56.1976334  90.3027194 103.3803280
  55.3249523  89.8730160 104.5403551  47.2593328  94.4270848  91.8218198
  46.5662573  94.5015203  91.1658234  47.0145079  93.6631192  92.3439715
  55.9306984  85.9866449  99.2257688  56.2108738  85.3189638  99.8518115
  56.7157591  86.1795545  98.7132352  53.7340453 105.1625443  90.7882715
  53.1614420 105.7815630  90.3353187  54.3073246 105.7124805  91.3222637
  59.8015842  94.4084083 102.9729264  60.7533265  94.5082181 102.9941488
  59.6319293  93.6162352 103.4827348  57.8230222  91.4939667 103.1588664
  57.2280154  91.7744679 102.4635153  57.5379919  91.9833568 103.9305406
  56.9537712 105.4462593  91.9191297  57.8868386 105.3808155  92.1224173
  56.8660925 106.2818860  91.4605830  59.5825729 104.7628464  88.8795245
  59.5039361 104.4288327  89.7731003  60.4035396 105.2550232  88.8786717
  62.2803920  97.6290203 102.0871563  62.2480240  96.6906204 102.2731247
  62.8904544  97.7074240 101.3537388  54.1187251  96.4986256  88.1298767
  55.0646356  96.3692464  88.1987185  53.7401496  95.7600918  88.6068195
  62.4298409  94.4201247 102.1329846  61.9137457  93.6359703 101.9459775
  63.3138357  94.0919963 102.2976366  60.0909136  88.1642262  98.0925659
  59.8933957  87.8557350  98.9768991  60.7008841  88.8903901  98.2223589
  68.0980470  98.6906210 101.2277600  68.8283859  98.4291498 101.7885303
  67.4887416  97.9534932 101.2679668  66.1795767  96.8314073 101.8252051
  65.4528931  96.6970037 101.2168543  65.7643054  97.1390901 102.6308769
  52.3030168  94.4236232  88.0653652  51.3961624  94.1269345  88.1416366
  52.5806149  94.1266051  87.1987939  43.2208109  95.7442596  98.5152699
  42.9010893  94.8907904  98.2227073  42.6741537  95.9591174  99.2710666
  46.9988016  98.4605037 102.2322205  47.2174026  99.3922145 102.2510239
  47.4113790  98.1013011 103.0177009  53.9192234  88.9673122  94.2197894
  53.1092962  88.6220207  94.5953140  54.6076651  88.6580666  94.8085505
  55.8482782  88.0451169  95.8422190  56.4013821  88.4646622  96.5012214
  56.0852869  87.1186917  95.8845146  51.8715881  94.0338243 111.6224954
  51.7712608  94.9832600 111.5537045  51.6537424  93.7056482 110.7501024
  51.0728953  91.2823168  88.2065632  51.9348117  91.6078066  88.4661449
  51.2579297  90.4954664  87.6938697  43.0896369  99.3645507 100.4845820
  42.3959840  98.9499460  99.9715775  43.8369360  99.4066044  99.8879239
  59.2261589  90.1551694  95.3500855  58.6460258  90.8136498  94.9678907
  58.9597522  89.3329039  94.9388272  57.6765156  89.5556752  97.5522175
  58.1764934  89.6673286  96.7436494  58.3200764  89.2517805  98.1922983
  51.7347152  97.4635381 110.4390016  51.2514233  98.2635742 110.6453905
  51.8208091  97.4743326 109.4857460  45.0033111  99.2963761  98.3611835
  44.9803799  99.3951448  97.4093718  45.3133748 100.1428912  98.6829001
  47.6620489 101.3539916 102.4758450  48.6163743 101.3223858 102.4088381
  47.4633013 100.8930540 103.2908676  48.2519871  99.9241032 105.0429247
  49.0712760 100.4185111 105.0664085  48.5256679  99.0073000 105.0146815
  58.0086467  92.3151785  94.4057203  57.1212322  92.6001435  94.1877398
  58.4240456  92.1545548  93.5584480  61.3601004  92.3398305  98.1211542
  62.1361394  92.8294758  98.3936159  60.6349138  92.7656360  98.5783412
  63.7973562  93.0525925  99.1785483  64.3918053  92.8121661  98.4678791
  63.8700146  92.3333055  99.8059019  46.0170718 106.8959536  99.4928648
  45.8825186 106.1359937  98.9266646  45.6002780 107.6200436  99.0257437
  57.1529681 102.0796459  88.5005223  57.8565531 102.2846462  89.1162879
  56.4292330 102.6473221  88.7654306  57.9827491  97.8306320  94.6207493
  57.9262693  98.2874872  93.7815126  58.5355834  97.0697005  94.4430336
  61.7932297  93.6196052  95.4457613  61.5369231  93.2192688  96.2765820
  61.1685165  94.3339846  95.3207752  66.1044635  96.3592126  97.9528904
  65.5444193  96.4285315  98.7260466  65.4988138  96.1833110  97.2328400
  49.1739844 107.7928853  99.7047090  49.0572228 108.7374285  99.6025781
  48.3532290 107.4902414 100.0932889  59.0616378 102.5178988  90.5503683
  59.8961982 102.0860187  90.3681158  58.9000721 102.3461002  91.4780577
  58.7162270  99.0211102  91.9160022  58.6611074  98.8555373  90.9748466
  58.0908326  99.7287135  92.0722212  43.5054785  94.2579166 105.7421444
  44.1513649  93.7478120 106.2308670  43.2971937  94.9947848 106.3164870
  52.0258396  88.5219211  91.4945341  52.0137066  89.4661051  91.6513612
  52.9181818  88.3389356  91.2004802  50.1994358 108.4457115 102.9203019
  51.1021605 108.4780725 103.2369514  49.9731728 107.5157566 102.9349354
  51.9547960 107.1988101  99.5813097  51.0043591 107.1989963  99.4677470
  52.2580446 106.4520836  99.0649132  55.8410515  85.1161987  95.7491277
  55.0742911  84.5620474  95.8947960  56.2521220  85.1883856  96.6105429
  47.8452276  91.4046783 109.8396459  48.7083738  91.0483588 110.0499783
  47.2717687  91.0660678 110.5271863  60.3577175 114.8411544  96.5717275
  59.7942040 114.7501481  95.8033563  60.2429570 114.0211448  97.0519768
  65.9376734 118.5082512  91.8831740  65.2864714 119.0936592  91.4965754
  66.7321097 119.0388707  91.9426778  59.8632361 115.5971649  92.2818875
  60.6363237 115.0500636  92.1431750  60.2157760 116.4615898  92.4933336
  62.1998639 111.7564315  89.9137325  62.4524160 111.2345836  89.1520788
  61.2623198 111.5930460  90.0164008  67.2441922 110.7600093  97.7212068
  68.0305011 110.3419517  97.3702485  67.5080626 111.6646186  97.8893716
  67.4151999 116.1972944  92.4200725  66.7797832 116.2707570  93.1321629
  67.0849406 116.7866542  91.7419804  61.9194928 113.6592421  92.1161699
  61.8031186 112.9837324  92.7842784  62.0297188 113.1724795  91.2993853
  64.2626469 113.1202568  95.8208389  63.8984676 112.5933189  96.5321310
  65.1193585 112.7301037  95.6474874  63.9031956 108.1492468  90.8169737
  64.0706358 109.0172704  91.1840208  63.7129125 108.3119749  89.8931026
  60.1119770 113.0623243  98.5172272  59.1870267 112.9299458  98.7249964
  60.3604184 113.8417463  99.0142214  63.8821177 110.6050125  91.8016404
  63.7620802 111.0507176  92.6401884  63.1873765 110.9535443  91.2429942
  57.4728581 112.7056517  99.3516061  57.6020963 112.9590996 100.2655473
  56.7926033 113.2984225  99.0320716  69.5806243 111.0771598  92.6296738
  70.4924099 111.3098985  92.4544436  69.0715890 111.6608643  92.0671817
  66.9242217 107.2529634 100.8786599  66.0626696 107.5510888 101.1703337
  66.9504652 107.4700033  99.9467632  63.7403787 115.7971825  97.2860405
  64.2042132 116.0759528  96.4965027  63.4760585 114.8955270  97.1033495
  62.6772673 111.9194977  94.0949970  63.3796716 112.3716021  94.5623896
  62.3453301 111.2778796  94.7229863  56.4198007 110.1778530  99.3967103
  55.6297061 110.4336059  98.9207214  56.9109254 110.9926868  99.5019144
  58.3712752 110.5423109  96.3550580  57.5743916 110.6541803  96.8734076
  58.1438344 110.8809761  95.4891471  54.7035710 110.4309020 101.8282094
  54.9543748 111.3156030 102.0939670  55.2395258 110.2513622 101.0557186
  63.9166438 118.7335920  94.1712075  63.7812112 119.5787456  94.5996923
  64.4576250 118.9355198  93.4078009  57.3695835 116.2511358  94.7440000
  57.8820355 117.0454608  94.8945565  58.0218548 115.5537648  94.6773602
  67.2658901 102.2566482 102.7010969  66.9223170 103.1468124 102.6250079
  67.6337864 102.0668139 101.8380554  55.3344752 114.5800012  95.5199571
  56.1719974 114.9897021  95.3033278  55.5123019 113.6399454  95.4899765
  67.2309184 112.2475093  91.2083404  66.7155807 113.0179698  91.4471791
  66.9586492 111.5740229  91.8316465  64.8156295 107.0924794  96.2668642
  63.9597891 106.7031644  96.0874281  65.2283247 107.1716755  95.4068428
  66.3455441 104.6271137 100.6660202  65.8420237 104.5901272  99.8528007
  66.6386048 105.5363880 100.7256858  62.5898327 104.7109867  99.6726383
  63.4551324 104.5152675  99.3132273  62.6575836 104.4820218 100.5995740
  72.2043458 115.0007448  93.1436577  71.4272901 114.6618607  92.6991739
  72.8834939 115.0060071  92.4691542  67.0195487 110.1202185  93.0343185
  66.7145623 110.4348334  93.8853328  67.9725929 110.1983605  93.0770518
  65.4641919 116.2792408  94.6836139  64.9363280 115.5445168  94.3709376
  64.9629422 117.0567085  94.4376107  60.1960646 106.9412075  97.0442750
  60.7704398 106.7187256  96.3115943  60.7831629 107.0100769  97.7971352
  60.5230234 108.9716536  91.0638636  59.6867546 109.3091222  91.3847910
  60.3835003 108.8365515  90.1265773  62.4983314 103.8153324  95.7717820
  61.8447727 103.5002341  95.1474434  62.4563788 103.1929064  96.4977643
  63.6094519 114.0972619  87.6871112  62.7021581 113.8661872  87.8862261
  64.1065551 113.3010238  87.8745093  66.5162598 122.8070126  90.6067798
  65.8424297 123.1101823  91.2152756  66.9028420 123.6099206  90.2573255
  66.5156102 111.7026673  95.2268148  67.2627921 112.2148070  94.9175270
  66.7847692 111.3810725  96.0872541  64.7882752 114.1985213  92.2095102
  63.8793972 113.9144246  92.3067572  64.8177836 114.6184292  91.3498409
  68.9634939 108.7383789  97.2086937  68.2257696 108.2261175  97.5397179
  69.2161713 108.2984171  96.3970214  69.0646567 101.5160041  97.8028706
  69.3705444 100.6557404  97.5154621  69.7899172 102.1077661  97.6027700
  55.3570923 111.9190728  96.1910304  55.1595323 111.3260088  95.4661371
  54.8017587 111.6142938  96.9086243  63.3367647 111.8113834  98.3104897
  63.3916256 110.8587670  98.2347374  62.5258849 111.9673273  98.7946196
  64.4858840 115.7393957  89.5483180  64.0478270 115.0229816  89.0888818
  65.2269281 115.9670072  88.9868272  61.2760006 110.4290894  96.0695276
  60.4627872 110.7285064  96.4760468  61.7719001 110.0346583  96.7869758
  60.7674081 108.0009249 101.6856511  61.4073461 107.8598008 100.9879474
  59.9351612 107.7143763 101.3095113  57.8517149 111.4454762  93.8751256
  56.9214737 111.3839217  94.0921218  57.9474621 110.9230714  93.0787897
  57.7702698 107.9709574  96.4629498  58.0309515 108.8854908  96.3538658
  58.5919870 107.5034017  96.6126111  68.6070068 114.5978339  89.1415238
  67.9899239 113.8725167  89.0448291  68.1386556 115.3587699  88.7982312
  60.3968614 108.8163763  88.2636542  59.5198080 108.6952564  87.8998789
  60.8726367 108.0249841  88.0115431  51.9170754 113.6040923  98.3578049
  52.6041794 113.2902653  97.7699065  51.7618883 114.5082287  98.0845301
  56.7205476 108.4931119 102.7863073  56.6363665 107.8856789 102.0513483
  55.8988182 108.9840138 102.7872570  66.8929190 106.9784683  98.1533268
  67.3897889 106.2254645  97.8334338  66.1216171 107.0149000  97.5876478
  63.4764159 109.1202066  97.8804953  63.1061946 108.5673106  98.5685858
  63.9723251 108.5160199  97.3279953  69.3348185 103.9454276 100.3012627
  68.4211265 104.1758503 100.4694834  69.7641286 104.0292720 101.1526659
  51.4938730 111.6841516 100.6295517  51.5322830 111.1505107 101.4232635
  50.9879023 111.1576722 100.0106494  58.8729492 106.5306057 104.1258059
  58.9370819 107.3920888 103.7135457  58.8096613 105.9180058 103.3930417
  55.1247308 110.4105618  93.7049448  55.4200749 109.5016297  93.6516502
  54.2235343 110.3893358  93.3830450  58.6541555 108.4861615  99.6876997
  57.9328140 109.0997583  99.5484470  59.4434810 109.0219380  99.6093643
  56.8535149 108.0919716  93.8288773  56.5247855 107.2117095  93.6463879
  57.2074520 108.0367385  94.7165162  59.9676972 108.3792686  94.1964251
  60.3073045 108.9078607  93.4742859  60.4149093 108.7173092  94.9722817
  63.3136885 103.8479049 102.0994642  64.1362954 103.3739527 101.9773532
  63.5574949 104.6269533 102.5993328  61.9545120 106.8767307  92.3957544
  62.6753482 107.2548560  91.8921260  61.3310424 107.5956184  92.4992522
  66.0976242 107.5812456  93.3315876  66.3139857 108.4637094  93.0304704
  65.6170310 107.1898670  92.6021518  60.8375464 110.5398170  99.9086621
  60.6920045 110.8538473 100.8010902  60.3600667 111.1583070  99.3557519
  62.6971847 107.5300718  99.9567510  62.6833415 106.6341811  99.6199808
  63.4144275 107.5371381 100.5905796  62.1008743 106.4115098  95.2255080
  62.2224654 105.4831744  95.4245968  61.8110785 106.4253784  94.3133396
  64.9699933 104.0970008  98.3621800  64.9921630 104.1609341  97.4073780
  65.3867992 103.2574517  98.5562306  56.5443761 120.0938839  97.7714833
  57.3701781 119.7942611  97.3913477  56.1937813 119.3246461  98.2204622
  54.7452367 118.0125165  98.7303767  53.9084275 117.5847340  98.5487768
  54.7176012 118.2057609  99.6674558  61.0738802 117.9969231  93.3170967
  61.2226922 118.6804695  92.6637640  61.8805245 117.9774321  93.8320423
  58.8291435 114.0234408  94.3232036  58.5837476 113.1196738  94.5212246
  58.9987349 114.0251559  93.3811514  58.0987082 109.7562766  91.8218198
  57.4056327 109.8307121  91.1658234  57.8538834 108.9923109  92.3439715
  66.7700739 101.3158367  99.2257688  67.0502492 100.6481556  99.8518115
  67.5551346 101.5087463  98.7132352  64.5734207 120.4917361  90.7882715
  64.0008174 121.1107548  90.3353187  65.1467001 121.0416723  91.3222637
  67.7931467 120.7754511  91.9191297  68.7262140 120.7100073  92.1224173
  67.7054680 121.6110778  91.4605830  70.4219484 120.0920381  88.8795245
  70.3433115 119.7580245  89.7731003  71.2429150 120.5842149  88.8786717
  64.9581006 111.8278174  88.1298767  65.9040110 111.6984382  88.1987185
  64.5795251 111.0892836  88.6068195  70.9302890 103.4934180  98.0925659
  70.7327711 103.1849268  98.9768991  71.5402596 104.2195819  98.2223589
  63.1423923 109.7528150  88.0653652  62.2355378 109.4561263  88.1416366
  63.4199904 109.4557968  87.1987939  54.0601863 111.0734514  98.5152699
  53.7404647 110.2199822  98.2227073  53.5135291 111.2883092  99.2710666
  64.7585988 104.2965040  94.2197894  63.9486717 103.9512125  94.5953140
  65.4470405 103.9872584  94.8085505  66.6876537 103.3743087  95.8422190
  67.2407575 103.7938540  96.5012214  66.9246623 102.4478835  95.8845146
  61.9122707 106.6115085  88.2065632  62.7741871 106.9369984  88.4661449
  62.0973052 105.8246581  87.6938697  53.9290123 114.6937425 100.4845820
  53.2353595 114.2791378  99.9715775  54.6763114 114.7357962  99.8879239
  70.0655344 105.4843612  95.3500855  69.4854013 106.1428416  94.9678907
  69.7991277 104.6620956  94.9388272  68.5158910 104.8848670  97.5522175
  69.0158689 104.9965204  96.7436494  69.1594518 104.5809722  98.1922983
  55.8426866 114.6255679  98.3611835  55.8197554 114.7243366  97.4093718
  56.1527502 115.4720830  98.6829001  68.8480222 107.6443702  94.4057203
  67.9606077 107.9293353  94.1877398  69.2634211 107.4837466  93.5584480
  67.9923435 117.4088377  88.5005223  68.6959285 117.6138379  89.1162879
  67.2686084 117.9765139  88.7654306  68.8221246 113.1598238  94.6207493
  68.7656447 113.6166790  93.7815126  69.3749588 112.3988923  94.4430336
  72.6326052 108.9487970  95.4457613  72.3762986 108.5484606  96.2765820
  72.0078920 109.6631764  95.3207752  69.9010133 117.8470906  90.5503683
  70.7355737 117.4152105  90.3681158  69.7394476 117.6752920  91.4780577
  69.5556025 114.3503019  91.9160022  69.5004829 114.1847291  90.9748466
  68.9302080 115.0579052  92.0722212  62.8652150 103.8511128  91.4945341
  62.8530820 104.7952968  91.6513612  63.7575572 103.6681274  91.2004802
  66.6804270 100.4453905  95.7491277  65.9136666  99.8912392  95.8947960
  67.0914975 100.5175774  96.6105429  71.2362368 124.1455681  88.2636542
  70.3591835 124.0244482  87.8998789  71.7120121 123.3541759  88.0115431
  72.7516462 121.9407003  88.2065632  73.6135626 122.2661901  88.4661449
  72.9366806 121.1538499  87.6938697   6.1608404  15.2014078  83.2962582
   5.5973269  15.1104015  82.5278870   6.0460799  14.3813983  83.7765075
  11.7407963  18.8685046  78.6077047  11.0895943  19.4539126  78.2211061
  12.5352326  19.3991241  78.6672084   5.6663590  15.9574183  79.0064181
   6.4394466  15.4103170  78.8677057   6.0188989  16.8218432  79.2178643
  13.0473151  11.1202628  84.4457374  13.8336240  10.7022051  84.0947791
  13.3111855  12.0248720  84.6139023  13.2183228  16.5575478  79.1446031
  12.5829061  16.6310104  79.8566936  12.8880634  17.1469077  78.4665110
  18.4481578  11.0577861  85.3490353  19.1806750  10.4877078  85.5828182
  17.6920933  10.6699461  85.7896858   7.7226157  14.0194955  78.8407006
   7.6062415  13.3439859  79.5088090   7.8328416  13.5327329  78.0239159
  10.0657697  13.4805102  82.5453695   9.7015905  12.9535723  83.2566617
  10.9224813  13.0903571  82.3720181   7.4459297  23.7356301  82.1751842
   7.3683327  24.6864126  82.2540323   6.8420941  23.3902174  82.8326768
  15.3837471  11.4374133  79.3542045  16.2955328  11.6701519  79.1789742
  14.8747119  12.0211177  78.7917123  13.9907054  16.4199951  86.7455626
  13.3615916  16.5845665  86.0431694  13.6032716  16.8341561  87.5166590
  17.8696286  17.3554389  84.0999990  17.1847324  17.7353290  83.5497023
  17.9540135  17.9649716  84.8331938   9.5435016  16.1574359  84.0105711
  10.0073361  16.4362062  83.2210334   9.2791814  15.2557804  83.8278802
  16.2393045  17.8786303  88.8717691  17.0610489  17.4766491  88.5900372
  16.2355448  17.7754538  89.8233807  24.3299038  14.2225052  85.2202662
  23.5762747  13.6532450  85.0646667  24.4646580  14.1887716  86.1673297
   9.7197666  19.0938454  80.8957382   9.5843341  19.9389990  81.3242229
  10.2607479  19.2957732  80.1323315   3.1727064  16.6113892  81.4685307
   3.6851584  17.4057142  81.6190871   3.8249777  15.9140183  81.4018908
   4.9821948  19.7279648  83.5508060   5.1588577  20.6497613  83.3629044
   5.7778782  19.4138068  83.9802440  13.0340413  12.6077627  77.9328710
  12.5187036  13.3782232  78.1717098  12.7617721  11.9342763  78.5561772
  18.0074687  15.3609982  79.8681884  17.2304130  15.0221141  79.4237046
  18.6866168  15.3662605  79.1936849  12.8226716  10.4804719  79.7588491
  12.5176851  10.7950868  80.6098635  13.7757158  10.5586139  79.8015824
  11.2673148  16.6394943  81.4081445  10.7394509  15.9047702  81.0954683
  10.7660650  17.4169619  81.1621414  16.2465994  14.8343963  86.5248492
  15.5889668  15.5243224  86.6128620  17.0506393  15.2240395  86.8682478
  15.0571452  13.1888336  84.5752433  15.5703334  13.8218328  85.0774143
  15.7072676  12.5889531  84.2095793   9.4125748  14.4575153  74.4116418
   8.5052810  14.2264406  74.6107567   9.9096780  13.6612772  74.5990400
  12.3193827  23.1672660  77.3313105  11.6455525  23.4704357  77.9398062
  12.7059649  23.9701740  76.9818562  12.3187331  12.0629207  81.9513454
  13.0659150  12.5750604  81.6420576  12.5878921  11.7413260  82.8117848
  10.5913981  14.5587748  78.9340409   9.6825201  14.2746781  79.0312878
  10.6209065  14.9786826  78.0743715  15.8233249  18.1694337  82.7031576
  15.3695576  17.3285247  82.7596767  15.1927215  18.8055736  83.0406356
  14.2666188  20.0070834  83.6381394  14.5589162  20.5675891  82.9193760
  14.7764809  20.2999395  84.3934553  10.2890069  16.0996491  76.2728487
   9.8509499  15.3832350  75.8134124  11.0300510  16.3272606  75.7113578
   9.2299813  20.7851185  84.7274847   9.1875992  21.0112031  83.7983379
  10.1462512  20.5514560  84.8760649  18.4063184  14.3753688  82.3304806
  18.2681082  14.5655284  81.4025995  18.0499403  15.1373071  82.7872857
  18.4332563  16.4430215  87.3416077  18.8669070  16.3505505  88.1899131
  19.1464144  16.4187716  86.7036093   7.3465614  17.6614214  84.5236810
   8.1406212  17.1664534  84.3219385   6.6357306  17.1332077  84.1604516
  12.1660458  20.0432310  88.8749178  12.2197481  20.6123246  89.6426894
  11.2975240  20.2134195  88.5103215  10.5185042  23.3352332  79.5460184
  10.6936798  22.8640376  80.3605806   9.8317830  23.9618099  79.7741445
  11.4742105  17.6124839  85.5923485  11.1391938  17.5725609  86.4881135
  10.9746051  16.9469555  85.1193895  14.4101297  14.9580873  75.8660545
  13.7930467  14.2327701  75.7693597  13.9417785  15.7190233  75.5227619
   5.0846127  26.4841695  86.3200044   5.3242725  27.1160219  86.9979063
   4.2415324  26.1329735  86.6065403   9.5973989  22.2920818  88.7241548
   9.5244160  23.0975789  89.2360852   9.1551382  22.4912783  87.8989569
   9.3863769  21.5292588  82.2344369   8.6031291  22.0714268  82.3282594
  10.0856514  22.0466567  82.6338611  20.5490176  13.0427583  86.5196866
  20.5380052  13.9252298  86.1490799  19.6807556  12.6899133  86.3251403
  13.7790199  16.0958904  82.4516998  12.8446478  16.2160367  82.2821703
  13.9566868  15.1931371  82.1877008  17.1662751  11.9376224  82.9867032
  17.6323203  12.7704215  82.9127335  17.6170251  11.4721205  83.6912291
  15.2338982  18.2820045  79.9853184  15.5098826  18.1676640  80.8947059
  14.3643481  17.8837530  79.9465358  11.8693046  22.5306396  83.6285998
  12.0515440  21.7128052  84.0913750  12.6926032  22.7474088  83.1910888
  12.2035211  21.4574581  80.8901047  12.7322978  20.9467035  80.2771209
  12.4663431  21.1417111  81.7546580   5.5590959  22.5089698  83.6498822
   4.8901335  22.9935825  83.1662863   5.4203829  22.7558918  84.5642201
   9.6996228  24.5433441  90.2481481  10.2514536  24.7065063  91.0130566
  10.0402421  25.1337879  89.5761506  12.8364615  22.4915417  87.2345163
  12.7115755  21.6905156  86.7256108  13.4943706  22.9861610  86.7459133
  14.8999524  20.2924437  88.8624713  13.9529859  20.1729788  88.7903040
  15.2482297  19.4046935  88.9450975  11.9045957  20.0877153  85.0629065
  11.7570919  19.1593860  85.2436635  12.7299450  20.1097244  84.5786141
  15.5080079  20.9105712  86.1493938  16.4326626  20.7048573  86.0118389
  15.3395382  20.6622113  87.0583280  15.2975395  21.4291379  81.5056030
  15.4712272  20.8637802  80.7529882  15.7904286  22.2292274  81.3235519
  21.1514786  14.1927802  83.1246329  21.5945932  13.4435127  82.7265453
  20.2741296  14.1837938  82.7420061  16.2850567  20.7458144  78.6052928
  16.9801472  21.3664836  78.8240242  16.6273718  19.8953495  78.8805306
  18.1841991  18.1957849  80.1340259  18.7093315  18.5345122  79.4089579
  18.0964343  17.2604864  79.9503393   9.8682651  24.2629832  84.4935512
   9.4287642  23.7706211  85.1868368  10.6190768  23.7202800  84.2527587
   2.3474990  20.4541373  84.4960140   3.1733010  20.1545145  84.1158783
   1.9969042  19.6848996  84.9449928   7.3156523  19.8067841  86.5657813
   6.6936533  19.1438546  86.2660041   7.9861390  19.8328973  85.8831461
   6.8770030  18.3571765  80.0416274   7.0258151  19.0407229  79.3882947
   7.6836474  18.3376855  80.5565730  20.6947651  15.6633040  85.5168777
  21.5294542  16.1022844  85.6806337  20.8306780  15.1871694  84.6977023
  10.3765436  20.8519895  77.5128021   9.8039403  21.4710082  77.0598493
  10.9498230  21.4019257  78.0467943  13.5962696  21.1357045  78.6436604
  14.5293369  21.0702607  78.8469479  13.5085909  21.9713312  78.1851136
  16.2250712  20.4522916  75.6040551  16.1464344  20.1182779  76.4976309
  17.0460379  20.9444684  75.6032024  10.7612234  12.1880708  74.8544074
  11.7071339  12.0586916  74.9232492  10.3826479  11.4495370  75.3313502
  24.7405453  14.3800662  87.9522907  25.4708842  14.1185950  88.5130610
  24.1312399  13.6429384  87.9924975  22.8220751  12.5208524  88.5497358
  22.0953914  12.3864489  87.9413849  22.4068037  12.8285353  89.3554076
  14.6511451   8.0046236  81.1302510  13.7637306   8.2895887  80.9122704
  15.0665440   7.8440000  80.2829786   2.6595701  22.5853988  86.2173954
   2.5250169  21.8254388  85.6511952   2.2427763  23.3094887  85.7502743
  13.7954664  17.7690911  75.2250530  14.4990514  17.9740914  75.8408185
  13.0717313  18.3367673  75.4899613  14.6252474  13.5200772  81.3452800
  14.5687676  13.9769324  80.5060432  15.1780817  12.7591457  81.1675642
  18.4357280   9.3090504  82.1702919  18.1794215   8.9087140  83.0011127
  17.8110148  10.0234298  82.0453058  22.7469618  12.0486577  84.6774211
  22.1869176  12.1179767  85.4505773  22.1413122  11.8727562  83.9573707
   5.8164827  23.4823305  86.4292397   5.6997211  24.4268737  86.3271087
   4.9957273  23.1796866  86.8178196  15.7041362  18.2073440  77.2748990
  16.5386965  17.7754639  77.0926464  15.5425704  18.0355454  78.2025884
  15.3587254  14.7105554  78.6405329  15.3036058  14.5449825  77.6993773
  14.7333309  15.4181586  78.7967519   8.5972943  22.8882553  86.3058404
   7.6468574  22.8884415  86.1922776   8.9005429  22.1415288  85.7894439
  24.3325637  28.7243091  87.3704166  24.9704047  28.6049839  86.6667506
  24.2146480  29.6723935  87.4292119  21.1415343  28.6770519  87.3065691
  20.8033854  28.5611584  86.4186226  22.0105111  28.2761685  87.2866697
  17.0002159  30.5305996  83.2962582  16.4367024  30.4395933  82.5278870
  16.8854554  29.7105900  83.7765075  21.6235126  29.8305371  93.2651897
  21.6123767  29.4358169  92.3932400  21.7855765  29.0971444  93.8585668
  14.5466591  32.0257187  86.1346802  15.3387882  31.6848012  85.7193102
  14.7863241  32.1352163  87.0548956  22.5801717  34.1976964  78.6077047
  21.9289697  34.7831044  78.2211061  23.3746080  34.7283159  78.6672084
  16.5057344  31.2866101  79.0064181  17.2788220  30.7395088  78.8677057
  16.8582743  32.1510350  79.2178643  18.3442387  32.6142483  92.2131081
  18.0532253  33.5188114  92.0977747  18.9799371  32.6559011  92.9275150
  19.2698594  29.9919332  88.8032440  19.8662166  29.7675354  88.0889403
  19.3273565  29.2504077  89.4057888  18.8423622  27.4458767  76.6382631
  19.0949143  26.9240288  75.8766094  17.9048181  27.2824912  76.7409315
  23.8866905  26.4494545  84.4457374  24.6729994  26.0313968  84.0947791
  24.1505609  27.3540637  84.6139023  24.0576982  31.8867396  79.1446031
  23.4222815  31.9602022  79.8566936  23.7274389  32.4760994  78.4665110
  29.2875332  26.3869778  85.3490353  30.0200504  25.8168995  85.5828182
  28.5314688  25.9991379  85.7896858  18.5619911  29.3486873  78.8407006
  18.4456169  28.6731776  79.5088090  18.6722171  28.8619247  78.0239159
  20.9051452  28.8097020  82.5453695  20.5409659  28.2827641  83.2566617
  21.7618568  28.4195489  82.3720181  26.8100753  20.0991353  89.8084962
  26.4784077  20.9686764  89.5846176  26.2146366  19.7827637  90.4878992
  20.5456939  23.8386920  77.5415044  20.7131341  24.7067156  77.9085515
  20.3554108  24.0014201  76.6176333  23.3032272  32.3003899  89.2080874
  23.0032995  33.2028937  89.0996681  22.9583332  32.0336082  90.0602027
  16.7544754  28.7517695  85.2417579  15.8295250  28.6193909  85.4495270
  17.0029167  29.5311915  85.7387521  26.7029416  24.8186439  86.8878312
  25.7946293  24.7501847  86.5937073  26.6517012  25.2958384  87.7160137
  20.5246160  26.2944577  78.5261711  20.4045785  26.7401628  79.3647191
  19.8298748  26.6429895  77.9675249  14.1153565  28.3950969  86.0761368
  14.2445946  28.6485448  86.9900779  13.4351016  28.9878677  85.7566023
  18.2853052  39.0648219  82.1751842  18.2077082  40.0156044  82.2540323
  17.6814696  38.7194091  82.8326768  20.7770282  26.2376084  94.8313209
  20.0003616  26.7970004  94.8216073  21.4160845  26.7232867  95.3528079
  28.5691062  23.0202877  88.6656185  27.9265443  23.3135410  88.0195980
  28.0645991  22.9055797  89.4709382  26.2231226  26.7666050  79.3542045
  27.1349082  26.9993437  79.1789742  25.7140873  27.3503095  78.7917123
  19.0316654  29.0461538  94.3931176  19.7731338  29.5846582  94.1165999
  18.3253639  29.6727826  94.5502728  24.5071994  31.1890678  92.9903337
  24.9155350  30.7473089  92.2457970  23.7849255  30.6143306  93.2437530
  20.8603064  26.1263285  90.3636894  21.7064259  26.5502698  90.5071543
  20.8001701  25.4696909  91.0575457  24.8300808  31.7491869  86.7455626
  24.2009671  31.9137583  86.0431694  24.4426470  32.1633478  87.5166590
  28.7090040  32.6846307  84.0999990  28.0241078  33.0645208  83.5497023
  28.7933889  33.2941633  84.8331938  24.0102509  23.7867653  92.0218068
  23.7663441  24.5409714  91.4852344  24.2862440  24.1653001  92.8565315
  25.9640972  30.3306266  90.6995333  26.1757867  30.9738026  90.0229715
  25.9170720  29.4968582  90.2317264  23.5667201  22.9424086  87.6031906
  22.7051680  23.2405340  87.8948643  23.5929635  23.1594485  86.6712938
  20.3828770  31.4866277  84.0105711  20.8467116  31.7653980  83.2210334
  20.1185568  30.5849721  83.8278802  17.2752851  31.0337758  86.9485475
  17.8454208  31.4625027  86.3102959  17.8660963  30.7520343  87.6469660
  19.3197656  27.6089429  80.8195276  20.0221700  28.0610473  81.2869203
  18.9878285  26.9673248  81.4475170  17.7678018  26.2001186  95.1946486
  17.1376678  26.8817467  95.4281883  17.6614106  26.0884267  94.2499624
  13.0622990  25.8672982  86.1212410  12.2722044  26.1230510  85.6452521
  13.5534238  26.6821320  86.2264451  27.0786800  33.2078221  88.8717691
  27.9004243  32.8058408  88.5900372  27.0749203  33.1046455  89.8233807
  15.0137736  26.2317561  83.0795887  14.2168899  26.3436255  83.5979382
  14.7863328  26.5704213  82.2136777  20.8443403  32.7562264  91.0278401
  20.9087836  33.2182672  91.8636573  20.1354327  32.1259629  91.1560711
  11.3460693  26.1203472  88.5527401  11.5968732  27.0050482  88.8184977
  11.8820242  25.9408074  87.7802493  35.1692793  29.5516970  85.2202662
  34.4156501  28.9824368  85.0646667  35.3040334  29.5179634  86.1673297
  20.5591421  34.4230372  80.8957382  20.4237096  35.2681908  81.3242229
  21.1001233  34.6249649  80.1323315  14.0120818  31.9405810  81.4685307
  14.5245339  32.7349060  81.6190871  14.6643531  31.2432100  81.4018908
  15.8215703  35.0571566  83.5508060  15.9982331  35.9789531  83.3629044
  16.6172536  34.7429985  83.9802440  15.1068059  27.1036198  93.4270223
  14.9921575  26.2021455  93.7277322  14.2512577  27.3499895  93.0755040
  22.1859897  35.0453938  95.0257724  21.7423751  34.2590317  94.7078628
  22.8477111  35.2333089  94.3601615  16.9447018  36.5749740  89.5518402
  17.4954444  36.4466803  88.7795396  16.1058494  36.8744629  89.2013295
  24.2841135  35.3256738  93.0539125  24.2659611  36.1465619  92.5619394
  25.2061055  35.2010813  93.2789266  20.7414189  32.8400868  93.8962633
  21.2742526  32.0789156  93.6661941  20.2128271  32.5474520  94.6386788
  23.9083884  17.9460934  89.4256275  23.5648154  18.8362575  89.3495386
  24.2762847  17.7562591  88.5625860  11.9769735  30.2694464  82.2444877
  12.8144957  30.6791473  82.0278585  12.1548003  29.3293906  82.2145071
  23.8734167  27.9369545  77.9328710  23.3580791  28.7074149  78.1717098
  23.6011476  27.2634681  78.5561772  21.4581278  22.7819246  82.9913949
  20.6022875  22.3926096  82.8119587  21.8708230  22.8611206  82.1313734
  22.9880425  20.3165589  87.3905508  22.4845220  20.2795724  86.5773314
  23.2811032  21.2258332  87.4502165  19.2323311  20.4004319  86.3971690
  20.0976307  20.2047127  86.0377580  19.3000820  20.1714670  87.3241047
  28.8468441  30.6901899  79.8681884  28.0697884  30.3513059  79.4237046
  29.5259922  30.6954523  79.1936849  23.6620470  25.8096637  79.7588491
  23.3570606  26.1242786  80.6098635  24.6150912  25.8878057  79.8015824
  22.1066902  31.9686860  81.4081445  21.5788264  31.2339620  81.0954683
  21.6054405  32.7461537  81.1621414  27.0859748  30.1635881  86.5248492
  26.4283423  30.8535142  86.6128620  27.8900147  30.5532313  86.8682478
  16.8385630  22.6306527  83.7688057  17.4129382  22.4081708  83.0361250
  17.4256612  22.6995221  84.5216658  25.8965207  28.5180253  84.5752433
  26.4097089  29.1510245  85.0774143  26.5466431  27.9181449  84.2095793
  17.1655217  24.6610988  77.7883942  16.3292529  24.9985674  78.1093217
  17.0259987  24.5259967  76.8511079  19.1408297  19.5047775  82.4963126
  18.4872710  19.1896793  81.8719741  19.0988772  18.8823516  83.2222949
  20.2519502  29.7867071  74.4116418  19.3446564  29.5556324  74.6107567
  20.7490534  28.9904690  74.5990400  23.1587581  38.4964578  77.3313105
  22.4849280  38.7996274  77.9398062  23.5453403  39.2993658  76.9818562
  22.3746038  25.9929709  86.8210774  21.4568599  26.2144656  86.6632462
  22.7906181  26.0676019  85.9622481  23.1581086  27.3921125  81.9513454
  23.9052905  27.9042522  81.6420576  23.4272675  27.0705177  82.8117848
  21.4307736  29.8879665  78.9340409  20.5218955  29.6038698  79.0312878
  21.4602820  30.3078744  78.0743715  26.6627003  33.4986255  82.7031576
  26.2089330  32.6577165  82.7596767  26.0320970  34.1347653  83.0406356
  25.6059923  24.4278241  83.9332244  24.8682680  23.9155627  84.2642486
  25.8586696  23.9878623  83.1215520  25.1059942  35.3362752  83.6381394
  25.3982917  35.8967809  82.9193760  25.6158563  35.6291313  84.3934553
  25.7071550  17.2054493  84.5274013  26.0130427  16.3451856  84.2399928
  26.4324155  17.7972113  84.3273007  11.9995906  27.6085179  82.9155611
  11.8020306  27.0154540  82.1906677  11.4442570  27.3037390  83.6331550
  19.9792630  27.5008286  85.0350204  20.0341240  26.5482122  84.9592680
  19.1683832  27.6567725  85.5191502  21.1283824  31.4288409  76.2728487
  20.6903253  30.7124268  75.8134124  21.8694264  31.6564524  75.7113578
  17.9184990  26.1185346  82.7940583  17.1052855  26.4179516  83.2005775
  18.4143984  25.7241034  83.5115065  20.0693568  36.1143103  84.7274847
  20.0269746  36.3403949  83.7983379  20.9856266  35.8806477  84.8760649
  23.5159201  26.5827170  91.6255477  23.8708589  26.8098643  92.4849942
  24.1631333  26.9145547  91.0032732  29.2456938  29.7045606  82.3304806
  29.1074837  29.8947202  81.4025995  28.8893157  30.4664989  82.7872857
  17.4099064  23.6903701  88.4101818  18.0498444  23.5492460  87.7124781
  16.5776595  23.4038215  88.0340420  29.2726318  31.7722133  87.3416077
  29.7062825  31.6797422  88.1899131  29.9857899  31.7479634  86.7036093
  18.1859368  32.9906132  84.5236810  18.9799967  32.4956452  84.3219385
  17.4751061  32.4623995  84.1604516  23.0054213  35.3724227  88.8749178
  23.0591235  35.9415164  89.6426894  22.1368994  35.5426112  88.5103215
  14.4942132  27.1349213  80.5996563  13.5639720  27.0733669  80.8166525
  14.5899604  26.6125166  79.8033204  14.4127681  23.6604026  83.1874805
  14.6734498  24.5749359  83.0783965  15.2344853  23.1928469  83.3371417
  15.8852606  25.0741783  90.3573629  16.5575660  24.8659146  89.7086278
  15.0582393  24.8763869  89.9178861  30.1341868  31.8145834  89.8748963
  30.3277758  32.7191644  90.1208238  30.0342486  31.3553253  90.7087548
  21.7878178  21.7003724  92.3739290  21.1406093  22.3993674  92.2803766
  22.5579194  22.1339868  92.7415538  25.1956976  31.9652576  95.4489843
  25.0442483  31.7363128  94.5319927  25.1861656  32.9223178  95.4621188
  21.9642313  29.5384489  90.4336110  22.8934373  29.6895649  90.2605077
  21.5433343  29.6268510  89.5784756  20.7630644  33.5635154  88.2034647
  20.6241730  33.1953938  89.0760585  19.9745241  34.0782793  88.0318605
  21.3578796  38.6644250  79.5460184  21.5330552  38.1932293  80.3605806
  20.6711584  39.2910016  79.7741445  22.3135860  32.9416756  85.5923485
  21.9785692  32.9017526  86.4881135  21.8139805  32.2761472  85.1193895
  16.2880103  28.3484386  91.1176066  16.1499901  27.6164625  91.7187605
  17.1985027  28.2593286  90.8360254  25.2495051  30.2872791  75.8660545
  24.6324222  29.5619619  75.7693597  24.7811540  31.0482151  75.5227619
  18.9162404  28.0604346  90.6059746  19.6262023  27.4197538  90.5646364
  18.8731712  28.3117241  91.5285927  26.9049183  34.9971699  93.5266325
  26.8461729  34.3130919  92.8596908  27.3068701  35.7390689  93.0746951
  17.6291338  25.0469564  92.4255385  17.0928695  24.5960302  93.0776982
  17.0408047  25.1815472  91.6825850  15.9239882  41.8133613  86.3200044
  16.1636480  42.4452137  86.9979063  15.0809078  41.4621653  86.6065403
  17.0393597  24.5058215  74.9881849  16.1623063  24.3847016  74.6244096
  17.5151350  23.7144293  74.7360738  26.9066590  32.9611283  91.7580305
  26.0193369  32.6237205  91.8806704  27.4765141  32.2294314  91.9949070
   8.5595737  29.2935375  85.0823356   9.2466777  28.9797105  84.4944371
   8.4043866  30.1976739  84.8090608  13.3630459  24.1825571  89.5108380
  13.2788648  23.5751241  88.7758790  12.5413166  24.6734590  89.5117876
  20.4367744  37.6212735  88.7241548  20.3637915  38.4267707  89.2360852
  19.9945137  37.8204701  87.8989569  20.2257523  36.8584505  82.2344369
  19.4425045  37.4006186  82.3282594  20.9250268  37.3758485  82.6338611
  23.5354173  22.6679135  84.8778575  24.0322873  21.9149097  84.5579645
  22.7641155  22.7043451  84.3121784  31.3883931  28.3719500  86.5196866
  31.3773807  29.2544216  86.1490799  30.5201310  28.0191051  86.3251403
  22.8966427  37.5199569  90.8799707  23.6094399  38.1547034  90.8075608
  22.4056456  37.6163435  90.0639708  24.6183954  31.4250822  82.4516998
  23.6840233  31.5452284  82.2821703  24.7960622  30.5223289  82.1877008
  20.1189142  24.8096518  84.6050259  19.7486930  24.2567558  85.2931165
  20.6148234  24.2054651  84.0525260  28.0056505  27.2668141  82.9867032
  28.4716957  28.0996133  82.9127335  28.4564006  26.8013123  83.6912291
  17.9478341  35.2694013  91.7005277  18.6487800  35.9030496  91.8534672
  17.4773456  35.6108744  90.9400917  26.0732736  33.6111963  79.9853184
  26.3492580  33.4968557  80.8947059  25.2037235  33.2129447  79.9465358
  25.9773168  19.6348728  87.0257934  25.0636248  19.8652955  87.1940141
  26.4066269  19.7187172  87.8771966  25.7479627  27.8238620  89.5257828
  25.0951077  28.0714528  88.8710281  26.1260006  27.0102758  89.1920305
  22.7086800  37.8598313  83.6285998  22.8909195  37.0419969  84.0913750
  23.5319786  38.0766006  83.1910888  23.0428966  36.7866499  80.8901047
  23.5716732  36.2758953  80.2771209  23.3057185  36.4709029  81.7546580
  21.7967200  28.5658431  96.0123865  21.1207837  28.4652561  96.6826240
  22.6194833  28.4097645  96.4759862  13.5446059  34.8030368  88.6336380
  14.1299495  34.0574056  88.7664284  13.3470897  35.1134325  89.5173044
  16.3984714  37.8381615  83.6498822  15.7295089  38.3227743  83.1662863
  16.2597584  38.0850836  84.5642201   8.1363713  27.3735968  87.3540823
   8.1747813  26.8399559  88.1477941   7.6304006  26.8471174  86.7351800
  20.5389982  39.8725359  90.2481481  21.0908290  40.0356980  91.0130566
  20.8796176  40.4629797  89.5761506  15.5154476  22.2200509  90.8503366
  15.5795802  23.0815339  90.4380763  15.4521596  21.6074510  90.1175724
  25.3900857  34.6986616  96.1030135  25.9340761  35.3116575  95.6085090
  24.8087702  35.2566195  96.6197148  11.7672291  26.1000070  80.4294755
  12.0625732  25.1910749  80.3761808  10.8660327  26.0787810  80.1075757
  23.6758370  37.8207334  87.2345163  23.5509509  37.0197074  86.7256108
  24.3337461  38.3153528  86.7459133  15.2966538  24.1756067  86.4122303
  14.5753124  24.7892035  86.2729777  16.0859794  24.7113832  86.3338949
  25.7393278  35.6216354  88.8624713  24.7923614  35.5021706  88.7903040
  26.0876051  34.7338852  88.9450975  13.4960133  23.7814168  80.5534080
  13.1672839  22.9011547  80.3709186  13.8499503  23.7261837  81.4410469
  22.7439711  35.4169071  85.0629065  22.5964674  34.4885778  85.2436635
  23.5693205  35.4389161  84.5786141  16.6101956  24.0687138  80.9209557
  16.9498028  24.5973059  80.1988166  17.0574076  24.4067544  81.6968124
  26.3473833  36.2397629  86.1493938  27.2720381  36.0340491  86.0118389
  26.1789137  35.9914030  87.0583280  19.3045397  22.4524188  90.3712626
  18.9642217  21.6532001  90.7733305  18.5984403  22.7525899  89.7989459
  19.9561868  19.5373501  88.8239949  20.7787938  19.0633979  88.7018839
  20.1999932  20.3163985  89.3238635  18.5970103  22.5661759  79.1202850
  19.3178465  22.9443012  78.6166567  17.9735407  23.2850636  79.2237828
  22.7401226  23.2706908  80.0561183  22.9564840  24.1531546  79.7550011
  22.2595293  22.8793122  79.3266825  17.4800447  26.2292621  86.6331927
  17.3345028  26.5432925  87.5256209  17.0025651  26.8477522  86.0802826
  19.3396830  23.2195169  86.6812817  19.3258399  22.3236263  86.3445115
  20.0569258  23.2265833  87.3151103  21.1922961  23.6532510  88.7265944
  20.9340739  24.5749580  88.7250275  20.6608001  23.2562944  89.4166408
  26.1369149  36.7583297  81.5056030  26.3106027  36.1929719  80.7529882
  26.6298041  37.5584192  81.3235519  11.9546109  28.7697966  89.5719588
  11.4099577  29.5457774  89.7039863  12.8325459  29.1168770  89.4138710
  18.7433726  22.1009550  81.9500387  18.8649637  21.1726196  82.1491274
  18.4535768  22.1148236  81.0378702  21.6124916  19.7864460  85.0867107
  21.6346613  19.8503793  84.1319086  22.0292975  18.9468969  85.2807613
  31.9908541  29.5219720  83.1246329  32.4339687  28.7727045  82.7265453
  31.1135051  29.5129856  82.7420061  27.1244322  36.0750061  78.6052928
  27.8195227  36.6956754  78.8240242  27.4667472  35.2245412  78.8805306
  12.7412131  27.8967862  92.4649745  11.9993867  28.0450497  93.0514376
  12.4204875  28.1576128  91.6016495  29.0235745  33.5249767  80.1340259
  29.5487069  33.8637039  79.4089579  28.9358098  32.5896782  79.9503393
  20.6855794  37.4383840  92.2630135  20.9942920  37.1932987  93.1352835
  21.4831276  37.6430479  91.7749005  20.7076406  39.5921750  84.4935512
  20.2681396  39.0998129  85.1868368  21.4584523  39.0494718  84.2527587
  13.1868745  35.7833291  84.4960140  14.0126765  35.4837063  84.1158783
  12.8362797  35.0140913  84.9449928  18.1550278  35.1359759  86.5657813
  17.5330287  34.4730464  86.2660041  18.8255145  35.1620891  85.8831461
  11.3877350  33.7019617  85.4549073  10.5509258  33.2741792  85.2733075
  11.3600995  33.8952061  86.3919865  28.7129651  34.1582670  95.4391457
  27.9225195  34.1406809  94.8995956  28.4763006  34.6970964  96.1940493
  28.8327526  31.0075137  92.7524185  28.8825531  30.8425144  93.6939708
  28.7241450  30.1402396  92.3622066  17.7163785  33.6863682  80.0416274
  17.8651905  34.3699147  79.3882947  18.5230228  33.6668772  80.5565730
  26.1231289  26.9906065  94.0683492  27.0241151  26.8512530  93.7767490
  26.1979263  27.1560520  95.0081669  20.4574094  24.3672920  92.9136678
  19.5877403  24.6606486  92.6419267  20.6933574  24.9513365  93.6343942
  30.3345723  33.4272078  92.9966207  30.0430531  33.7902059  93.8329668
  29.7217854  32.7139087  92.8179539  31.5341405  30.9924958  85.5168777
  32.3688297  31.4314762  85.6806337  31.6700534  30.5163611  84.6977023
  28.5832911  28.5504693  91.4646265  29.0587033  28.7432339  90.6565116
  27.6598477  28.6063879  91.2189648  15.4716418  29.7128860  81.0477343
  15.2262460  28.8091190  81.2457553  15.6412332  29.7146011  80.1056821
  23.1613128  20.5852536  90.4302099  23.6795072  21.3213563  90.1048587
  22.8068260  20.8916530  91.2648858  14.7412065  25.4457218  78.5463504
  14.0481310  25.5201573  77.8903540  14.4963817  24.6817561  79.0685021
  23.4125722  17.0052819  85.9502995  23.6927476  16.3376008  86.5763422
  24.1976329  17.1981915  85.4377659  21.2159190  36.1811813  77.5128021
  20.6433157  36.8002000  77.0598493  21.7891984  36.7311175  78.0467943
  27.2834580  25.4270453  89.6974570  28.2352003  25.5268551  89.7186794
  27.1138031  24.6348722  90.2072655  25.3048960  22.5126036  89.8833971
  24.7098892  22.7931049  89.1880460  25.0198656  23.0019937  90.6550712
  24.4356450  36.4648963  78.6436604  25.3687123  36.3994525  78.8469479
  24.3479663  37.3005230  78.1851136  27.0644467  35.7814833  75.6040551
  26.9858098  35.4474697  76.4976309  27.8854134  36.2736601  75.6032024
  29.7622658  28.6476573  88.8116870  29.7298978  27.7092573  88.9976554
  30.3723282  28.7260609  88.0782695  21.6005989  27.5172626  74.8544074
  22.5465094  27.3878834  74.9232492  21.2220234  26.7787288  75.3313502
  29.9117147  25.4387616  88.8575153  29.3956195  24.6546073  88.6705082
  30.7957095  25.1106333  89.0221673  27.5727873  19.1828632  84.8170966
  27.3752695  18.8743720  85.7014298  28.1827579  19.9090271  84.9468896
  35.5799208  29.7092579  87.9522907  36.3102596  29.4477868  88.5130610
  34.9706153  28.9721301  87.9924975  33.6614505  27.8500442  88.5497358
  32.9347669  27.7156407  87.9413849  33.2461792  28.1577271  89.3554076
  21.4844681  31.5690372  96.3144731  22.4047691  31.7468971  96.5084777
  21.4494264  30.6246417  96.1624430  19.7848906  25.4422602  74.7898959
  18.8780361  25.1455715  74.8661673  20.0624887  25.1452420  73.9233245
  10.7026846  26.7628965  85.2398006  10.3829631  25.9094274  84.9472380
  10.1560275  26.9777544  85.9955973  14.4806754  29.4791406  88.9567512
  14.6992764  30.4108514  88.9755546  14.8932528  29.1199381  89.7422316
  21.4010972  19.9859492  80.9443200  20.5911700  19.6406577  81.3198446
  22.0895389  19.6767035  81.5330812  23.3301520  19.0637539  82.5667497
  23.8832559  19.4832992  83.2257520  23.5671606  18.1373287  82.6090453
  18.5547691  22.3009537  74.9310938  19.4166855  22.6264436  75.1906756
  18.7398035  21.5141033  74.4184004  10.5715106  30.3831877  87.2091127
   9.8778578  29.9685830  86.6961082  11.3188097  30.4252413  86.6124546
  26.7080327  21.1738064  82.0746161  26.1278996  21.8322868  81.6924214
  26.4416260  20.3515408  81.6633579  25.1583894  20.5743121  84.2767482
  25.6583672  20.6859656  83.4681800  25.8019501  20.2704174  84.9168290
  19.2165889  28.4821751  97.1635323  18.7332971  29.2822111  97.3699212
  19.3026828  28.4929696  96.2102767  12.4851849  30.3150131  85.0857142
  12.4622537  30.4137818  84.1339025  12.7952485  31.1615281  85.4074308
  15.1439227  32.3726286  89.2003756  16.0982480  32.3410228  89.1333688
  14.9451750  31.9116909  90.0153982  15.7338609  30.9427402  91.7674554
  16.5531498  31.4371480  91.7909391  16.0075417  30.0259370  91.7392122
  25.4905205  23.3338154  81.1302510  24.6031060  23.6187805  80.9122704
  25.9059194  23.1731917  80.2829786  28.8419741  23.3584675  84.8456849
  29.6180131  23.8481128  85.1181466  28.1167875  23.7842729  85.3028718
  31.2792300  24.0712294  85.9030789  31.8736791  23.8308030  85.1924098
  31.3518884  23.3519425  86.5304326  13.4989456  37.9145905  86.2173954
  13.3643924  37.1546306  85.6511952  13.0821518  38.6386805  85.7502743
  24.6348419  33.0982829  75.2250530  25.3384269  33.3032831  75.8408185
  23.9111067  33.6659591  75.4899613  25.4646229  28.8492690  81.3452800
  25.4081430  29.3061241  80.5060432  26.0174571  28.0883375  81.1675642
  29.2751035  24.6382422  82.1702919  29.0187969  24.2379058  83.0011127
  28.6503903  25.3526216  82.0453058  33.5863373  27.3778495  84.6774211
  33.0262931  27.4471684  85.4505773  32.9806876  27.2019480  83.9573707
  16.6558581  38.8115222  86.4292397  16.5390966  39.7560655  86.3271087
  15.8351028  38.5088784  86.8178196  26.5435116  33.5365358  77.2748990
  27.3780720  33.1046556  77.0926464  26.3819459  33.3647372  78.2025884
  26.1981008  30.0397471  78.6405329  26.1429812  29.8741743  77.6993773
  25.5727063  30.7473504  78.7967519  23.5126915  32.3446383  97.9658892
  24.3818075  32.5187035  97.6045527  23.0333667  33.1640800  97.8434621
  19.5077134  19.5405580  78.2190647  19.4955803  20.4847420  78.3758918
  20.4000556  19.3575726  77.9250109  17.6813096  39.4643484  89.6448325
  18.5840342  39.4967094  89.9614820  17.4550466  38.5343935  89.6594661
  19.4366698  38.2174471  86.3058404  18.4862329  38.2176332  86.1922776
  19.7399184  37.4707205  85.7894439  23.3229253  16.1348357  82.4736584
  22.5561649  15.5806844  82.6193266  23.7339958  16.2070226  83.3350736
  35.1719391  44.0535009  87.3704166  35.8097801  43.9341756  86.6667506
  35.0540234  45.0015853  87.4292119  31.9809097  44.0062437  87.3065691
  31.6427609  43.8903502  86.4186226  32.8498866  43.6053602  87.2866697
  27.8395913  45.8597914  83.2962582  27.2760778  45.7687851  82.5278870
  27.7248308  45.0397818  83.7765075  32.4628880  45.1597289  93.2651897
  32.4517521  44.7650087  92.3932400  32.6249520  44.4263362  93.8585668
  25.3860345  47.3549105  86.1346802  26.1781637  47.0139930  85.7193102
  25.6256995  47.4644080  87.0548956  33.4195472  49.5268881  78.6077047
  32.7683452  50.1122962  78.2211061  34.2139835  50.0575076  78.6672084
  27.3451099  46.6158018  79.0064181  28.1181975  46.0687006  78.8677057
  27.6976498  47.4802268  79.2178643  29.1836142  47.9434401  92.2131081
  28.8926008  48.8480032  92.0977747  29.8193126  47.9850928  92.9275150
  30.1092348  45.3211249  88.8032440  30.7055921  45.0967272  88.0889403
  30.1667320  44.5795995  89.4057888  29.6817377  42.7750685  76.6382631
  29.9342897  42.2532206  75.8766094  28.7441936  42.6116830  76.7409315
  34.7260660  41.7786463  84.4457374  35.5123749  41.3605886  84.0947791
  34.9899364  42.6832555  84.6139023  34.8970737  47.2159313  79.1446031
  34.2616570  47.2893940  79.8566936  34.5668143  47.8052912  78.4665110
  40.1269087  41.7161696  85.3490353  40.8594259  41.1460913  85.5828182
  39.3708442  41.3283297  85.7896858  29.4013666  44.6778791  78.8407006
  29.2849924  44.0023694  79.5088090  29.5115925  44.1911164  78.0239159
  31.7445206  44.1388938  82.5453695  31.3803414  43.6119559  83.2566617
  32.6012322  43.7487407  82.3720181  37.6494507  35.4283270  89.8084962
  37.3177832  36.2978681  89.5846176  37.0540120  35.1119554  90.4878992
  31.3850693  39.1678837  77.5415044  31.5525096  40.0359074  77.9085515
  31.1947863  39.3306119  76.6176333  34.1426027  47.6295816  89.2080874
  33.8426750  48.5320855  89.0996681  33.7977086  47.3627999  90.0602027
  27.5938508  44.0809613  85.2417579  26.6689005  43.9485827  85.4495270
  27.8422921  44.8603832  85.7387521  37.5423170  40.1478356  86.8878312
  36.6340048  40.0793765  86.5937073  37.4910766  40.6250301  87.7160137
  31.3639914  41.6236495  78.5261711  31.2439540  42.0693546  79.3647191
  30.6692503  41.9721812  77.9675249  24.9547319  43.7242887  86.0761368
  25.0839700  43.9777366  86.9900779  24.2744770  44.3170595  85.7566023
  29.1246806  54.3940137  82.1751842  29.0470836  55.3447962  82.2540323
  28.5208450  54.0486009  82.8326768  31.6164036  41.5668002  94.8313209
  30.8397370  42.1261922  94.8216073  32.2554599  42.0524785  95.3528079
  39.4084817  38.3494795  88.6656185  38.7659197  38.6427328  88.0195980
  38.9039745  38.2347715  89.4709382  37.0624980  42.0957968  79.3542045
  37.9742837  42.3285355  79.1789742  36.5534628  42.6795012  78.7917123
  29.8710408  44.3753455  94.3931176  30.6125093  44.9138499  94.1165999
  29.1647394  45.0019744  94.5502728  35.3465748  46.5182596  92.9903337
  35.7549104  46.0765006  92.2457970  34.6243010  45.9435223  93.2437530
  31.6996818  41.4555203  90.3636894  32.5458013  41.8794616  90.5071543
  31.6395456  40.7988827  91.0575457  35.6694563  47.0783786  86.7455626
  35.0403425  47.2429501  86.0431694  35.2820225  47.4925396  87.5166590
  39.5483795  48.0138224  84.0999990  38.8634833  48.3937126  83.5497023
  39.6327644  48.6233551  84.8331938  34.8496264  39.1159571  92.0218068
  34.6057195  39.8701631  91.4852344  35.1256194  39.4944919  92.8565315
  36.8034726  45.6598183  90.6995333  37.0151622  46.3029943  90.0229715
  36.7564475  44.8260500  90.2317264  34.4060955  38.2716004  87.6031906
  33.5445434  38.5697258  87.8948643  34.4323390  38.4886403  86.6712938
  31.2222525  46.8158195  84.0105711  31.6860870  47.0945898  83.2210334
  30.9579323  45.9141639  83.8278802  28.1146606  46.3629676  86.9485475
  28.6847963  46.7916944  86.3102959  28.7054718  46.0812261  87.6469660
  30.1591411  42.9381347  80.8195276  30.8615454  43.3902391  81.2869203
  29.8272039  42.2965166  81.4475170  28.6071772  41.5293104  95.1946486
  27.9770433  42.2109384  95.4281883  28.5007860  41.4176185  94.2499624
  23.9016745  41.1964900  86.1212410  23.1115799  41.4522428  85.6452521
  24.3927992  42.0113237  86.2264451  37.9180554  48.5370139  88.8717691
  38.7397998  48.1350326  88.5900372  37.9142957  48.4338373  89.8233807
  25.8531490  41.5609479  83.0795887  25.0562653  41.6728173  83.5979382
  25.6257082  41.8996131  82.2136777  31.6837158  48.0854182  91.0278401
  31.7481590  48.5474589  91.8636573  30.9748082  47.4551547  91.1560711
  22.1854448  41.4495390  88.5527401  22.4362486  42.3342400  88.8184977
  22.7213996  41.2699992  87.7802493  46.0086547  44.8808887  85.2202662
  45.2550256  44.3116285  85.0646667  46.1434088  44.8471552  86.1673297
  31.3985175  49.7522290  80.8957382  31.2630850  50.5973825  81.3242229
  31.9394988  49.9541567  80.1323315  27.8852515  35.8313869  97.5571737
  27.4919461  35.2780068  98.2319381  28.7018655  36.1424448  97.9478254
  24.8514573  47.2697728  81.4685307  25.3639093  48.0640978  81.6190871
  25.5037286  46.5724018  81.4018908  26.6609457  50.3863484  83.5508060
  26.8376086  51.3081449  83.3629044  27.4566291  50.0721903  83.9802440
  30.8020476  37.2471748  95.1491993  31.5430189  37.8478902  95.0696456
  31.0338399  36.5049386  94.5910036  25.9461814  42.4328116  93.4270223
  25.8315329  41.5313373  93.7277322  25.0906332  42.6791812  93.0755040
  33.0253652  50.3745856  95.0257724  32.5817506  49.5882235  94.7078628
  33.6870865  50.5625007  94.3601615  27.7840773  51.9041658  89.5518402
  28.3348198  51.7758721  88.7795396  26.9452249  52.2036547  89.2013295
  35.1234890  50.6548656  93.0539125  35.1053365  51.4757537  92.5619394
  36.0454810  50.5302731  93.2789266  31.5807944  48.1692785  93.8962633
  32.1136281  47.4081074  93.6661941  31.0522025  47.8766437  94.6386788
  34.7477639  33.2752851  89.4256275  34.4041908  34.1654493  89.3495386
  35.1156602  33.0854509  88.5625860  22.8163490  45.5986382  82.2444877
  23.6538712  46.0083390  82.0278585  22.9941757  44.6585824  82.2145071
  34.7127922  43.2661462  77.9328710  34.1974545  44.0366067  78.1717098
  34.4405230  42.5926599  78.5561772  32.2975033  38.1111163  82.9913949
  31.4416629  37.7218014  82.8119587  32.7101984  38.1903124  82.1313734
  33.8274179  35.6457507  87.3905508  33.3238975  35.6087642  86.5773314
  34.1204786  36.5550249  87.4502165  30.0717065  35.7296236  86.3971690
  30.9370062  35.5339045  86.0377580  30.1394574  35.5006588  87.3241047
  39.6862196  46.0193817  79.8681884  38.9091639  45.6804977  79.4237046
  40.3653677  46.0246440  79.1936849  34.5014225  41.1388555  79.7588491
  34.1964360  41.4534704  80.6098635  35.4544667  41.2169974  79.8015824
  32.9460657  47.2978778  81.4081445  32.4182018  46.5631537  81.0954683
  32.4448159  48.0753454  81.1621414  37.9253503  45.4927798  86.5248492
  37.2677177  46.1827060  86.6128620  38.7293902  45.8824230  86.8682478
  27.6779384  37.9598444  83.7688057  28.2523136  37.7373626  83.0361250
  28.2650367  38.0287139  84.5216658  36.7358961  43.8472171  84.5752433
  37.2490843  44.4802163  85.0774143  37.3860185  43.2473367  84.2095793
  28.0048971  39.9902905  77.7883942  27.1686284  40.3277592  78.1093217
  27.8653741  39.8551885  76.8511079  29.9802052  34.8339693  82.4963126
  29.3266464  34.5188710  81.8719741  29.9382526  34.2115434  83.2222949
  31.0913257  45.1158988  74.4116418  30.1840319  44.8848242  74.6107567
  31.5884289  44.3196607  74.5990400  33.9981336  53.8256495  77.3313105
  33.3243034  54.1288192  77.9398062  34.3847158  54.6285576  76.9818562
  33.2139792  41.3221627  86.8210774  32.2962354  41.5436574  86.6632462
  33.6299936  41.3967937  85.9622481  33.9974840  42.7213042  81.9513454
  34.7446659  43.2334440  81.6420576  34.2666430  42.3997095  82.8117848
  32.2701490  45.2171583  78.9340409  31.3612710  44.9330616  79.0312878
  32.2996574  45.6370662  78.0743715  37.5020758  48.8278173  82.7031576
  37.0483085  47.9869082  82.7596767  36.8714724  49.4639571  83.0406356
  36.4453677  39.7570159  83.9332244  35.7076434  39.2447545  84.2642486
  36.6980451  39.3170540  83.1215520  35.9453697  50.6654669  83.6381394
  36.2376671  51.2259726  82.9193760  36.4552317  50.9583230  84.3934553
  36.5465305  32.5346411  84.5274013  36.8524181  31.6743774  84.2399928
  37.2717909  33.1264031  84.3273007  22.8389661  42.9377097  82.9155611
  22.6414060  42.3446458  82.1906677  22.2836325  42.6329307  83.6331550
  30.8186384  42.8300204  85.0350204  30.8734994  41.8774040  84.9592680
  30.0077586  42.9859643  85.5191502  31.9677578  46.7580327  76.2728487
  31.5297008  46.0416186  75.8134124  32.7088019  46.9856442  75.7113578
  28.7578744  41.4477263  82.7940583  27.9446610  41.7471434  83.2005775
  29.2537738  41.0532952  83.5115065  30.9087322  51.4435020  84.7274847
  30.8663501  51.6695867  83.7983379  31.8250021  51.2098395  84.8760649
  34.3552956  41.9119088  91.6255477  34.7102344  42.1390561  92.4849942
  35.0025087  42.2437465  91.0032732  40.0850693  45.0337524  82.3304806
  39.9468591  45.2239120  81.4025995  39.7286912  45.7956907  82.7872857
  28.2492819  39.0195619  88.4101818  28.8892198  38.8784378  87.7124781
  27.4170350  38.7330132  88.0340420  40.1120072  47.1014051  87.3416077
  40.5456579  47.0089340  88.1899131  40.8251653  47.0771551  86.7036093
  29.0253123  48.3198049  84.5236810  29.8193721  47.8248369  84.3219385
  28.3144815  47.7915912  84.1604516  33.8447967  50.7016145  88.8749178
  33.8984990  51.2707081  89.6426894  32.9762749  50.8718030  88.5103215
  25.3335886  42.4641131  80.5996563  24.4033474  42.4025587  80.8166525
  25.4293358  41.9417084  79.8033204  25.2521435  38.9895944  83.1874805
  25.5128253  39.9041277  83.0783965  26.0738608  38.5220386  83.3371417
  26.7246361  40.4033701  90.3573629  27.3969414  40.1951063  89.7086278
  25.8976147  40.2055787  89.9178861  40.9735622  47.1437751  89.8748963
  41.1671512  48.0483562  90.1208238  40.8736240  46.6845170  90.7087548
  32.6271933  37.0295642  92.3739290  31.9799848  37.7285592  92.2803766
  33.3972948  37.4631786  92.7415538  36.0350731  47.2944494  95.4489843
  35.8836237  47.0655046  94.5319927  36.0255410  48.2515096  95.4621188
  32.8036067  44.8676407  90.4336110  33.7328127  45.0187567  90.2605077
  32.3827097  44.9560428  89.5784756  31.6024399  48.8927071  88.2034647
  31.4635485  48.5245856  89.0760585  30.8138995  49.4074711  88.0318605
  32.1972551  53.9936168  79.5460184  32.3724307  53.5224211  80.3605806
  31.5105339  54.6201934  79.7741445  33.1529614  48.2708674  85.5923485
  32.8179447  48.2309444  86.4881135  32.6533560  47.6053390  85.1193895
  27.1273858  43.6776304  91.1176066  26.9893656  42.9456543  91.7187605
  28.0378781  43.5885204  90.8360254  36.0888806  45.6164708  75.8660545
  35.4717976  44.8911537  75.7693597  35.6205294  46.3774069  75.5227619
  29.7556159  43.3896263  90.6059746  30.4655777  42.7489456  90.5646364
  29.7125467  43.6409158  91.5285927  37.7442937  50.3263617  93.5266325
  37.6855483  49.6422837  92.8596908  38.1462456  51.0682607  93.0746951
  28.4685093  40.3761481  92.4255385  27.9322450  39.9252220  93.0776982
  27.8801801  40.5107390  91.6825850  26.7633636  57.1425531  86.3200044
  27.0030234  57.7744055  86.9979063  25.9202833  56.7913571  86.6065403
  27.8787352  39.8350133  74.9881849  27.0016818  39.7138933  74.6244096
  28.3545105  39.0436211  74.7360738  37.7460345  48.2903201  91.7580305
  36.8587123  47.9529122  91.8806704  38.3158896  47.5586232  91.9949070
  19.3989492  44.6227292  85.0823356  20.0860532  44.3089022  84.4944371
  19.2437620  45.5268657  84.8090608  24.2024214  39.5117489  89.5108380
  24.1182403  38.9043159  88.7758790  23.3806920  40.0026507  89.5117876
  31.2761498  52.9504653  88.7241548  31.2031669  53.7559624  89.2360852
  30.8338891  53.1496619  87.8989569  31.0651278  52.1876423  82.2344369
  30.2818800  52.7298103  82.3282594  31.7644023  52.7050403  82.6338611
  34.3747928  37.9971052  84.8778575  34.8716627  37.2441015  84.5579645
  33.6034909  38.0335369  84.3121784  42.2277685  43.7011418  86.5196866
  42.2167561  44.5836133  86.1490799  41.3595065  43.3482969  86.3251403
  33.7360182  52.8491487  90.8799707  34.4488154  53.4838952  90.8075608
  33.2450210  52.9455353  90.0639708  35.4577708  46.7542740  82.4516998
  34.5233987  46.8744202  82.2821703  35.6354377  45.8515206  82.1877008
  30.9582896  40.1388435  84.6050259  30.5880684  39.5859476  85.2931165
  31.4541989  39.5346569  84.0525260  38.8450260  42.5960059  82.9867032
  39.3110712  43.4288051  82.9127335  39.2957760  42.1305041  83.6912291
  28.7872095  50.5985930  91.7005277  29.4881555  51.2322413  91.8534672
  28.3167210  50.9400662  90.9400917  36.9126491  48.9403880  79.9853184
  37.1886335  48.8260475  80.8947059  36.0430990  48.5421365  79.9465358
  36.8166923  34.9640646  87.0257934  35.9030002  35.1944873  87.1940141
  37.2460024  35.0479090  87.8771966  36.5873381  43.1530538  89.5257828
  35.9344831  43.4006445  88.8710281  36.9653761  42.3394676  89.1920305
  33.5480555  53.1890231  83.6285998  33.7302949  52.3711887  84.0913750
  34.3713541  53.4057923  83.1910888  33.8822720  52.1158416  80.8901047
  34.4110487  51.6050871  80.2771209  34.1450940  51.8000946  81.7546580
  32.6360954  43.8950349  96.0123865  31.9601591  43.7944478  96.6826240
  33.4588588  43.7389563  96.4759862  24.3839813  50.1322286  88.6336380
  24.9693250  49.3865973  88.7664284  24.1864652  50.4426242  89.5173044
  27.2378468  53.1673533  83.6498822  26.5688844  53.6519661  83.1662863
  27.0991338  53.4142753  84.5642201  18.9757468  42.7027886  87.3540823
  19.0141567  42.1691476  88.1477941  18.4697761  42.1763091  86.7351800
  31.3783737  55.2017276  90.2481481  31.9302045  55.3648898  91.0130566
  31.7189930  55.7921714  89.5761506  26.3548230  37.5492426  90.8503366
  26.4189557  38.4107257  90.4380763  26.2915350  36.9366428  90.1175724
  25.8300503  39.6215559  94.4976400  26.4572541  39.2392636  95.1113924
  24.9728422  39.4029761  94.8632092  36.2294611  50.0278534  96.1030135
  36.7734515  50.6408492  95.6085090  35.6481456  50.5858112  96.6197148
  22.6066045  41.4291988  80.4294755  22.9019487  40.5202666  80.3761808
  21.7054081  41.4079727  80.1075757  34.5152124  53.1499252  87.2345163
  34.3903264  52.3488992  86.7256108  35.1731215  53.6445445  86.7459133
  26.1360292  39.5047984  86.4122303  25.4146878  40.1183952  86.2729777
  26.9253548  40.0405749  86.3338949  36.5787033  50.9508272  88.8624713
  35.6317368  50.8313623  88.7903040  36.9269806  50.0630770  88.9450975
  28.9386606  36.8402411  92.6862955  29.4621008  37.0864708  93.4489264
  28.7198939  37.6722446  92.2666092  24.3353887  39.1106086  80.5534080
  24.0066593  38.2303464  80.3709186  24.6893258  39.0553754  81.4410469
  33.5833466  50.7460988  85.0629065  33.4358428  49.8177696  85.2436635
  34.4086959  50.7681079  84.5786141  27.4495710  39.3979055  80.9209557
  27.7891783  39.9264977  80.1988166  27.8967831  39.7359461  81.6968124
  37.1867588  51.5689547  86.1493938  38.1114135  51.3632408  86.0118389
  37.0182891  51.3205948  87.0583280  30.1439151  37.7816106  90.3712626
  29.8035971  36.9823919  90.7733305  29.4378157  38.0817817  89.7989459
  30.7955623  34.8665418  88.8239949  31.6181692  34.3925897  88.7018839
  31.0393686  35.6455902  89.3238635  29.4363857  37.8953677  79.1202850
  30.1572220  38.2734930  78.6166567  28.8129161  38.6142554  79.2237828
  33.5794980  38.5998826  80.0561183  33.7958595  39.4823464  79.7550011
  33.0989047  38.2085039  79.3266825  28.3194202  41.5584539  86.6331927
  28.1738782  41.8724842  87.5256209  27.8419405  42.1769439  86.0802826
  30.1790584  38.5487087  86.6812817  30.1652153  37.6528180  86.3445115
  30.8963013  38.5557751  87.3151103  32.0316715  38.9824427  88.7265944
  31.7734493  39.9041498  88.7250275  31.5001756  38.5854862  89.4166408
  36.9762904  52.0875214  81.5056030  37.1499781  51.5221637  80.7529882
  37.4691795  52.8876109  81.3235519  22.7939864  44.0989884  89.5719588
  22.2493332  44.8749692  89.7039863  23.6719214  44.4460688  89.4138710
  29.5827480  37.4301467  81.9500387  29.7043392  36.5018114  82.1491274
  29.2929523  37.4440153  81.0378702  32.4518671  35.1156378  85.0867107
  32.4740368  35.1795711  84.1319086  32.8686730  34.2760886  85.2807613
  42.8302295  44.8511637  83.1246329  43.2733441  44.1018963  82.7265453
  41.9528805  44.8421774  82.7420061  37.9638076  51.4041979  78.6052928
  38.6588981  52.0248672  78.8240242  38.3061227  50.5537330  78.8805306
  23.5805886  43.2259780  92.4649745  22.8387622  43.3742415  93.0514376
  23.2598630  43.4868045  91.6016495  39.8629500  48.8541684  80.1340259
  40.3880824  49.1928957  79.4089579  39.7751852  47.9188700  79.9503393
  31.5249548  52.7675758  92.2630135  31.8336675  52.5224905  93.1352835
  32.3225030  52.9722397  91.7749005  31.5470160  54.9213668  84.4935512
  31.1075151  54.4290046  85.1868368  32.2978277  54.3786635  84.2527587
  24.0262499  51.1125209  84.4960140  24.8520519  50.8128980  84.1158783
  23.6756551  50.3432831  84.9449928  28.9944032  50.4651677  86.5657813
  28.3724042  49.8022382  86.2660041  29.6648899  50.4912809  85.8831461
  22.2271104  49.0311535  85.4549073  21.3903013  48.6033709  85.2733075
  22.1994750  49.2243978  86.3919865  29.0668560  38.9433465  96.1590319
  29.1156715  39.8195588  95.7768089  29.6091074  38.4010858  95.5861963
  39.5523406  49.4874588  95.4391457  38.7618949  49.4698727  94.8995956
  39.3156760  50.0262882  96.1940493  39.6721281  46.3367054  92.7524185
  39.7219286  46.1717062  93.6939708  39.5635204  45.4694313  92.3622066
  28.5557539  49.0155600  80.0416274  28.7045660  49.6991064  79.3882947
  29.3623983  48.9960690  80.5565730  36.9625043  42.3197982  94.0683492
  37.8634906  42.1804447  93.7767490  37.0373018  42.4852437  95.0081669
  31.2967848  39.6964837  92.9136678  30.4271158  39.9898403  92.6419267
  31.5327329  40.2805282  93.6343942  41.1739477  48.7563996  92.9966207
  40.8824286  49.1193976  93.8329668  40.5611609  48.0431004  92.8179539
  42.3735160  46.3216876  85.5168777  43.2082051  46.7606680  85.6806337
  42.5094289  45.8455529  84.6977023  39.4226666  43.8796611  91.4646265
  39.8980787  44.0724257  90.6565116  38.4992231  43.9355796  91.2189648
  26.3110172  45.0420778  81.0477343  26.0656214  44.1383108  81.2457553
  26.4806087  45.0437928  80.1056821  34.0006882  35.9144454  90.4302099
  34.5188826  36.6505481  90.1048587  33.6462015  36.2208447  91.2648858
  25.5805820  40.7749135  78.5463504  24.8875065  40.8493490  77.8903540
  25.3357572  40.0109479  79.0685021  34.2519476  32.3344737  85.9502995
  34.5321230  31.6667926  86.5763422  35.0370083  32.5273832  85.4377659
  32.0552945  51.5103731  77.5128021  31.4826912  52.1293918  77.0598493
  32.6285739  52.0603092  78.0467943  38.1228335  40.7562371  89.6974570
  39.0745758  40.8560468  89.7186794  37.9531785  39.9640639  90.2072655
  36.1442714  37.8417954  89.8833971  35.5492646  38.1222967  89.1880460
  35.8592411  38.3311855  90.6550712  35.2750205  51.7940881  78.6436604
  36.2080878  51.7286442  78.8469479  35.1873417  52.6297148  78.1851136
  37.9038221  51.1106751  75.6040551  37.8251853  50.7766615  76.4976309
  38.7247888  51.6028519  75.6032024  40.6016413  43.9768490  88.8116870
  40.5692733  43.0384491  88.9976554  41.2117036  44.0552527  88.0782695
  32.4399743  42.8464543  74.8544074  33.3858848  42.7170751  74.9232492
  32.0613988  42.1079205  75.3313502  40.7510901  40.7679534  88.8575153
  40.2349950  39.9837990  88.6705082  41.6350850  40.4398250  89.0221673
  38.4121628  34.5120549  84.8170966  38.2146449  34.2035638  85.7014298
  39.0221333  35.2382188  84.9468896  46.4192962  45.0384497  87.9522907
  47.1496351  44.7769785  88.5130610  45.8099908  44.3013219  87.9924975
  44.5008259  43.1792360  88.5497358  43.7741423  43.0448325  87.9413849
  44.0855546  43.4869188  89.3554076  32.3238436  46.8982289  96.3144731
  33.2441445  47.0760888  96.5084777  32.2888019  45.9538335  96.1624430
  30.6242661  40.7714520  74.7898959  29.7174116  40.4747632  74.8661673
  30.9018642  40.4744338  73.9233245  21.5420601  42.0920883  85.2398006
  21.2223385  41.2386191  84.9472380  20.9954029  42.3069461  85.9955973
  25.3200508  44.8083324  88.9567512  25.5386518  45.7400432  88.9755546
  25.7326282  44.4491298  89.7422316  32.2404726  35.3151409  80.9443200
  31.4305455  34.9698494  81.3198446  32.9289143  35.0058953  81.5330812
  34.1695275  34.3929456  82.5667497  34.7226313  34.8124910  83.2257520
  34.4065361  33.4665204  82.6090453  30.1928374  40.3816530  98.3470261
  30.0925101  41.3310887  98.2782352  29.9749916  40.0534769  97.4746331
  29.3941445  37.6301455  74.9310938  30.2560609  37.9556353  75.1906756
  29.5791789  36.8432951  74.4184004  21.4108861  45.7123795  87.2091127
  20.7172332  45.2977747  86.6961082  22.1581852  45.7544331  86.6124546
  37.5474082  36.5029981  82.0746161  36.9672751  37.1614785  81.6924214
  37.2810014  35.6807326  81.6633579  35.9977648  35.9035039  84.2767482
  36.4977426  36.0151574  83.4681800  36.6413256  35.5996092  84.9168290
  30.0559644  43.8113669  97.1635323  29.5726726  44.6114029  97.3699212
  30.1420583  43.8221614  96.2102767  23.3245603  45.6442048  85.0857142
  23.3016292  45.7429736  84.1339025  23.6346240  46.4907199  85.4074308
  25.9832981  47.7018203  89.2003756  26.9376235  47.6702146  89.1333688
  25.7845505  47.2408827  90.0153982  26.5732363  46.2719319  91.7674554
  27.3925252  46.7663398  91.7909391  26.8469171  45.3551288  91.7392122
  36.3298960  38.6630072  81.1302510  35.4424815  38.9479722  80.9122704
  36.7452949  38.5023835  80.2829786  39.6813496  38.6876593  84.8456849
  40.4573886  39.1773045  85.1181466  38.9561630  39.1134647  85.3028718
  42.1186054  39.4004212  85.9030789  42.7130545  39.1599948  85.1924098
  42.1912638  38.6811343  86.5304326  24.3383210  53.2437823  86.2173954
  24.2037678  52.4838224  85.6511952  23.9215272  53.9678723  85.7502743
  35.4742173  48.4274746  75.2250530  36.1778023  48.6324749  75.8408185
  34.7504822  48.9951508  75.4899613  36.3039983  44.1784608  81.3452800
  36.2475185  44.6353159  80.5060432  36.8568326  43.4175292  81.1675642
  40.1144789  39.9674340  82.1702919  39.8581724  39.5670975  83.0011127
  39.4897657  40.6818133  82.0453058  44.4257127  42.7070413  84.6774211
  43.8656685  42.7763602  85.4505773  43.8200631  42.5311397  83.9573707
  27.4952336  54.1407140  86.4292397  27.3784720  55.0852572  86.3271087
  26.6744782  53.8380701  86.8178196  37.3828871  48.8657276  77.2748990
  38.2174474  48.4338474  77.0926464  37.2213213  48.6939289  78.2025884
  37.0374763  45.3689389  78.6405329  36.9823566  45.2033660  77.6993773
  36.4120818  46.0765422  78.7967519  21.8267278  40.6057453  92.4666751
  22.4726141  40.0956407  92.9553976  21.6184429  41.3426135  93.0410176
  34.3520670  47.6738301  97.9658892  35.2211830  47.8478953  97.6045527
  33.8727421  48.4932718  97.8434621  30.3470888  34.8697498  78.2190647
  30.3349558  35.8139338  78.3758918  31.2394310  34.6867643  77.9250109
  28.5206850  54.7935402  89.6448325  29.4234097  54.8259012  89.9614820
  28.2944220  53.8635853  89.6594661  30.2760452  53.5466388  86.3058404
  29.3256083  53.5468250  86.1922776  30.5792938  52.7999123  85.7894439
  34.1623008  31.4640275  82.4736584  33.3955403  30.9098761  82.6193266
  34.5733713  31.5362143  83.3350736  26.1664769  37.7525070  96.5641765
  27.0296230  37.3961875  96.7745090  25.5930179  37.4138965  97.2517170
  46.0113146  59.3826927  87.3704166  46.6491556  59.2633674  86.6667506
  45.8933988  60.3307771  87.4292119  42.8202852  59.3354355  87.3065691
  42.4821363  59.2195420  86.4186226  43.6892620  58.9345520  87.2866697
  38.6789668  61.1889831  83.2962582  38.1154533  61.0979768  82.5278870
  38.5642063  60.3689736  83.7765075  43.3022635  60.4889207  93.2651897
  43.2911276  60.0942005  92.3932400  43.4643274  59.7555279  93.8585668
  36.2254100  62.6841023  86.1346802  37.0175391  62.3431847  85.7193102
  36.4650750  62.7935998  87.0548956  44.2589226  64.8560799  78.6077047
  43.6077206  65.4414879  78.2211061  45.0533589  65.3866994  78.6672084
  38.1844853  61.9449936  79.0064181  38.9575729  61.3978923  78.8677057
  38.5370252  62.8094185  79.2178643  40.0229896  63.2726318  92.2131081
  39.7319762  64.1771949  92.0977747  40.6586880  63.3142846  92.9275150
  40.9486103  60.6503167  88.8032440  41.5449675  60.4259189  88.0889403
  41.0061074  59.9087912  89.4057888  40.5211131  58.1042602  76.6382631
  40.7736652  57.5824123  75.8766094  39.5835690  57.9408748  76.7409315
  45.5654414  57.1078381  84.4457374  46.3517503  56.6897804  84.0947791
  45.8293118  58.0124473  84.6139023  45.7364491  62.5451231  79.1446031
  45.1010324  62.6185857  79.8566936  45.4061898  63.1344830  78.4665110
  50.9662841  57.0453614  85.3490353  51.6988013  56.4752831  85.5828182
  50.2102197  56.6575214  85.7896858  40.2407420  60.0070708  78.8407006
  40.1243678  59.3315612  79.5088090  40.3509680  59.5203082  78.0239159
  42.5838961  59.4680855  82.5453695  42.2197168  58.9411476  83.2566617
  43.4406077  59.0779324  82.3720181  48.4888262  50.7575188  89.8084962
  48.1571586  51.6270599  89.5846176  47.8933875  50.4411472  90.4878992
  42.2244448  54.4970755  77.5415044  42.3918850  55.3650991  77.9085515
  42.0341617  54.6598037  76.6176333  44.9819781  62.9587734  89.2080874
  44.6820504  63.8612773  89.0996681  44.6370841  62.6919917  90.0602027
  38.4332263  59.4101531  85.2417579  37.5082759  59.2777745  85.4495270
  38.6816676  60.1895750  85.7387521  48.3816925  55.4770274  86.8878312
  47.4733802  55.4085682  86.5937073  48.3304521  55.9542219  87.7160137
  42.2033669  56.9528412  78.5261711  42.0833294  57.3985463  79.3647191
  41.5086257  57.3013730  77.9675249  35.7941074  59.0534804  86.0761368
  35.9233455  59.3069283  86.9900779  35.1138525  59.6462512  85.7566023
  39.9640561  69.7232054  82.1751842  39.8864591  70.6739879  82.2540323
  39.3602204  69.3777927  82.8326768  42.4557791  56.8959920  94.8313209
  41.6791125  57.4553840  94.8216073  43.0948354  57.3816703  95.3528079
  50.2478571  53.6786712  88.6656185  49.6052952  53.9719246  88.0195980
  49.7433500  53.5639633  89.4709382  47.9018735  57.4249886  79.3542045
  48.8136591  57.6577272  79.1789742  47.3928382  58.0086930  78.7917123
  40.7104163  59.7045373  94.3931176  41.4518847  60.2430417  94.1165999
  40.0041148  60.3311662  94.5502728  46.1859503  61.8474513  92.9903337
  46.5942859  61.4056924  92.2457970  45.4636764  61.2727141  93.2437530
  42.5390573  56.7847120  90.3636894  43.3851768  57.2086534  90.5071543
  42.4789210  56.1280745  91.0575457  46.5088317  62.4075704  86.7455626
  45.8797180  62.5721418  86.0431694  46.1213979  62.8217314  87.5166590
  50.3877549  63.3430142  84.0999990  49.7028587  63.7229043  83.5497023
  50.4721398  63.9525469  84.8331938  45.6890018  54.4451489  92.0218068
  45.4450950  55.1993549  91.4852344  45.9649949  54.8236836  92.8565315
  47.6428481  60.9890101  90.6995333  47.8545376  61.6321861  90.0229715
  47.5958229  60.1552418  90.2317264  45.2454710  53.6007922  87.6031906
  44.3839189  53.8989175  87.8948643  45.2717144  53.8178321  86.6712938
  42.0616279  62.1450112  84.0105711  42.5254625  62.4237815  83.2210334
  41.7973077  61.2433557  83.8278802  38.9540360  61.6921594  86.9485475
  39.5241717  62.1208862  86.3102959  39.5448472  61.4104178  87.6469660
  40.9985165  58.2673265  80.8195276  41.7009209  58.7194308  81.2869203
  40.6665794  57.6257083  81.4475170  39.4465527  56.8585021  95.1946486
  38.8164187  57.5401302  95.4281883  39.3401615  56.7468103  94.2499624
  34.7410499  56.5256817  86.1212410  33.9509553  56.7814346  85.6452521
  35.2321747  57.3405155  86.2264451  48.7574309  63.8662056  88.8717691
  49.5791752  63.4642244  88.5900372  48.7536712  63.7630291  89.8233807
  36.6925245  56.8901396  83.0795887  35.8956408  57.0020091  83.5979382
  36.4650837  57.2288049  82.2136777  42.5230912  63.4146100  91.0278401
  42.5875345  63.8766507  91.8636573  41.8141836  62.7843465  91.1560711
  33.0248202  56.7787308  88.5527401  33.2756241  57.6634318  88.8184977
  33.5607751  56.5991909  87.7802493  56.8480302  60.2100805  85.2202662
  56.0944010  59.6408203  85.0646667  56.9827843  60.1763469  86.1673297
  42.2378930  65.0814207  80.8957382  42.1024605  65.9265743  81.3242229
  42.7788742  65.2833485  80.1323315  38.7246269  51.1605787  97.5571737
  38.3313215  50.6071986  98.2319381  39.5412410  51.4716366  97.9478254
  35.6908327  62.5989645  81.4685307  36.2032848  63.3932895  81.6190871
  36.3431040  61.9015936  81.4018908  37.5003212  65.7155402  83.5508060
  37.6769840  66.6373366  83.3629044  38.2960045  65.4013821  83.9802440
  41.6414230  52.5763666  95.1491993  42.3823944  53.1770819  95.0696456
  41.8732153  51.8341304  94.5910036  36.7855568  57.7620033  93.4270223
  36.6709084  56.8605291  93.7277322  35.9300086  58.0083730  93.0755040
  43.8647406  65.7037774  95.0257724  43.4211260  64.9174152  94.7078628
  44.5264620  65.8916924  94.3601615  38.6234527  67.2333575  89.5518402
  39.1741952  67.1050639  88.7795396  37.7846003  67.5328464  89.2013295
  45.9628644  65.9840574  93.0539125  45.9447120  66.8049455  92.5619394
  46.8848564  65.8594649  93.2789266  42.4201698  63.4984703  93.8962633
  42.9530035  62.7372991  93.6661941  41.8915780  63.2058355  94.6386788
  45.5871393  48.6044769  89.4256275  45.2435663  49.4946411  89.3495386
  45.9550356  48.4146427  88.5625860  33.6557244  60.9278300  82.2444877
  34.4932466  61.3375308  82.0278585  33.8335512  59.9877742  82.2145071
  45.5521676  58.5953380  77.9328710  45.0368300  59.3657985  78.1717098
  45.2798985  57.9218516  78.5561772  43.1368787  53.4403081  82.9913949
  42.2810383  53.0509931  82.8119587  43.5495739  53.5195042  82.1313734
  44.6667934  50.9749424  87.3905508  44.1632729  50.9379559  86.5773314
  44.9598541  51.8842167  87.4502165  40.9110820  51.0588154  86.3971690
  41.7763816  50.8630963  86.0377580  40.9788329  50.8298506  87.3241047
  50.5255950  61.3485735  79.8681884  49.7485393  61.0096894  79.4237046
  51.2047431  61.3538358  79.1936849  45.3407979  56.4680472  79.7588491
  45.0358115  56.7826621  80.6098635  46.2938421  56.5461892  79.8015824
  43.7854411  62.6270696  81.4081445  43.2575773  61.8923455  81.0954683
  43.2841914  63.4045372  81.1621414  48.7647257  60.8219716  86.5248492
  48.1070932  61.5118977  86.6128620  49.5687656  61.2116148  86.8682478
  38.5173139  53.2890362  83.7688057  39.0916891  53.0665543  83.0361250
  39.1044121  53.3579056  84.5216658  47.5752716  59.1764089  84.5752433
  48.0884598  59.8094081  85.0774143  48.2253940  58.5765284  84.2095793
  38.8442726  55.3194823  77.7883942  38.0080038  55.6569509  78.1093217
  38.7047495  55.1843803  76.8511079  40.8195806  50.1631611  82.4963126
  40.1660219  49.8480628  81.8719741  40.7776281  49.5407351  83.2222949
  41.9307011  60.4450906  74.4116418  41.0234073  60.2140159  74.6107567
  42.4278043  59.6488525  74.5990400  44.8375090  69.1548413  77.3313105
  44.1636789  69.4580110  77.9398062  45.2240912  69.9577493  76.9818562
  44.0533547  56.6513544  86.8210774  43.1356108  56.8728491  86.6632462
  44.4693690  56.7259855  85.9622481  44.8368595  58.0504960  81.9513454
  45.5840414  58.5626357  81.6420576  45.1060184  57.7289013  82.8117848
  43.1095245  60.5463501  78.9340409  42.2006464  60.2622534  79.0312878
  43.1390329  60.9662579  78.0743715  48.3414512  64.1570090  82.7031576
  47.8876839  63.3161000  82.7596767  47.7108479  64.7931489  83.0406356
  47.2847432  55.0862076  83.9332244  46.5470189  54.5739462  84.2642486
  47.5374205  54.6462458  83.1215520  46.7847451  65.9946587  83.6381394
  47.0770426  66.5551644  82.9193760  47.2946072  66.2875148  84.3934553
  47.3859059  47.8638328  84.5274013  47.6917936  47.0035692  84.2399928
  48.1111664  48.4555948  84.3273007  33.6783415  58.2669015  82.9155611
  33.4807815  57.6738376  82.1906677  33.1230079  57.9621225  83.6331550
  41.6580139  58.1592121  85.0350204  41.7128749  57.2065958  84.9592680
  40.8471341  58.3151560  85.5191502  42.8071333  62.0872244  76.2728487
  42.3690762  61.3708103  75.8134124  43.5481773  62.3148359  75.7113578
  39.5972499  56.7769181  82.7940583  38.7840364  57.0763352  83.2005775
  40.0931493  56.3824870  83.5115065  41.7481077  66.7726938  84.7274847
  41.7057255  66.9987784  83.7983379  42.6643775  66.5390313  84.8760649
  45.1946710  57.2411006  91.6255477  45.5496098  57.4682479  92.4849942
  45.8418842  57.5729382  91.0032732  50.9244447  60.3629441  82.3304806
  50.7862346  60.5531037  81.4025995  50.5680666  61.1248824  82.7872857
  39.0886573  54.3487537  88.4101818  39.7285953  54.2076296  87.7124781
  38.2564104  54.0622050  88.0340420  50.9513827  62.4305968  87.3416077
  51.3850334  62.3381258  88.1899131  51.6645408  62.4063469  86.7036093
  39.8646877  63.6489967  84.5236810  40.6587476  63.1540287  84.3219385
  39.1538570  63.1207830  84.1604516  44.6841722  66.0308063  88.8749178
  44.7378744  66.5998999  89.6426894  43.8156503  66.2009948  88.5103215
  36.1729641  57.7933049  80.5996563  35.2427229  57.7317504  80.8166525
  36.2687113  57.2709002  79.8033204  36.0915190  54.3187862  83.1874805
  36.3522007  55.2333195  83.0783965  36.9132362  53.8512304  83.3371417
  37.5640115  55.7325619  90.3573629  38.2363169  55.5242981  89.7086278
  36.7369902  55.5347705  89.9178861  51.8129377  62.4729669  89.8748963
  52.0065267  63.3775480  90.1208238  51.7129995  62.0137088  90.7087548
  43.4665687  52.3587560  92.3739290  42.8193602  53.0577509  92.2803766
  44.2366703  52.7923704  92.7415538  46.8744485  62.6236412  95.4489843
  46.7229992  62.3946964  94.5319927  46.8649165  63.5807013  95.4621188
  43.6429822  60.1968325  90.4336110  44.5721882  60.3479484  90.2605077
  43.2220852  60.2852345  89.5784756  42.4418153  64.2218989  88.2034647
  42.3029239  63.8537773  89.0760585  41.6532750  64.7366628  88.0318605
  43.0366305  69.3228085  79.5460184  43.2118061  68.8516129  80.3605806
  42.3499093  69.9493852  79.7741445  43.9923369  63.6000592  85.5923485
  43.6573201  63.5601362  86.4881135  43.4927314  62.9345308  85.1193895
  37.9667612  59.0068222  91.1176066  37.8287410  58.2748461  91.7187605
  38.8772536  58.9177122  90.8360254  46.9282560  60.9456626  75.8660545
  46.3111731  60.2203454  75.7693597  46.4599049  61.7065986  75.5227619
  40.5949913  58.7188181  90.6059746  41.3049532  58.0781373  90.5646364
  40.5519221  58.9701076  91.5285927  48.5836692  65.6555534  93.5266325
  48.5249238  64.9714755  92.8596908  48.9856210  66.3974524  93.0746951
  39.3078847  55.7053399  92.4255385  38.7716204  55.2544137  93.0776982
  38.7195556  55.8399308  91.6825850  37.6027391  72.4717448  86.3200044
  37.8423989  73.1035972  86.9979063  36.7596587  72.1205488  86.6065403
  38.7181106  55.1642050  74.9881849  37.8410572  55.0430851  74.6244096
  39.1938859  54.3728129  74.7360738  48.5854099  63.6195118  91.7580305
  47.6980878  63.2821040  91.8806704  49.1552650  62.8878150  91.9949070
  30.2383246  59.9519210  85.0823356  30.9254286  59.6380940  84.4944371
  30.0831375  60.8560575  84.8090608  35.0417968  54.8409407  89.5108380
  34.9576157  54.2335076  88.7758790  34.2200675  55.3318425  89.5117876
  42.1155252  68.2796571  88.7241548  42.0425424  69.0851542  89.2360852
  41.6732646  68.4788536  87.8989569  41.9045032  67.5168341  82.2344369
  41.1212554  68.0590021  82.3282594  42.6037777  68.0342320  82.6338611
  45.2141682  53.3262970  84.8778575  45.7110382  52.5732932  84.5579645
  44.4428664  53.3627287  84.3121784  53.0671440  59.0303336  86.5196866
  53.0561316  59.9128051  86.1490799  52.1988819  58.6774887  86.3251403
  44.5753936  68.1783405  90.8799707  45.2881908  68.8130870  90.8075608
  44.0843965  68.2747271  90.0639708  46.2971463  62.0834657  82.4516998
  45.3627742  62.2036120  82.2821703  46.4748131  61.1807124  82.1877008
  41.7976651  55.4680353  84.6050259  41.4274438  54.9151394  85.2931165
  42.2935743  54.8638487  84.0525260  49.6844014  57.9251977  82.9867032
  50.1504466  58.7579968  82.9127335  50.1351515  57.4596958  83.6912291
  39.6265850  65.9277848  91.7005277  40.3275309  66.5614331  91.8534672
  39.1560965  66.2692580  90.9400917  47.7520245  64.2695798  79.9853184
  48.0280089  64.1552393  80.8947059  46.8824744  63.8713283  79.9465358
  47.6560677  50.2932564  87.0257934  46.7423757  50.5236790  87.1940141
  48.0853778  50.3771008  87.8771966  47.4267136  58.4822456  89.5257828
  46.7738586  58.7298363  88.8710281  47.8047515  57.6686594  89.1920305
  44.3874309  68.5182149  83.6285998  44.5696704  67.7003805  84.0913750
  45.2107295  68.7349841  83.1910888  44.7216475  67.4450334  80.8901047
  45.2504241  66.9342789  80.2771209  44.9844694  67.1292864  81.7546580
  43.4754709  59.2242267  96.0123865  42.7995346  59.1236396  96.6826240
  44.2982342  59.0681480  96.4759862  35.2233568  65.4614203  88.6336380
  35.8087004  64.7157891  88.7664284  35.0258406  65.7718160  89.5173044
  38.0772223  68.4965451  83.6498822  37.4082598  68.9811578  83.1662863
  37.9385093  68.7434671  84.5642201  29.8151222  58.0319803  87.3540823
  29.8535322  57.4983394  88.1477941  29.3091515  57.5055009  86.7351800
  42.2177491  70.5309194  90.2481481  42.7695799  70.6940816  91.0130566
  42.5583685  71.1213632  89.5761506  37.1941985  52.8784344  90.8503366
  37.2583311  53.7399175  90.4380763  37.1309105  52.2658346  90.1175724
  36.6694257  54.9507476  94.4976400  37.2966296  54.5684554  95.1113924
  35.8122176  54.7321678  94.8632092  47.0688366  65.3570452  96.1030135
  47.6128270  65.9700410  95.6085090  46.4875211  65.9150030  96.6197148
  33.4459800  56.7583906  80.4294755  33.7413241  55.8494584  80.3761808
  32.5447836  56.7371645  80.1075757  45.3545879  68.4791170  87.2345163
  45.2297018  67.6780909  86.7256108  46.0124970  68.9737363  86.7459133
  36.9754047  54.8339902  86.4122303  36.2540633  55.4475870  86.2729777
  37.7647303  55.3697667  86.3338949  47.4180787  66.2800190  88.8624713
  46.4711123  66.1605541  88.7903040  47.7663560  65.3922688  88.9450975
  39.7780360  52.1694329  92.6862955  40.3014762  52.4156625  93.4489264
  39.5592694  53.0014363  92.2666092  35.1747642  54.4398003  80.5534080
  34.8460348  53.5595382  80.3709186  35.5287012  54.3845672  81.4410469
  44.4227220  66.0752906  85.0629065  44.2752183  65.1469613  85.2436635
  45.2480714  66.0972997  84.5786141  38.2889465  54.7270973  80.9209557
  38.6285537  55.2556894  80.1988166  38.7361585  55.0651379  81.6968124
  48.0261342  66.8981465  86.1493938  48.9507890  66.6924326  86.0118389
  47.8576646  66.6497866  87.0583280  40.9832905  53.1108024  90.3712626
  40.6429726  52.3115837  90.7733305  40.2771912  53.4109735  89.7989459
  41.6349377  50.1957336  88.8239949  42.4575447  49.7217814  88.7018839
  41.8787441  50.9747820  89.3238635  40.2757612  53.2245595  79.1202850
  40.9965974  53.6026847  78.6166567  39.6522916  53.9434471  79.2237828
  44.4188735  53.9290744  80.0561183  44.6352349  54.8115381  79.7550011
  43.9382802  53.5376957  79.3266825  39.1587956  56.8876457  86.6331927
  39.0132537  57.2016760  87.5256209  38.6813160  57.5061357  86.0802826
  41.0184339  53.8779005  86.6812817  41.0045908  52.9820098  86.3445115
  41.7356767  53.8849669  87.3151103  42.8710470  54.3116345  88.7265944
  42.6128247  55.2333416  88.7250275  42.3395510  53.9146780  89.4166408
  47.8156658  67.4167132  81.5056030  47.9893536  66.8513555  80.7529882
  48.3085550  68.2168027  81.3235519  33.6333618  59.4281801  89.5719588
  33.0887086  60.2041609  89.7039863  34.5112968  59.7752606  89.4138710
  40.4221235  52.7593385  81.9500387  40.5437146  51.8310031  82.1491274
  40.1323277  52.7732071  81.0378702  43.2912425  50.4448296  85.0867107
  43.3134122  50.5087629  84.1319086  43.7080484  49.6052804  85.2807613
  53.6696050  60.1803555  83.1246329  54.1127196  59.4310880  82.7265453
  52.7922560  60.1713691  82.7420061  48.8031831  66.7333897  78.6052928
  49.4982736  67.3540589  78.8240242  49.1454981  65.8829248  78.8805306
  34.4199640  58.5551697  92.4649745  33.6781376  58.7034333  93.0514376
  34.0992384  58.8159963  91.6016495  50.7023254  64.1833602  80.1340259
  51.2274578  64.5220875  79.4089579  50.6145607  63.2480617  79.9503393
  42.3643303  68.0967676  92.2630135  42.6730429  67.8516822  93.1352835
  43.1618785  68.3014314  91.7749005  42.3863915  70.2505585  84.4935512
  41.9468905  69.7581964  85.1868368  43.1372032  69.7078553  84.2527587
  34.8656254  66.4417126  84.4960140  35.6914274  66.1420898  84.1158783
  34.5150306  65.6724749  84.9449928  39.8337787  65.7943594  86.5657813
  39.2117796  65.1314299  86.2660041  40.5042654  65.8204726  85.8831461
  33.0664859  64.3603453  85.4549073  32.2296767  63.9325627  85.2733075
  33.0388504  64.5535896  86.3919865  39.9062314  54.2725382  96.1590319
  39.9550470  55.1487505  95.7768089  40.4484829  53.7302776  95.5861963
  50.3917160  64.8166506  95.4391457  49.6012704  64.7990645  94.8995956
  50.1550515  65.3554799  96.1940493  50.5115035  61.6658972  92.7524185
  50.5613040  61.5008980  93.6939708  50.4028958  60.7986231  92.3622066
  39.3951294  64.3447518  80.0416274  39.5439414  65.0282982  79.3882947
  40.2017737  64.3252608  80.5565730  47.8018798  57.6489900  94.0683492
  48.7028660  57.5096365  93.7767490  47.8766772  57.8144355  95.0081669
  42.1361603  55.0256755  92.9136678  41.2664912  55.3190321  92.6419267
  42.3721083  55.6097200  93.6343942  52.0133232  64.0855914  92.9966207
  51.7218040  64.4485894  93.8329668  51.4005363  63.3722922  92.8179539
  53.2128914  61.6508793  85.5168777  54.0475806  62.0898597  85.6806337
  53.3488043  61.1747447  84.6977023  50.2620420  59.2088528  91.4646265
  50.7374542  59.4016175  90.6565116  49.3385986  59.2647714  91.2189648
  37.1503927  60.3712695  81.0477343  36.9049969  59.4675025  81.2457553
  37.3199841  60.3729846  80.1056821  44.8400637  51.2436372  90.4302099
  45.3582581  51.9797399  90.1048587  44.4855769  51.5500365  91.2648858
  36.4199574  56.1041053  78.5463504  35.7268819  56.1785408  77.8903540
  36.1751326  55.3401397  79.0685021  45.0913231  47.6636654  85.9502995
  45.3714985  46.9959843  86.5763422  45.8763838  47.8565750  85.4377659
  42.8946699  66.8395648  77.5128021  42.3220666  67.4585835  77.0598493
  43.4679493  67.3895010  78.0467943  48.9622089  56.0854288  89.6974570
  49.9139512  56.1852386  89.7186794  48.7925540  55.2932557  90.2072655
  46.9836469  53.1709872  89.8833971  46.3886401  53.4514884  89.1880460
  46.6986165  53.6603772  90.6550712  46.1143959  67.1232798  78.6436604
  47.0474632  67.0578360  78.8469479  46.0267172  67.9589065  78.1851136
  48.7431976  66.4398669  75.6040551  48.6645607  66.1058532  76.4976309
  49.5641643  66.9320437  75.6032024  51.4410167  59.3060408  88.8116870
  51.4086487  58.3676409  88.9976554  52.0510791  59.3844445  88.0782695
  43.2793498  58.1756461  74.8544074  44.2252603  58.0462669  74.9232492
  42.9007743  57.4371123  75.3313502  51.5904655  56.0971451  88.8575153
  51.0743704  55.3129908  88.6705082  52.4744604  55.7690168  89.0221673
  49.2515382  49.8412467  84.8170966  49.0540204  49.5327555  85.7014298
  49.8615088  50.5674106  84.9468896  57.2586717  60.3676415  87.9522907
  57.9890105  60.1061703  88.5130610  56.6493662  59.6305137  87.9924975
  55.3402014  58.5084277  88.5497358  54.6135178  58.3740242  87.9413849
  54.9249301  58.8161106  89.3554076  43.1632190  62.2274207  96.3144731
  44.0835200  62.4052806  96.5084777  43.1281773  61.2830252  96.1624430
  41.4636415  56.1006437  74.7898959  40.5567870  55.8039550  74.8661673
  41.7412396  55.8036255  73.9233245  32.3814355  57.4212801  85.2398006
  32.0617140  56.5678109  84.9472380  31.8347784  57.6361379  85.9955973
  36.1594263  60.1375242  88.9567512  36.3780273  61.0692350  88.9755546
  36.5720037  59.7783216  89.7422316  43.0798481  50.6443327  80.9443200
  42.2699209  50.2990412  81.3198446  43.7682898  50.3350871  81.5330812
  45.0089029  49.7221374  82.5667497  45.5620068  50.1416827  83.2257520
  45.2459115  48.7957122  82.6090453  41.0322128  55.7108448  98.3470261
  40.9318855  56.6602804  98.2782352  40.8143670  55.3826686  97.4746331
  40.2335200  52.9593373  74.9310938  41.0954364  53.2848271  75.1906756
  40.4185544  52.1724868  74.4184004  32.2502615  61.0415712  87.2091127
  31.5566087  60.6269665  86.6961082  32.9975606  61.0836249  86.6124546
  48.3867836  51.8321899  82.0746161  47.8066505  52.4906703  81.6924214
  48.1203769  51.0099244  81.6633579  46.8371402  51.2326957  84.2767482
  47.3371181  51.3443491  83.4681800  47.4807010  50.9288010  84.9168290
  40.8953398  59.1405586  97.1635323  40.4120480  59.9405946  97.3699212
  40.9814337  59.1513531  96.2102767  34.1639358  60.9733966  85.0857142
  34.1410046  61.0721653  84.1339025  34.4739994  61.8199117  85.4074308
  36.8226736  63.0310121  89.2003756  37.7769989  62.9994063  89.1333688
  36.6239259  62.5700745  90.0153982  37.4126118  61.6011237  91.7674554
  38.2319007  62.0955316  91.7909391  37.6862926  60.6843205  91.7392122
  47.1692714  53.9921989  81.1302510  46.2818569  54.2771640  80.9122704
  47.5846703  53.8315753  80.2829786  50.5207250  54.0168510  84.8456849
  51.2967640  54.5064963  85.1181466  49.7955384  54.4426565  85.3028718
  52.9579809  54.7296130  85.9030789  53.5524300  54.4891866  85.1924098
  53.0306393  54.0103260  86.5304326  35.1776965  68.5729741  86.2173954
  35.0431433  67.8130141  85.6511952  34.7609027  69.2970640  85.7502743
  46.3135928  63.7566664  75.2250530  47.0171778  63.9616667  75.8408185
  45.5898576  64.3243426  75.4899613  47.1433738  59.5076525  81.3452800
  47.0868939  59.9645077  80.5060432  47.6962080  58.7467210  81.1675642
  50.9538544  55.2966257  82.1702919  50.6975478  54.8962893  83.0011127
  50.3291412  56.0110051  82.0453058  55.2650882  58.0362330  84.6774211
  54.7050440  58.1055520  85.4505773  54.6594385  57.8603315  83.9573707
  38.3346090  69.4699058  86.4292397  38.2178475  70.4144490  86.3271087
  37.5138537  69.1672619  86.8178196  48.2222625  64.1949193  77.2748990
  49.0568229  63.7630392  77.0926464  48.0606968  64.0231207  78.2025884
  47.8768517  60.6981307  78.6405329  47.8217321  60.5325578  77.6993773
  47.2514572  61.4057340  78.7967519  32.6661032  55.9349371  92.4666751
  33.3119896  55.4248325  92.9553976  32.4578183  56.6718053  93.0410176
  45.1914424  63.0030218  97.9658892  46.0605584  63.1770871  97.6045527
  44.7121176  63.8224635  97.8434621  41.1864643  50.1989416  78.2190647
  41.1743312  51.1431256  78.3758918  42.0788065  50.0159561  77.9250109
  39.3600605  70.1227319  89.6448325  40.2627851  70.1550930  89.9614820
  39.1337975  69.1927770  89.6594661  41.1154207  68.8758306  86.3058404
  40.1649838  68.8760168  86.1922776  41.4186693  68.1291041  85.7894439
  45.0016762  46.7932192  82.4736584  44.2349158  46.2390679  82.6193266
  45.4127467  46.8654061  83.3350736  37.0058523  53.0816988  96.5641765
  37.8689985  52.7253793  96.7745090  36.4323934  52.7430883  97.2517170
  56.8506900  74.7118844  87.3704166  57.4885310  74.5925592  86.6667506
  56.7327743  75.6599688  87.4292119  53.6596606  74.6646273  87.3065691
  53.3215118  74.5487337  86.4186226  54.5286375  74.2637438  87.2866697
  49.5183422  76.5181749  83.2962582  48.9548287  76.4271686  82.5278870
  49.4035817  75.6981653  83.7765075  54.1416389  75.8181124  93.2651897
  54.1305030  75.4233923  92.3932400  54.3037029  75.0847197  93.8585668
  47.0647854  78.0132941  86.1346802  47.8569146  77.6723765  85.7193102
  47.3044504  78.1227916  87.0548956  55.0982981  80.1852717  78.6077047
  54.4470961  80.7706797  78.2211061  55.8927344  80.7158912  78.6672084
  49.0238608  77.2741854  79.0064181  49.7969484  76.7270841  78.8677057
  49.3764007  78.1386103  79.2178643  50.8623651  78.6018236  92.2131081
  50.5713516  79.5063867  92.0977747  51.4980635  78.6434764  92.9275150
  51.7879857  75.9795085  88.8032440  52.3843430  75.7551107  88.0889403
  51.8454829  75.2379830  89.4057888  51.3604886  73.4334520  76.6382631
  51.6130406  72.9116041  75.8766094  50.4229445  73.2700665  76.7409315
  56.4048169  72.4370298  84.4457374  57.1911258  72.0189721  84.0947791
  56.6686873  73.3416390  84.6139023  56.5758246  77.8743149  79.1446031
  55.9404079  77.9477775  79.8566936  56.2455652  78.4636747  78.4665110
  61.8056596  72.3745531  85.3490353  62.5381768  71.8044748  85.5828182
  61.0495951  71.9867132  85.7896858  51.0801175  75.3362626  78.8407006
  50.9637433  74.6607529  79.5088090  51.1903434  74.8495000  78.0239159
  53.4232715  74.7972773  82.5453695  53.0590923  74.2703394  83.2566617
  54.2799831  74.4071242  82.3720181  59.3282016  66.0867106  89.8084962
  58.9965341  66.9562517  89.5846176  58.7327629  65.7703390  90.4878992
  53.0638202  69.8262673  77.5415044  53.2312605  70.6942909  77.9085515
  52.8735371  69.9889954  76.6176333  55.8213536  78.2879652  89.2080874
  55.5214259  79.1904690  89.0996681  55.4764595  78.0211835  90.0602027
  49.2726017  74.7393448  85.2417579  48.3476514  74.6069663  85.4495270
  49.5210430  75.5187668  85.7387521  59.2210679  70.8062192  86.8878312
  58.3127557  70.7377600  86.5937073  59.1698275  71.2834137  87.7160137
  53.0427423  72.2820330  78.5261711  52.9227048  72.7277381  79.3647191
  52.3480012  72.6305648  77.9675249  46.6334828  74.3826722  86.0761368
  46.7627209  74.6361201  86.9900779  45.9532279  74.9754430  85.7566023
  50.8034315  85.0523972  82.1751842  50.7258345  86.0031797  82.2540323
  50.1995959  84.7069844  82.8326768  53.2951545  72.2251837  94.8313209
  52.5184879  72.7845757  94.8216073  53.9342108  72.7108620  95.3528079
  61.0872326  69.0078630  88.6656185  60.4446706  69.3011163  88.0195980
  60.5827254  68.8931550  89.4709382  58.7412489  72.7541803  79.3542045
  59.6530346  72.9869190  79.1789742  58.2322137  73.3378848  78.7917123
  51.5497917  75.0337291  94.3931176  52.2912602  75.5722335  94.1165999
  50.8434903  75.6603579  94.5502728  57.0253257  77.1766431  92.9903337
  57.4336613  76.7348842  92.2457970  56.3030519  76.6019059  93.2437530
  53.3784327  72.1139038  90.3636894  54.2245522  72.5378451  90.5071543
  53.3182965  71.4572662  91.0575457  57.3482072  77.7367622  86.7455626
  56.7190934  77.9013336  86.0431694  56.9607734  78.1509231  87.5166590
  61.2271304  78.6722060  84.0999990  60.5422342  79.0520961  83.5497023
  61.3115153  79.2817386  84.8331938  56.5283772  69.7743406  92.0218068
  56.2844704  70.5285467  91.4852344  56.8043703  70.1528754  92.8565315
  58.4822235  76.3182019  90.6995333  58.6939130  76.9613779  90.0229715
  58.4351984  75.4844335  90.2317264  56.0848464  68.9299839  87.6031906
  55.2232943  69.2281093  87.8948643  56.1110899  69.1470238  86.6712938
  52.9010034  77.4742030  84.0105711  53.3648379  77.7529733  83.2210334
  52.6366832  76.5725474  83.8278802  49.7934115  77.0213511  86.9485475
  50.3635472  77.4500780  86.3102959  50.3842227  76.7396096  87.6469660
  51.8378920  73.5965182  80.8195276  52.5402963  74.0486226  81.2869203
  51.5059548  72.9549001  81.4475170  50.2859281  72.1876939  95.1946486
  49.6557942  72.8693220  95.4281883  50.1795369  72.0760020  94.2499624
  45.5804254  71.8548735  86.1212410  44.7903308  72.1106263  85.6452521
  46.0715501  72.6697073  86.2264451  59.5968063  79.1953974  88.8717691
  60.4185507  78.7934161  88.5900372  59.5930466  79.0922208  89.8233807
  47.5318999  72.2193314  83.0795887  46.7350162  72.3312008  83.5979382
  47.3044591  72.5579966  82.2136777  53.3624667  78.7438017  91.0278401
  53.4269099  79.2058425  91.8636573  52.6535591  78.1135382  91.1560711
  43.8641957  72.1079225  88.5527401  44.1149995  72.9926235  88.8184977
  44.4001505  71.9283827  87.7802493  67.6874056  75.5392723  85.2202662
  66.9337765  74.9700121  85.0646667  67.8221597  75.5055387  86.1673297
  53.0772684  80.4106125  80.8957382  52.9418359  81.2557661  81.3242229
  53.6182497  80.6125403  80.1323315  49.5640024  66.4897705  97.5571737
  49.1706970  65.9363903  98.2319381  50.3806164  66.8008283  97.9478254
  46.5302082  77.9281563  81.4685307  47.0426602  78.7224813  81.6190871
  47.1824795  77.2307853  81.4018908  48.3396966  81.0447319  83.5508060
  48.5163595  81.9665284  83.3629044  49.1353800  80.7305738  83.9802440
  52.4807985  67.9055584  95.1491993  53.2217698  68.5062737  95.0696456
  52.7125908  67.1633222  94.5910036  47.6249323  73.0911951  93.4270223
  47.5102838  72.1897208  93.7277322  46.7693841  73.3375648  93.0755040
  54.7041161  81.0329691  95.0257724  54.2605015  80.2466070  94.7078628
  55.3658374  81.2208842  94.3601615  49.4628282  82.5625493  89.5518402
  50.0135707  82.4342556  88.7795396  48.6239758  82.8620382  89.2013295
  56.8022399  81.3132491  93.0539125  56.7840874  82.1341372  92.5619394
  57.7242319  81.1886567  93.2789266  53.2595453  78.8276621  93.8962633
  53.7923790  78.0664909  93.6661941  52.7309534  78.5350273  94.6386788
  56.4265148  63.9336687  89.4256275  56.0829417  64.8238328  89.3495386
  56.7944110  63.7438344  88.5625860  44.4950998  76.2570217  82.2444877
  45.3326220  76.6667226  82.0278585  44.6729266  75.3169659  82.2145071
  56.3915431  73.9245298  77.9328710  55.8762054  74.6949902  78.1717098
  56.1192739  73.2510434  78.5561772  53.9762542  68.7694999  82.9913949
  53.1204138  68.3801849  82.8119587  54.3889493  68.8486959  82.1313734
  55.5061688  66.3041342  87.3905508  55.0026484  66.2671477  86.5773314
  55.7992295  67.2134085  87.4502165  51.7504574  66.3880072  86.3971690
  52.6157571  66.1922880  86.0377580  51.8182083  66.1590423  87.3241047
  61.3649705  76.6777653  79.8681884  60.5879147  76.3388812  79.4237046
  62.0441186  76.6830276  79.1936849  56.1801734  71.7972390  79.7588491
  55.8751869  72.1118539  80.6098635  57.1332176  71.8753810  79.8015824
  54.6248166  77.9562613  81.4081445  54.0969527  77.2215373  81.0954683
  54.1235668  78.7337290  81.1621414  59.6041012  76.1511634  86.5248492
  58.9464686  76.8410895  86.6128620  60.4081411  76.5408066  86.8682478
  49.3566893  68.6182280  83.7688057  49.9310645  68.3957461  83.0361250
  49.9437876  68.6870974  84.5216658  58.4146470  74.5056006  84.5752433
  58.9278352  75.1385998  85.0774143  59.0647694  73.9057202  84.2095793
  49.6836480  70.6486741  77.7883942  48.8473793  70.9861427  78.1093217
  49.5441250  70.5135720  76.8511079  51.6589561  65.4923528  82.4963126
  51.0053973  65.1772546  81.8719741  51.6170035  64.8699269  83.2222949
  52.7700766  75.7742824  74.4116418  51.8627828  75.5432077  74.6107567
  53.2671798  74.9780443  74.5990400  55.6768845  84.4840331  77.3313105
  55.0030543  84.7872027  77.9398062  56.0634667  85.2869411  76.9818562
  54.8927301  71.9805462  86.8210774  53.9749863  72.2020409  86.6632462
  55.3087445  72.0551772  85.9622481  55.6762349  73.3796878  81.9513454
  56.4234168  73.8918275  81.6420576  55.9453939  73.0580930  82.8117848
  53.9488999  75.8755418  78.9340409  53.0400218  75.5914451  79.0312878
  53.9784083  76.2954497  78.0743715  59.1808267  79.4862008  82.7031576
  58.7270594  78.6452918  82.7596767  58.5502233  80.1223406  83.0406356
  58.1241186  70.4153994  83.9332244  57.3863943  69.9031380  84.2642486
  58.3767960  69.9754376  83.1215520  57.6241206  81.3238505  83.6381394
  57.9164180  81.8843562  82.9193760  58.1339826  81.6167066  84.3934553
  58.2252814  63.1930246  84.5274013  58.5311690  62.3327609  84.2399928
  58.9505418  63.7847866  84.3273007  44.5177170  73.5960933  82.9155611
  44.3201569  73.0030293  82.1906677  43.9623834  73.2913143  83.6331550
  52.4973893  73.4884039  85.0350204  52.5522503  72.5357875  84.9592680
  51.6865095  73.6443478  85.5191502  53.6465087  77.4164162  76.2728487
  53.2084517  76.7000021  75.8134124  54.3875528  77.6440277  75.7113578
  50.4366253  72.1061099  82.7940583  49.6234119  72.4055269  83.2005775
  50.9325247  71.7116788  83.5115065  52.5874831  82.1018856  84.7274847
  52.5451010  82.3279702  83.7983379  53.5037530  81.8682230  84.8760649
  56.0340465  72.5702923  91.6255477  56.3889853  72.7974396  92.4849942
  56.6812596  72.9021300  91.0032732  61.7638202  75.6921359  82.3304806
  61.6256100  75.8822955  81.4025995  61.4074421  76.4540742  82.7872857
  49.9280328  69.6779454  88.4101818  50.5679707  69.5368213  87.7124781
  49.0957859  69.3913968  88.0340420  61.7907581  77.7597886  87.3416077
  62.2244088  77.6673175  88.1899131  62.5039162  77.7355387  86.7036093
  50.7040632  78.9781885  84.5236810  51.4981230  78.4832205  84.3219385
  49.9932324  78.4499748  84.1604516  55.5235476  81.3599980  88.8749178
  55.5772499  81.9290917  89.6426894  54.6550258  81.5301865  88.5103215
  47.0123395  73.1224966  80.5996563  46.0820983  73.0609422  80.8166525
  47.1080867  72.6000919  79.8033204  46.9308944  69.6479779  83.1874805
  47.1915762  70.5625113  83.0783965  47.7526117  69.1804222  83.3371417
  48.4033870  71.0617536  90.3573629  49.0756923  70.8534899  89.7086278
  47.5763656  70.8639622  89.9178861  62.6523131  77.8021587  89.8748963
  62.8459021  78.7067397  90.1208238  62.5523749  77.3429006  90.7087548
  54.3059442  67.6879477  92.3739290  53.6587357  68.3869427  92.2803766
  55.0760457  68.1215621  92.7415538  57.7138240  77.9528330  95.4489843
  57.5623746  77.7238881  94.5319927  57.7042919  78.9098931  95.4621188
  54.4823576  75.5260242  90.4336110  55.4115636  75.6771402  90.2605077
  54.0614606  75.6144263  89.5784756  53.2811908  79.5510907  88.2034647
  53.1422994  79.1829691  89.0760585  52.4926504  80.0658546  88.0318605
  53.8760060  84.6520003  79.5460184  54.0511816  84.1808046  80.3605806
  53.1892848  85.2785769  79.7741445  54.8317123  78.9292509  85.5923485
  54.4966956  78.8893279  86.4881135  54.3321069  78.2637225  85.1193895
  48.8061367  74.3360139  91.1176066  48.6681165  73.6040378  91.7187605
  49.7166290  74.2469040  90.8360254  57.7676315  76.2748544  75.8660545
  57.1505485  75.5495372  75.7693597  57.2992803  77.0357904  75.5227619
  51.4343668  74.0480099  90.6059746  52.1443286  73.4073291  90.5646364
  51.3912976  74.2992994  91.5285927  59.4230446  80.9847452  93.5266325
  59.3642992  80.3006672  92.8596908  59.8249965  81.7266442  93.0746951
  50.1472602  71.0345317  92.4255385  49.6109959  70.5836055  93.0776982
  49.5589310  71.1691225  91.6825850  48.4421145  87.8009366  86.3200044
  48.6817743  88.4327890  86.9979063  47.5990342  87.4497406  86.6065403
  49.5574861  70.4933968  74.9881849  48.6804327  70.3722769  74.6244096
  50.0332614  69.7020046  74.7360738  59.4247854  78.9487036  91.7580305
  58.5374632  78.6112958  91.8806704  59.9946405  78.2170067  91.9949070
  41.0777001  75.2811128  85.0823356  41.7648041  74.9672858  84.4944371
  40.9225129  76.1852492  84.8090608  45.8811723  70.1701324  89.5108380
  45.7969912  69.5626994  88.7758790  45.0594429  70.6610343  89.5117876
  52.9549007  83.6088488  88.7241548  52.8819178  84.4143460  89.2360852
  52.5126400  83.8080454  87.8989569  52.7438787  82.8460258  82.2344369
  51.9606308  83.3881939  82.3282594  53.4431532  83.3634238  82.6338611
  56.0535437  68.6554888  84.8778575  56.5504136  67.9024850  84.5579645
  55.2822418  68.6919204  84.3121784  63.9065194  74.3595253  86.5196866
  63.8955070  75.2419969  86.1490799  63.0382574  74.0066804  86.3251403
  55.4147690  83.5075322  90.8799707  56.1275663  84.1422787  90.8075608
  54.9237719  83.6039188  90.0639708  57.1365217  77.4126575  82.4516998
  56.2021496  77.5328038  82.2821703  57.3141886  76.5099042  82.1877008
  52.6370405  70.7972271  84.6050259  52.2668193  70.2443311  85.2931165
  53.1329498  70.1930404  84.0525260  60.5237769  73.2543894  82.9867032
  60.9898221  74.0871886  82.9127335  60.9745269  72.7888876  83.6912291
  50.4659604  81.2569766  91.7005277  51.1669064  81.8906249  91.8534672
  49.9954719  81.5984497  90.9400917  58.5914000  79.5987716  79.9853184
  58.8673844  79.4844310  80.8947059  57.7218499  79.2005200  79.9465358
  58.4954431  65.6224481  87.0257934  57.5817511  65.8528708  87.1940141
  58.9247533  65.7062925  87.8771966  58.2660890  73.8114373  89.5257828
  57.6132340  74.0590281  88.8710281  58.6441270  72.9978511  89.1920305
  55.2268064  83.8474066  83.6285998  55.4090458  83.0295722  84.0913750
  56.0501050  84.0641759  83.1910888  55.5610229  82.7742252  80.8901047
  56.0897996  82.2634706  80.2771209  55.8238449  82.4584782  81.7546580
  54.3148463  74.5534184  96.0123865  53.6389100  74.4528314  96.6826240
  55.1376097  74.3973398  96.4759862  46.0627322  80.7906121  88.6336380
  46.6480759  80.0449809  88.7664284  45.8652161  81.1010078  89.5173044
  48.9165977  83.8257368  83.6498822  48.2476353  84.3103496  83.1662863
  48.7778847  84.0726589  84.5642201  40.6544977  73.3611721  87.3540823
  40.6929076  72.8275312  88.1477941  40.1485270  72.8346927  86.7351800
  53.0571246  85.8601112  90.2481481  53.6089554  86.0232733  91.0130566
  53.3977439  86.4505550  89.5761506  48.0335739  68.2076262  90.8503366
  48.0977066  69.0691093  90.4380763  47.9702859  67.5950263  90.1175724
  47.5088012  70.2799394  94.4976400  48.1360050  69.8976471  95.1113924
  46.6515931  70.0613596  94.8632092  57.9082120  80.6862369  96.1030135
  58.4522024  81.2992328  95.6085090  57.3268965  81.2441948  96.6197148
  44.2853554  72.0875823  80.4294755  44.5806995  71.1786502  80.3761808
  43.3841590  72.0663563  80.1075757  56.1939633  83.8083087  87.2345163
  56.0690773  83.0072827  86.7256108  56.8518724  84.3029281  86.7459133
  47.8147801  70.1631820  86.4122303  47.0934387  70.7767788  86.2729777
  48.6041057  70.6989585  86.3338949  58.2574542  81.6092107  88.8624713
  57.3104877  81.4897459  88.7903040  58.6057315  80.7214605  88.9450975
  50.6174115  67.4986246  92.6862955  51.1408517  67.7448543  93.4489264
  50.3986448  68.3306281  92.2666092  46.0141396  69.7689921  80.5534080
  45.6854102  68.8887300  80.3709186  46.3680767  69.7137590  81.4410469
  55.2620975  81.4044824  85.0629065  55.1145937  80.4761531  85.2436635
  56.0874468  81.4264914  84.5786141  49.1283219  70.0562891  80.9209557
  49.4679292  70.5848812  80.1988166  49.5755340  70.3943297  81.6968124
  58.8655097  82.2273382  86.1493938  59.7901644  82.0216244  86.0118389
  58.6970400  81.9789784  87.0583280  51.8226660  68.4399941  90.3712626
  51.4823480  67.6407755  90.7733305  51.1165666  68.7401652  89.7989459
  52.4743132  65.5249254  88.8239949  53.2969201  65.0509732  88.7018839
  52.7181195  66.3039738  89.3238635  51.1151366  68.5537512  79.1202850
  51.8359729  68.9318765  78.6166567  50.4916670  69.2726389  79.2237828
  55.2582489  69.2582661  80.0561183  55.4746104  70.1407299  79.7550011
  54.7776556  68.8668875  79.3266825  49.9981711  72.2168375  86.6331927
  49.8526291  72.5308678  87.5256209  49.5206914  72.8353275  86.0802826
  51.8578093  69.2070922  86.6812817  51.8439662  68.3112016  86.3445115
  52.5750522  69.2141586  87.3151103  53.7104224  69.6408263  88.7265944
  53.4522002  70.5625333  88.7250275  53.1789265  69.2438697  89.4166408
  58.6550413  82.7459050  81.5056030  58.8287290  82.1805472  80.7529882
  59.1479304  83.5459945  81.3235519  44.4727373  74.7573719  89.5719588
  43.9280841  75.5333527  89.7039863  45.3506723  75.1044523  89.4138710
  51.2614989  68.0885303  81.9500387  51.3830901  67.1601949  82.1491274
  50.9717032  68.1023989  81.0378702  54.1306180  65.7740213  85.0867107
  54.1527877  65.8379546  84.1319086  54.5474239  64.9344722  85.2807613
  64.5089804  75.5095473  83.1246329  64.9520950  74.7602798  82.7265453
  63.6316314  75.5005609  82.7420061  59.6425585  82.0625814  78.6052928
  60.3376490  82.6832507  78.8240242  59.9848736  81.2121165  78.8805306
  45.2593395  73.8843615  92.4649745  44.5175131  74.0326251  93.0514376
  44.9386139  74.1451881  91.6016495  61.5417009  79.5125520  80.1340259
  62.0668333  79.8512793  79.4089579  61.4539361  78.5772535  79.9503393
  53.2037057  83.4259593  92.2630135  53.5124184  83.1808740  93.1352835
  54.0012539  83.6306232  91.7749005  53.2257669  85.5797503  84.4935512
  52.7862660  85.0873882  85.1868368  53.9765786  85.0370471  84.2527587
  45.7050008  81.7709044  84.4960140  46.5308028  81.4712816  84.1158783
  45.3544060  81.0016666  84.9449928  50.6731541  81.1235512  86.5657813
  50.0511551  80.4606217  86.2660041  51.3436408  81.1496644  85.8831461
  43.9058613  79.6895370  85.4549073  43.0690522  79.2617545  85.2733075
  43.8782259  79.8827814  86.3919865  50.7456069  69.6017300  96.1590319
  50.7944224  70.4779423  95.7768089  51.2878583  69.0594693  95.5861963
  61.2310915  80.1458423  95.4391457  60.4406458  80.1282562  94.8995956
  60.9944269  80.6846717  96.1940493  61.3508790  76.9950890  92.7524185
  61.4006795  76.8300897  93.6939708  61.2422713  76.1278149  92.3622066
  50.2345048  79.6739435  80.0416274  50.3833169  80.3574900  79.3882947
  51.0411492  79.6544526  80.5565730  58.6412552  72.9781818  94.0683492
  59.5422415  72.8388283  93.7767490  58.7160527  73.1436273  95.0081669
  52.9755357  70.3548673  92.9136678  52.1058667  70.6482239  92.6419267
  53.2114838  70.9389118  93.6343942  62.8526986  79.4147831  92.9966207
  62.5611795  79.7777812  93.8329668  62.2399118  78.7014840  92.8179539
  64.0522669  76.9800711  85.5168777  64.8869560  77.4190515  85.6806337
  64.1881798  76.5039364  84.6977023  61.1014175  74.5380446  91.4646265
  61.5768296  74.7308092  90.6565116  60.1779740  74.5939632  91.2189648
  47.9897681  75.7004613  81.0477343  47.7443723  74.7966943  81.2457553
  48.1593596  75.7021764  80.1056821  55.6794391  66.5728289  90.4302099
  56.1976335  67.3089316  90.1048587  55.3249524  66.8792283  91.2648858
  47.2593329  71.4332971  78.5463504  46.5662574  71.5077326  77.8903540
  47.0145081  70.6693314  79.0685021  55.9306985  62.9928572  85.9502995
  56.2108739  62.3251761  86.5763422  56.7157592  63.1857668  85.4377659
  53.7340454  82.1687566  77.5128021  53.1614421  82.7877753  77.0598493
  54.3073248  82.7186928  78.0467943  59.8015844  71.4146206  89.6974570
  60.7533267  71.5144304  89.7186794  59.6319294  70.6224475  90.2072655
  57.8230223  68.5001789  89.8833971  57.2280155  68.7806802  89.1880460
  57.5379920  68.9895690  90.6550712  56.9537714  82.4524716  78.6436604
  57.8868387  82.3870278  78.8469479  56.8660926  83.2880983  78.1851136
  59.5825730  81.7690586  75.6040551  59.5039362  81.4350450  76.4976309
  60.4035397  82.2612354  75.6032024  62.2803921  74.6352326  88.8116870
  62.2480242  73.6968326  88.9976554  62.8904545  74.7136362  88.0782695
  54.1187252  73.5048379  74.8544074  55.0646357  73.3754587  74.9232492
  53.7401497  72.7663041  75.3313502  62.4298410  71.4263369  88.8575153
  61.9137459  70.6421826  88.6705082  63.3138358  71.0982086  89.0221673
  60.0909137  65.1704385  84.8170966  59.8933958  64.8619473  85.7014298
  60.7008842  65.8966024  84.9468896  68.0980471  75.6968333  87.9522907
  68.8283860  75.4353621  88.5130610  67.4887417  74.9597054  87.9924975
  66.1795768  73.8376195  88.5497358  65.4528932  73.7032160  87.9413849
  65.7643055  74.1453024  89.3554076  54.0025945  77.5566125  96.3144731
  54.9228954  77.7344724  96.5084777  53.9675528  76.6122170  96.1624430
  52.3030170  71.4298355  74.7898959  51.3961625  71.1331468  74.8661673
  52.5806151  71.1328173  73.9233245  43.2208110  72.7504718  85.2398006
  42.9010894  71.8970027  84.9472380  42.6741538  72.9653297  85.9955973
  46.9988017  75.4667159  88.9567512  47.2174027  76.3984267  88.9755546
  47.4113791  75.1075134  89.7422316  53.9192235  65.9735245  80.9443200
  53.1092964  65.6282330  81.3198446  54.6076652  65.6642788  81.5330812
  55.8482784  65.0513292  82.5667497  56.4013822  65.4708745  83.2257520
  56.0852870  64.1249040  82.6090453  51.8715883  71.0400365  98.3470261
  51.7712610  71.9894722  98.2782352  51.6537425  70.7118604  97.4746331
  51.0728954  68.2885290  74.9310938  51.9348118  68.6140189  75.1906756
  51.2579298  67.5016786  74.4184004  43.0896370  76.3707630  87.2091127
  42.3959841  75.9561583  86.6961082  43.8369361  76.4128166  86.6124546
  59.2261591  67.1613817  82.0746161  58.6460260  67.8198621  81.6924214
  58.9597523  66.3391161  81.6633579  57.6765157  66.5618874  84.2767482
  58.1764935  66.6735409  83.4681800  58.3200765  66.2579927  84.9168290
  51.7347153  74.4697504  97.1635323  51.2514235  75.2697864  97.3699212
  51.8208092  74.4805449  96.2102767  45.0033112  76.3025884  85.0857142
  44.9803801  76.4013571  84.1339025  45.3133749  77.1491035  85.4074308
  47.6620490  78.3602039  89.2003756  48.6163744  78.3285981  89.1333688
  47.4633014  77.8992662  90.0153982  48.2519872  76.9303155  91.7674554
  49.0712761  77.4247233  91.7909391  48.5256680  76.0135123  91.7392122
  58.0086469  69.3213907  81.1302510  57.1212324  69.6063558  80.9122704
  58.4240458  69.1607670  80.2829786  61.3601005  69.3460428  84.8456849
  62.1361395  69.8356881  85.1181466  60.6349139  69.7718482  85.3028718
  63.7973563  70.0588047  85.9030789  64.3918054  69.8183783  85.1924098
  63.8700147  69.3395178  86.5304326  46.0170719  83.9021658  86.2173954
  45.8825187  83.1422059  85.6511952  45.6002781  84.6262558  85.7502743
  57.1529682  79.0858582  75.2250530  57.8565532  79.2908584  75.8408185
  56.4292331  79.6535344  75.4899613  57.9827492  74.8368443  81.3452800
  57.9262694  75.2936994  80.5060432  58.5355835  74.0759128  81.1675642
  61.7932298  70.6258175  82.1702919  61.5369233  70.2254811  83.0011127
  61.1685166  71.3401969  82.0453058  66.1044636  73.3654248  84.6774211
  65.5444194  73.4347437  85.4505773  65.4988140  73.1895233  83.9573707
  49.1739845  84.7990975  86.4292397  49.0572229  85.7436408  86.3271087
  48.3532291  84.4964537  86.8178196  59.0616379  79.5241111  77.2748990
  59.8961983  79.0922309  77.0926464  58.9000722  79.3523125  78.2025884
  58.7162272  76.0273224  78.6405329  58.6611075  75.8617496  77.6993773
  58.0908327  76.7349257  78.7967519  43.5054787  71.2641289  92.4666751
  44.1513650  70.7540243  92.9553976  43.2971938  72.0009970  93.0410176
  56.0308179  78.3322136  97.9658892  56.8999338  78.5062788  97.6045527
  55.5514930  79.1516553  97.8434621  52.0258397  65.5281333  78.2190647
  52.0137067  66.4723173  78.3758918  52.9181819  65.3451479  77.9250109
  50.1994359  85.4519237  89.6448325  51.1021606  85.4842847  89.9614820
  49.9731729  84.5219688  89.6594661  51.9547961  84.2050224  86.3058404
  51.0043592  84.2052085  86.1922776  52.2580447  83.4582958  85.7894439
  55.8410517  62.1224110  82.4736584  55.0742912  61.5682597  82.6193266
  56.2521222  62.1945979  83.3350736  47.8452278  68.4108906  96.5641765
  48.7083739  68.0545711  96.7745090  47.2717688  68.0722801  97.2517170
  67.6900655  90.0410762  87.3704166  68.3279065  89.9217509  86.6667506
  67.5721497  90.9891606  87.4292119  64.4990361  89.9938190  87.3065691
  64.1608872  89.8779255  86.4186226  65.3680129  89.5929355  87.2866697
  60.3577177  91.8473667  83.2962582  59.7942042  91.7563604  82.5278870
  60.2429572  91.0273571  83.7765075  64.9810144  91.1473042  93.2651897
  64.9698785  90.7525840  92.3932400  65.1430783  90.4139115  93.8585668
  57.9041608  93.3424858  86.1346802  58.6962900  93.0015683  85.7193102
  58.1438259  93.4519833  87.0548956  65.9376735  95.5144634  78.6077047
  65.2864715  96.0998715  78.2211061  66.7321098  96.0450829  78.6672084
  59.8632362  92.6033771  79.0064181  60.6363238  92.0562759  78.8677057
  60.2157761  93.4678021  79.2178643  61.7017405  93.9310154  92.2131081
  61.4107271  94.8355785  92.0977747  62.3374389  93.9726681  92.9275150
  62.6273612  91.3087002  88.8032440  63.2237184  91.0843025  88.0889403
  62.6848583  90.5671748  89.4057888  62.1998640  88.7626438  76.6382631
  62.4524161  88.2407959  75.8766094  61.2623199  88.5992583  76.7409315
  67.2441923  87.7662216  84.4457374  68.0305012  87.3481639  84.0947791
  67.5080627  88.6708308  84.6139023  67.4152000  93.2035066  79.1446031
  66.7797833  93.2769693  79.8566936  67.0849407  93.7928665  78.4665110
  72.6450350  87.7037449  85.3490353  73.3775522  87.1336666  85.5828182
  71.8889706  87.3159050  85.7896858  61.9194929  90.6654544  78.8407006
  61.8031187  89.9899447  79.5088090  62.0297189  90.1786917  78.0239159
  64.2626470  90.1264691  82.5453695  63.8984677  89.5995312  83.2566617
  65.1193586  89.7363160  82.3720181  70.1675771  81.4159023  89.8084962
  69.8359095  82.2854434  89.5846176  69.5721384  81.0995307  90.4878992
  63.9031957  85.1554590  77.5415044  64.0706359  86.0234827  77.9085515
  63.7129126  85.3181872  76.6176333  66.6607290  93.6171569  89.2080874
  66.3608013  94.5196608  89.0996681  66.3158350  93.3503752  90.0602027
  60.1119772  90.0685366  85.2417579  59.1870268  89.9361580  85.4495270
  60.3604185  90.8479585  85.7387521  70.0604434  86.1354109  86.8878312
  69.1521311  86.0669518  86.5937073  70.0092030  86.6126054  87.7160137
  63.8821178  87.6112248  78.5261711  63.7620803  88.0569299  79.3647191
  63.1873766  87.9597566  77.9675249  57.4728583  89.7118640  86.0761368
  57.6020964  89.9653119  86.9900779  56.7926034  90.3046348  85.7566023
  61.6428070 100.3815890  82.1751842  61.5652100 101.3323715  82.2540323
  61.0389713 100.0361762  82.8326768  64.1345300  87.5543755  94.8313209
  63.3578634  88.1137675  94.8216073  64.7735863  88.0400538  95.3528079
  71.9266080  84.3370548  88.6656185  71.2840461  84.6303081  88.0195980
  71.4221009  84.2223468  89.4709382  69.5806244  88.0833721  79.3542045
  70.4924100  88.3161108  79.1789742  69.0715891  88.6670765  78.7917123
  62.3891672  90.3629208  94.3931176  63.1306356  90.9014252  94.1165999
  61.6828657  90.9895497  94.5502728  67.8647012  92.5058349  92.9903337
  68.2730368  92.0640759  92.2457970  67.1424273  91.9310976  93.2437530
  64.2178082  87.4430956  90.3636894  65.0639277  87.8670369  90.5071543
  64.1576719  86.7864580  91.0575457  68.1875826  93.0659539  86.7455626
  67.5584689  93.2305254  86.0431694  67.8001488  93.4801149  87.5166590
  72.0665058  94.0013977  84.0999990  71.3816096  94.3812879  83.5497023
  72.1508907  94.6109304  84.8331938  67.3677527  85.1035324  92.0218068
  67.1238459  85.8577384  91.4852344  67.6437457  85.4820672  92.8565315
  69.3215990  91.6473936  90.6995333  69.5332885  92.2905696  90.0229715
  69.2745738  90.8136253  90.2317264  66.9242219  84.2591757  87.6031906
  66.0626698  84.5573011  87.8948643  66.9504653  84.4762156  86.6712938
  63.7403788  92.8033948  84.0105711  64.2042134  93.0821651  83.2210334
  63.4760586  91.9017392  83.8278802  60.6327869  92.3505429  86.9485475
  61.2029226  92.7792697  86.3102959  61.2235981  92.0688014  87.6469660
  62.6772674  88.9257100  80.8195276  63.3796718  89.3778144  81.2869203
  62.3453303  88.2840919  81.4475170  61.1253036  87.5168857  95.1946486
  60.4951696  88.1985137  95.4281883  61.0189124  87.4051938  94.2499624
  56.4198008  87.1840653  86.1212410  55.6297062  87.4398181  85.6452521
  56.9109256  87.9988990  86.2264451  70.4361818  94.5245892  88.8717691
  71.2579261  94.1226079  88.5900372  70.4324221  94.4214126  89.8233807
  58.3712754  87.5485232  83.0795887  57.5743917  87.6603926  83.5979382
  58.1438346  87.8871884  82.2136777  64.2018421  94.0729935  91.0278401
  64.2662854  94.5350342  91.8636573  63.4929345  93.4427300  91.1560711
  54.7035711  87.4371143  88.5527401  54.9543750  88.3218153  88.8184977
  55.2395260  87.2575745  87.7802493  78.5267811  90.8684640  85.2202662
  77.7731519  90.2992038  85.0646667  78.6615352  90.8347305  86.1673297
  63.9166439  95.7398043  80.8957382  63.7812114  96.5849578  81.3242229
  64.4576251  95.9417320  80.1323315  60.4033778  81.8189622  97.5571737
  60.0100724  81.2655821  98.2319381  61.2199919  82.1300201  97.9478254
  57.3695836  93.2573481  81.4685307  57.8820357  94.0516731  81.6190871
  58.0218549  92.5599771  81.4018908  59.1790721  96.3739237  83.5508060
  59.3557349  97.2957202  83.3629044  59.9747554  96.0597656  83.9802440
  63.3201739  83.2347501  95.1491993  64.0611453  83.8354655  95.0696456
  63.5519662  82.4925139  94.5910036  58.4643077  88.4203869  93.4270223
  58.3496593  87.5189126  93.7277322  57.6087595  88.6667566  93.0755040
  65.5434915  96.3621609  95.0257724  65.0998769  95.5757988  94.7078628
  66.2052129  96.5500760  94.3601615  60.3022036  97.8917411  89.5518402
  60.8529461  97.7634474  88.7795396  59.4633512  98.1912300  89.2013295
  67.6416153  96.6424409  93.0539125  67.6234629  97.4633290  92.5619394
  68.5636073  96.5178484  93.2789266  64.0989207  94.1568538  93.8962633
  64.6317544  93.3956827  93.6661941  63.5703288  93.8642190  94.6386788
  67.2658902  79.2628604  89.4256275  66.9223172  80.1530246  89.3495386
  67.6337865  79.0730262  88.5625860  55.3344753  91.5862135  82.2444877
  56.1719975  91.9959143  82.0278585  55.5123021  90.6461577  82.2145071
  67.2309185  89.2537216  77.9328710  66.7155809  90.0241820  78.1717098
  66.9586494  88.5802352  78.5561772  64.8156296  84.0986916  82.9913949
  63.9597892  83.7093767  82.8119587  65.2283248  84.1778877  82.1313734
  66.3455443  81.6333260  87.3905508  65.8420238  81.5963395  86.5773314
  66.6386050  82.5426002  87.4502165  62.5898329  81.7171989  86.3971690
  63.4551325  81.5214798  86.0377580  62.6575838  81.4882341  87.3241047
  72.2043459  92.0069570  79.8681884  71.4272902  91.6680730  79.4237046
  72.8834940  92.0122193  79.1936849  67.0195488  87.1264308  79.7588491
  66.7145624  87.4410457  80.6098635  67.9725930  87.2045728  79.8015824
  65.4641920  93.2854531  81.4081445  64.9363282  92.5507291  81.0954683
  64.9629423  94.0629207  81.1621414  70.4434766  91.4803551  86.5248492
  69.7858441  92.1702813  86.6128620  71.2475165  91.8699983  86.8682478
  60.1960648  83.9474197  83.7688057  60.7704400  83.7249379  83.0361250
  60.7831630  84.0162892  84.5216658  69.2540225  89.8347924  84.5752433
  69.7672107  90.4677916  85.0774143  69.9041449  89.2349120  84.2095793
  60.5230235  85.9778658  77.7883942  59.6867547  86.3153345  78.1093217
  60.3835004  85.8427638  76.8511079  62.4983315  80.8215446  82.4963126
  61.8447728  80.5064463  81.8719741  62.4563790  80.1991187  83.2222949
  63.6094520  91.1034741  74.4116418  62.7021582  90.8723995  74.6107567
  64.1065552  90.3072360  74.5990400  66.5162599  99.8132248  77.3313105
  65.8424298 100.1163945  77.9398062  66.9028421 100.6161329  76.9818562
  65.7321056  87.3097380  86.8210774  64.8143617  87.5312327  86.6632462
  66.1481199  87.3843690  85.9622481  66.5156104  88.7088795  81.9513454
  67.2627922  89.2210193  81.6420576  66.7847693  88.3872848  82.8117848
  64.7882754  91.2047336  78.9340409  63.8793973  90.9206369  79.0312878
  64.8177838  91.6246415  78.0743715  70.0202021  94.8153926  82.7031576
  69.5664348  93.9744835  82.7596767  69.3895988  95.4515324  83.0406356
  68.9634941  85.7445912  83.9332244  68.2257697  85.2323298  84.2642486
  69.2161714  85.3046293  83.1215520  68.4634960  96.6530422  83.6381394
  68.7557935  97.2135479  82.9193760  68.9733581  96.9458983  84.3934553
  69.0646568  78.5222164  84.5274013  69.3705445  77.6619527  84.2399928
  69.7899173  79.1139784  84.3273007  55.3570924  88.9252850  82.9155611
  55.1595324  88.3322211  82.1906677  54.8017588  88.6205060  83.6331550
  63.3367648  88.8175957  85.0350204  63.3916258  87.8649793  84.9592680
  62.5258850  88.9735396  85.5191502  64.4858842  92.7456080  76.2728487
  64.0478271  92.0291939  75.8134124  65.2269282  92.9732195  75.7113578
  61.2760008  87.4353016  82.7940583  60.4627873  87.7347187  83.2005775
  61.7719002  87.0408705  83.5115065  63.4268586  97.4310773  84.7274847
  63.3844764  97.6571620  83.7983379  64.3431284  97.1974148  84.8760649
  66.8734219  87.8994841  91.6255477  67.2283607  88.1266314  92.4849942
  67.5206351  88.2313218  91.0032732  72.6031956  91.0213277  82.3304806
  72.4649855  91.2114873  81.4025995  72.2468175  91.7832660  82.7872857
  60.7674082  85.0071372  88.4101818  61.4073462  84.8660131  87.7124781
  59.9351613  84.7205885  88.0340420  72.6301336  93.0889804  87.3416077
  73.0637843  92.9965093  88.1899131  73.3432917  93.0647304  86.7036093
  61.5434386  94.3073802  84.5236810  62.3374985  93.8124123  84.3219385
  60.8326079  93.7791665  84.1604516  66.3629231  96.6891898  88.8749178
  66.4166253  97.2582834  89.6426894  65.4944012  96.8593783  88.5103215
  57.8517150  88.4516884  80.5996563  56.9214738  88.3901340  80.8166525
  57.9474622  87.9292837  79.8033204  57.7702699  84.9771697  83.1874805
  58.0309516  85.8917030  83.0783965  58.5919871  84.5096139  83.3371417
  59.2427624  86.3909454  90.3573629  59.9150678  86.1826816  89.7086278
  58.4157411  86.1931540  89.9178861  73.4916885  93.1313504  89.8748963
  73.6852776  94.0359315  90.1208238  73.3917504  92.6720924  90.7087548
  65.1453196  83.0171395  92.3739290  64.4981111  83.7161345  92.2803766
  65.9154212  83.4507539  92.7415538  68.5531994  93.2820247  95.4489843
  68.4017501  93.0530799  94.5319927  68.5436674  94.2390849  95.4621188
  65.3217331  90.8552160  90.4336110  66.2509391  91.0063320  90.2605077
  64.9008361  90.9436181  89.5784756  64.1205662  94.8802824  88.2034647
  63.9816748  94.5121609  89.0760585  63.3320259  95.3950464  88.0318605
  64.7153814  99.9811921  79.5460184  64.8905570  99.5099964  80.3605806
  64.0286602 100.6077687  79.7741445  65.6710877  94.2584427  85.5923485
  65.3360710  94.2185197  86.4881135  65.1714823  93.5929143  85.1193895
  59.6455121  89.6652057  91.1176066  59.5074919  88.9332296  91.7187605
  60.5560045  89.5760957  90.8360254  68.6070069  91.6040461  75.8660545
  67.9899240  90.8787290  75.7693597  68.1386558  92.3649822  75.5227619
  62.2737422  89.3772016  90.6059746  62.9837041  88.7365209  90.5646364
  62.2306730  89.6284911  91.5285927  70.2624201  96.3139370  93.5266325
  70.2036747  95.6298590  92.8596908  70.6643719  97.0558360  93.0746951
  60.9866356  86.3637234  92.4255385  60.4503713  85.9127973  93.0776982
  60.3983065  86.4983143  91.6825850  59.2814900 103.1301284  86.3200044
  59.5211498 103.7619808  86.9979063  58.4384096 102.7789324  86.6065403
  60.3968615  85.8225886  74.9881849  59.5198081  85.7014686  74.6244096
  60.8726368  85.0311964  74.7360738  70.2641608  94.2778954  91.7580305
  69.3768387  93.9404875  91.8806704  70.8340159  93.5461985  91.9949070
  51.9170755  90.6103045  85.0823356  52.6041795  90.2964775  84.4944371
  51.7618884  91.5144410  84.8090608  56.7205477  85.4993242  89.5108380
  56.6363666  84.8918912  88.7758790  55.8988184  85.9902260  89.5117876
  63.7942761  98.9380406  88.7241548  63.7212933  99.7435378  89.2360852
  63.3520155  99.1372372  87.8989569  63.5832541  98.1752176  82.2344369
  62.8000063  98.7173856  82.3282594  64.2825286  98.6926156  82.6338611
  66.8929191  83.9846806  84.8778575  67.3897891  83.2316768  84.5579645
  66.1216173  84.0211122  84.3121784  74.7458949  89.6887171  86.5196866
  74.7348825  90.5711886  86.1490799  73.8776328  89.3358722  86.3251403
  66.2541445  98.8367240  90.8799707  66.9669417  99.4714705  90.8075608
  65.7631474  98.9331106  90.0639708  67.9758972  92.7418493  82.4516998
  67.0415251  92.8619955  82.2821703  68.1535640  91.8390960  82.1877008
  63.4764160  86.1264189  84.6050259  63.1061947  85.5735229  85.2931165
  63.9723252  85.5222322  84.0525260  71.3631523  88.5835812  82.9867032
  71.8291975  89.4163804  82.9127335  71.8139024  88.1180794  83.6912291
  61.3053359  96.5861684  91.7005277  62.0062818  97.2198166  91.8534672
  60.8348474  96.9276415  90.9400917  69.4307754  94.9279633  79.9853184
  69.7067598  94.8136228  80.8947059  68.5612253  94.5297118  79.9465358
  69.3348186  80.9516399  87.0257934  68.4211266  81.1820626  87.1940141
  69.7641287  81.0354843  87.8771966  69.1054644  89.1406291  89.5257828
  68.4526095  89.3882198  88.8710281  69.4835024  88.3270429  89.1920305
  66.0661818  99.1765984  83.6285998  66.2484213  98.3587640  84.0913750
  66.8894804  99.3933676  83.1910888  66.4003984  98.1034169  80.8901047
  66.9291750  97.5926624  80.2771209  66.6632203  97.7876699  81.7546580
  65.1542218  89.8826102  96.0123865  64.4782855  89.7820231  96.6826240
  65.9769851  89.7265316  96.4759862  56.9021077  96.1198039  88.6336380
  57.4874513  95.3741726  88.7664284  56.7045915  96.4301995  89.5173044
  59.7559732  99.1549286  83.6498822  59.0870107  99.6395414  83.1662863
  59.6172601  99.4018506  84.5642201  51.4938731  88.6903639  87.3540823
  51.5322831  88.1567229  88.1477941  50.9879024  88.1638844  86.7351800
  63.8965000 101.1893029  90.2481481  64.4483308 101.3524651  91.0130566
  64.2371194 101.7797467  89.5761506  58.8729494  83.5368179  90.8503366
  58.9370820  84.3983010  90.4380763  58.8096614  82.9242181  90.1175724
  58.3481766  85.6091312  94.4976400  58.9753805  85.2268389  95.1113924
  57.4909685  85.3905514  94.8632092  68.7475875  96.0154287  96.1030135
  69.2915779  96.6284245  95.6085090  68.1662720  96.5733865  96.6197148
  55.1247309  87.4167741  80.4294755  55.4200750  86.5078419  80.3761808
  54.2235345  87.3955480  80.1075757  67.0333388  99.1375005  87.2345163
  66.9084527  98.3364745  86.7256108  67.6912479  99.6321198  86.7459133
  58.6541556  85.4923738  86.4122303  57.9328142  86.1059705  86.2729777
  59.4434812  86.0281502  86.3338949  69.0968296  96.9384025  88.8624713
  68.1498632  96.8189376  88.7903040  69.4451069  96.0506523  88.9450975
  61.4567869  82.8278164  92.6862955  61.9802271  83.0740461  93.4489264
  61.2380203  83.6598199  92.2666092  56.8535150  85.0981839  80.5534080
  56.5247857  84.2179218  80.3709186  57.2074521  85.0429507  81.4410469
  66.1014729  96.7336741  85.0629065  65.9539692  95.8053449  85.2436635
  66.9268223  96.7556832  84.5786141  59.9676974  85.3854808  80.9209557
  60.3073046  85.9140730  80.1988166  60.4149094  85.7235215  81.6968124
  69.7048851  97.5565300  86.1493938  70.6295399  97.3508161  86.0118389
  69.5364155  97.3081701  87.0583280  62.6620414  83.7691859  90.3712626
  62.3217235  82.9699672  90.7733305  61.9559421  84.0693570  89.7989459
  63.3136886  80.8541172  88.8239949  64.1362956  80.3801650  88.7018839
  63.5574950  81.6331655  89.3238635  61.9545121  83.8829430  79.1202850
  62.6753483  84.2610683  78.6166567  61.3310425  84.6018307  79.2237828
  66.0976244  84.5874579  80.0561183  66.3139858  85.4699217  79.7550011
  65.6170311  84.1960792  79.3266825  60.8375465  87.5460292  86.6331927
  60.6920046  87.8600595  87.5256209  60.3600669  88.1645193  86.0802826
  62.6971848  84.5362840  86.6812817  62.6833417  83.6403933  86.3445115
  63.4144276  84.5433504  87.3151103  64.5497979  84.9700180  88.7265944
  64.2915756  85.8917251  88.7250275  64.0183019  84.5730615  89.4166408
  69.4944167  98.0750967  81.5056030  69.6681045  97.5097390  80.7529882
  69.9873059  98.8751862  81.3235519  55.3121127  90.0865637  89.5719588
  54.7674595  90.8625445  89.7039863  56.1900477  90.4336441  89.4138710
  62.1008744  83.4177220  81.9500387  62.2224655  82.4893867  82.1491274
  61.8110786  83.4315906  81.0378702  64.9699934  81.1032131  85.0867107
  64.9921631  81.1671464  84.1319086  65.3867993  80.2636640  85.2807613
  75.3483559  90.8387390  83.1246329  75.7914705  90.0894716  82.7265453
  74.4710069  90.8297527  82.7420061  70.4819340  97.3917732  78.6052928
  71.1770245  98.0124425  78.8240242  70.8242490  96.5413083  78.8805306
  56.0987149  89.2135533  92.4649745  55.3568885  89.3618168  93.0514376
  55.7779893  89.4743798  91.6016495  72.3810763  94.8417437  80.1340259
  72.9062087  95.1804710  79.4089579  72.2933116  93.9064453  79.9503393
  64.0430812  98.7551511  92.2630135  64.3517938  98.5100658  93.1352835
  64.8406294  98.9598150  91.7749005  64.0651424 100.9089421  84.4935512
  63.6256414 100.4165799  85.1868368  64.8159541 100.3662388  84.2527587
  56.5443763  97.1000962  84.4960140  57.3701783  96.8004733  84.1158783
  56.1937815  96.3308584  84.9449928  61.5125296  96.4527430  86.5657813
  60.8905305  95.7898135  86.2660041  62.1830163  96.4788562  85.8831461
  54.7452368  95.0187288  85.4549073  53.9084276  94.5909462  85.2733075
  54.7176013  95.2119731  86.3919865  61.5849823  84.9309218  96.1590319
  61.6337979  85.8071341  95.7768089  62.1272338  84.3886611  95.5861963
  72.0704669  95.4750341  95.4391457  71.2800213  95.4574480  94.8995956
  71.8338024  96.0138635  96.1940493  72.1902544  92.3242807  92.7524185
  72.2400549  92.1592815  93.6939708  72.0816467  91.4570066  92.3622066
  61.0738803  95.0031353  80.0416274  61.2226923  95.6866818  79.3882947
  61.8805246  94.9836443  80.5565730  69.4806307  88.3073735  94.0683492
  70.3816169  88.1680200  93.7767490  69.5554281  88.4728190  95.0081669
  63.8149112  85.6840590  92.9136678  62.9452421  85.9774156  92.6419267
  64.0508592  86.2681035  93.6343942  73.6920741  94.7439749  92.9966207
  73.4005549  95.1069730  93.8329668  73.0792872  94.0306757  92.8179539
  74.8916423  92.3092629  85.5168777  75.7263315  92.7482433  85.6806337
  75.0275552  91.8331282  84.6977023  71.9407929  89.8672364  91.4646265
  72.4162051  90.0600010  90.6565116  71.0173495  89.9231549  91.2189648
  58.8291436  91.0296531  81.0477343  58.5837478  90.1258861  81.2457553
  58.9987350  91.0313681  80.1056821  66.5188146  81.9020207  90.4302099
  67.0370090  82.6381234  90.1048587  66.1643278  82.2084200  91.2648858
  58.0987083  86.7624888  78.5463504  57.4056328  86.8369243  77.8903540
  57.8538835  85.9985232  79.0685021  66.7700740  78.3220490  85.9502995
  67.0502494  77.6543679  86.5763422  67.5551347  78.5149585  85.4377659
  64.5734208  97.4979484  77.5128021  64.0008175  98.1169671  77.0598493
  65.1467002  98.0478845  78.0467943  70.6409598  86.7438124  89.6974570
  71.5927021  86.8436221  89.7186794  70.4713049  85.9516392  90.2072655
  68.6623978  83.8293707  89.8833971  68.0673910  84.1098720  89.1880460
  68.3773674  84.3187608  90.6550712  67.7931468  97.7816634  78.6436604
  68.7262141  97.7162195  78.8469479  67.7054681  98.6172901  78.1851136
  70.4219485  97.0982504  75.6040551  70.3433116  96.7642368  76.4976309
  71.2429152  97.5904272  75.6032024  73.1197676  89.9644243  88.8116870
  73.0873996  89.0260244  88.9976554  73.7298300  90.0428280  88.0782695
  64.9581007  88.8340296  74.8544074  65.9040112  88.7046504  74.9232492
  64.5795252  88.0954958  75.3313502  73.2692164  86.7555287  88.8575153
  72.7531213  85.9713743  88.6705082  74.1532113  86.4274003  89.0221673
  70.9302891  80.4996302  84.8170966  70.7327713  80.1911391  85.7014298
  71.5402597  81.2257941  84.9468896  78.9374226  91.0260250  87.9522907
  79.6677614  90.7645538  88.5130610  78.3281171  90.2888972  87.9924975
  77.0189523  89.1668113  88.5497358  76.2922687  89.0324078  87.9413849
  76.6036810  89.4744941  89.3554076  64.8419699  92.8858042  96.3144731
  65.7622709  93.0636641  96.5084777  64.8069282  91.9414088  96.1624430
  63.1423924  86.7590273  74.7898959  62.2355379  86.4623385  74.8661673
  63.4199905  86.4620091  73.9233245  54.0601864  88.0796636  85.2398006
  53.7404649  87.2261944  84.9472380  53.5135293  88.2945214  85.9955973
  57.8381772  90.7959077  88.9567512  58.0567782  91.7276185  88.9755546
  58.2507546  90.4367052  89.7422316  64.7585990  81.3027162  80.9443200
  63.9486718  80.9574247  81.3198446  65.4470407  80.9934706  81.5330812
  66.6876538  80.3805209  82.5667497  67.2407577  80.8000663  83.2257520
  66.9246624  79.4540957  82.6090453  62.7109637  86.3692283  98.3470261
  62.6106364  87.3186640  98.2782352  62.4931179  86.0410522  97.4746331
  61.9122709  83.6177208  74.9310938  62.7741873  83.9432106  75.1906756
  62.0973053  82.8308704  74.4184004  53.9290124  91.6999548  87.2091127
  53.2353596  91.2853500  86.6961082  54.6763115  91.7420084  86.6124546
  70.0655345  82.4905734  82.0746161  69.4854014  83.1490538  81.6924214
  69.7991278  81.6683079  81.6633579  68.5158911  81.8910792  84.2767482
  69.0158690  82.0027327  83.4681800  69.1594519  81.5871845  84.9168290
  62.5740907  89.7989422  97.1635323  62.0907989  90.5989782  97.3699212
  62.6601846  89.8097367  96.2102767  55.8426867  91.6317801  85.0857142
  55.8197555  91.7305489  84.1339025  56.1527503  92.4782952  85.4074308
  58.5014245  93.6893956  89.2003756  59.4557498  93.6577899  89.1333688
  58.3026768  93.2284580  90.0153982  59.0913627  92.2595072  91.7674554
  59.9106516  92.7539151  91.7909391  59.3650435  91.3427041  91.7392122
  68.8480223  84.6505825  81.1302510  67.9606078  84.9355475  80.9122704
  69.2634212  84.4899588  80.2829786  72.1994759  84.6752346  84.8456849
  72.9755149  85.1648798  85.1181466  71.4742893  85.1010400  85.3028718
  74.6367318  85.3879965  85.9030789  75.2311809  85.1475701  85.1924098
  74.7093902  84.6687096  86.5304326  56.8564474  99.2313576  86.2173954
  56.7218941  98.4713977  85.6511952  56.4396536  99.9554476  85.7502743
  67.9923437  94.4150499  75.2250530  68.6959287  94.6200502  75.8408185
  67.2686085  94.9827261  75.4899613  68.8221247  90.1660361  81.3452800
  68.7656448  90.6228912  80.5060432  69.3749589  89.4051045  81.1675642
  72.6326053  85.9550093  82.1702919  72.3762987  85.5546728  83.0011127
  72.0078921  86.6693887  82.0453058  76.9438391  88.6946166  84.6774211
  76.3837949  88.7639355  85.4505773  76.3381894  88.5187150  83.9573707
  60.0133599 100.1282893  86.4292397  59.8965984 101.0728325  86.3271087
  59.1926046  99.8256454  86.8178196  69.9010134  94.8533029  77.2748990
  70.7355738  94.4214227  77.0926464  69.7394477  94.6815042  78.2025884
  69.5556026  91.3565142  78.6405329  69.5004830  91.1909413  77.6993773
  68.9302081  92.0641175  78.7967519  54.3448541  86.5933206  92.4666751
  54.9907405  86.0832160  92.9553976  54.1365692  87.3301888  93.0410176
  66.8701933  93.6614054  97.9658892  67.7393093  93.8354706  97.6045527
  66.3908685  94.4808471  97.8434621  62.8652152  80.8573251  78.2190647
  62.8530821  81.8015091  78.3758918  63.7575573  80.6743396  77.9250109
  61.0388114 100.7811155  89.6448325  61.9415360 100.8134765  89.9614820
  60.8125484  99.8511606  89.6594661  62.7941716  99.5342141  86.3058404
  61.8437347  99.5344003  86.1922776  63.0974202  98.7874876  85.7894439
  66.6804271  77.4516028  82.4736584  65.9136667  76.8974514  82.6193266
  67.0914976  77.5237896  83.3350736  58.6846032  83.7400823  96.5641765
  59.5477494  83.3837628  96.7745090  58.1111443  83.4014718  97.2517170
  78.5294409 105.3702680  87.3704166  79.1672819 105.2509427  86.6667506
  78.4115252 106.3183524  87.4292119  75.3384115 105.3230108  87.3065691
  75.0002627 105.2071173  86.4186226  76.2073884 104.9221273  87.2866697
  71.1970931 107.1765584  83.2962582  70.6335796 107.0855521  82.5278870
  71.0823326 106.3565489  83.7765075  75.8203898 106.4764960  93.2651897
  75.8092539 106.0817758  92.3932400  75.9824538 105.7431032  93.8585668
  68.7435363 108.6716776  86.1346802  69.5356655 108.3307601  85.7193102
  68.9832013 108.7811751  87.0548956  76.7770490 110.8436552  78.6077047
  76.1258470 111.4290632  78.2211061  77.5714853 111.3742747  78.6672084
  70.7026117 107.9325689  79.0064181  71.4756993 107.3854676  78.8677057
  71.0551516 108.7969938  79.2178643  72.5411159 109.2602071  92.2131081
  72.2501025 110.1647702  92.0977747  73.1768144 109.3018599  92.9275150
  73.4667366 106.6378920  88.8032440  74.0630939 106.4134942  88.0889403
  73.5242338 105.8963665  89.4057888  73.0392395 104.0918355  76.6382631
  73.2917915 103.5699877  75.8766094  72.1016954 103.9284501  76.7409315
  78.0835678 103.0954134  84.4457374  78.8698767 102.6773557  84.0947791
  78.3474382 104.0000226  84.6139023  78.2545755 108.5326984  79.1446031
  77.6191588 108.6061610  79.8566936  77.9243161 109.1220583  78.4665110
  83.4844105 103.0329367  85.3490353  84.2169277 102.4628584  85.5828182
  82.7283460 102.6450967  85.7896858  72.7588683 105.9946461  78.8407006
  72.6424942 105.3191365  79.5088090  72.8690943 105.5078835  78.0239159
  75.1020224 105.4556608  82.5453695  74.7378432 104.9287229  83.2566617
  75.9587340 105.0655077  82.3720181  81.0069525  96.7450941  89.8084962
  80.6752850  97.6146352  89.5846176  80.4115138  96.4287225  90.4878992
  74.7425711 100.4846508  77.5415044  74.9100114 101.3526744  77.9085515
  74.5522880 100.6473790  76.6176333  77.5001045 108.9463487  89.2080874
  77.2001768 109.8488526  89.0996681  77.1552104 108.6795670  90.0602027
  70.9513526 105.3977284  85.2417579  70.0264023 105.2653498  85.4495270
  71.1997939 106.1771503  85.7387521  80.8998188 101.4646027  86.8878312
  79.9915066 101.3961436  86.5937073  80.8485784 101.9417972  87.7160137
  74.7214932 102.9404166  78.5261711  74.6014557 103.3861216  79.3647191
  74.0267521 103.2889483  77.9675249  68.3122337 105.0410557  86.0761368
  68.4414718 105.2945036  86.9900779  67.6319788 105.6338265  85.7566023
  72.4821824 115.7107807  82.1751842  72.4045854 116.6615632  82.2540323
  71.8783468 115.3653680  82.8326768  74.9739054 102.8835673  94.8313209
  74.1972388 103.4429593  94.8216073  75.6129617 103.3692456  95.3528079
  82.7659835  99.6662465  88.6656185  82.1234215  99.9594999  88.0195980
  82.2614763  99.5515386  89.4709382  80.4199998 103.4125639  79.3542045
  81.3317855 103.6453025  79.1789742  79.9109645 103.9962683  78.7917123
  73.2285426 105.6921126  94.3931176  73.9700111 106.2306170  94.1165999
  72.5222412 106.3187415  94.5502728  78.7040766 107.8350267  92.9903337
  79.1124122 107.3932677  92.2457970  77.9818028 107.2602894  93.2437530
  75.0571836 102.7722873  90.3636894  75.9033031 103.1962287  90.5071543
  74.9970474 102.1156498  91.0575457  79.0269581 108.3951457  86.7455626
  78.3978443 108.5597171  86.0431694  78.6395243 108.8093067  87.5166590
  82.9058813 109.3305895  84.0999990  82.2209851 109.7104796  83.5497023
  82.9902662 109.9401222  84.8331938  78.2071281 100.4327242  92.0218068
  77.9632213 101.1869302  91.4852344  78.4831212 100.8112589  92.8565315
  80.1609744 106.9765854  90.6995333  80.3726639 107.6197614  90.0229715
  80.1139492 106.1428171  90.2317264  77.7635973  99.5883675  87.6031906
  76.9020452  99.8864928  87.8948643  77.7898408  99.8054074  86.6712938
  74.5797543 108.1325865  84.0105711  75.0435888 108.4113568  83.2210334
  74.3154341 107.2309310  83.8278802  71.4721624 107.6797347  86.9485475
  72.0422981 108.1084615  86.3102959  72.0629736 107.3979931  87.6469660
  73.5166429 104.2549018  80.8195276  74.2190472 104.7070061  81.2869203
  73.1847057 103.6132836  81.4475170  71.9646790 102.8460774  95.1946486
  71.3345451 103.5277055  95.4281883  71.8582878 102.7343856  94.2499624
  67.2591763 102.5132570  86.1212410  66.4690817 102.7690099  85.6452521
  67.7503010 103.3280908  86.2264451  81.2755572 109.8537809  88.8717691
  82.0973016 109.4517997  88.5900372  81.2717975 109.7506044  89.8233807
  69.2106508 102.8777150  83.0795887  68.4137671 102.9895844  83.5979382
  68.9832100 103.2163802  82.2136777  75.0412176 109.4021853  91.0278401
  75.1056608 109.8642260  91.8636573  74.3323100 108.7719218  91.1560711
  65.5429466 102.7663061  88.5527401  65.7937504 103.6510071  88.8184977
  66.0789014 102.5867662  87.7802493  89.3661565 106.1976558  85.2202662
  88.6125274 105.6283956  85.0646667  89.5009106 106.1639222  86.1673297
  74.7560193 111.0689960  80.8957382  74.6205868 111.9141496  81.3242229
  75.2970006 111.2709238  80.1323315  71.2427533  97.1481540  97.5571737
  70.8494478  96.5947739  98.2319381  72.0593673  97.4592119  97.9478254
  68.2089591 108.5865398  81.4685307  68.7214111 109.3808649  81.6190871
  68.8612304 107.8891689  81.4018908  70.0184475 111.7031155  83.5508060
  70.1951104 112.6249119  83.3629044  70.8141309 111.3889574  83.9802440
  74.1595494  98.5639419  95.1491993  74.9005207  99.1646572  95.0696456
  74.3913417  97.8217057  94.5910036  69.3036832 103.7495786  93.4270223
  69.1890347 102.8481044  93.7277322  68.4481350 103.9959483  93.0755040
  71.1415791 113.2209328  89.5518402  71.6923216 113.0926392  88.7795396
  70.3027267 113.5204217  89.2013295  78.4809908 111.9716327  93.0539125
  78.4628383 112.7925208  92.5619394  79.4029828 111.8470402  93.2789266
  74.9382962 109.4860456  93.8962633  75.4711299 108.7248744  93.6661941
  74.4097043 109.1934108  94.6386788  78.1052657  94.5920522  89.4256275
  77.7616926  95.4822164  89.3495386  78.4731619  94.4022180  88.5625860
  66.1738507 106.9154053  82.2444877  67.0113729 107.3251061  82.0278585
  66.3516775 105.9753495  82.2145071  78.0702940 104.5829133  77.9328710
  77.5549563 105.3533738  78.1717098  77.7980248 103.9094269  78.5561772
  75.6550051  99.4278834  82.9913949  74.7991647  99.0385684  82.8119587
  76.0677002  99.5070795  82.1313734  77.1849197  96.9625177  87.3905508
  76.6813993  96.9255312  86.5773314  77.4779804  97.8717920  87.4502165
  73.4292083  97.0463907  86.3971690  74.2945080  96.8506716  86.0377580
  73.4969592  96.8174259  87.3241047  83.0437214 107.3361488  79.8681884
  82.2666656 106.9972647  79.4237046  83.7228695 107.3414111  79.1936849
  77.8589243 102.4556225  79.7588491  77.5539378 102.7702374  80.6098635
  78.8119685 102.5337645  79.8015824  76.3035675 108.6146449  81.4081445
  75.7757036 107.8799208  81.0954683  75.8023177 109.3921125  81.1621414
  81.2828521 106.8095469  86.5248492  80.6252195 107.4994731  86.6128620
  82.0868920 107.1991901  86.8682478  71.0354402  99.2766115  83.7688057
  71.6098154  99.0541296  83.0361250  71.6225385  99.3454809  84.5216658
  80.0933979 105.1639842  84.5752433  80.6065861 105.7969834  85.0774143
  80.7435203 104.5641037  84.2095793  71.3623989 101.3070576  77.7883942
  70.5261302 101.6445262  78.1093217  71.2228759 101.1719556  76.8511079
  73.3377070  96.1507364  82.4963126  72.6841482  95.8356381  81.8719741
  73.2957544  95.5283104  83.2222949  74.4488275 106.4326659  74.4116418
  73.5415337 106.2015912  74.6107567  74.9459307 105.6364278  74.5990400
  77.3556354 115.1424166  77.3313105  76.6818052 115.4455863  77.9398062
  77.7422176 115.9453246  76.9818562  76.5714810 102.6389297  86.8210774
  75.6537372 102.8604244  86.6632462  76.9874954 102.7135608  85.9622481
  77.3549858 104.0380713  81.9513454  78.1021677 104.5502110  81.6420576
  77.6241448 103.7164766  82.8117848  75.6276508 106.5339254  78.9340409
  74.7187727 106.2498287  79.0312878  75.6571592 106.9538332  78.0743715
  80.8595776 110.1445843  82.7031576  80.4058103 109.3036753  82.7596767
  80.2289742 110.7807242  83.0406356  79.8028695 101.0737829  83.9332244
  79.0651452 100.5615215  84.2642486  80.0555469 100.6338211  83.1215520
  79.3028715 111.9822340  83.6381394  79.5951689 112.5427397  82.9193760
  79.8127335 112.2750901  84.3934553  79.9040323  93.8514081  84.5274013
  80.2099199  92.9911445  84.2399928  80.6292927  94.4431701  84.3273007
  66.1964679 104.2544768  82.9155611  65.9989078 103.6614129  82.1906677
  65.6411343 103.9496978  83.6331550  74.1761402 104.1467874  85.0350204
  74.2310012 103.1941711  84.9592680  73.3652604 104.3027313  85.5191502
  75.3252596 108.0747997  76.2728487  74.8872026 107.3583856  75.8134124
  76.0663037 108.3024112  75.7113578  72.1153762 102.7644934  82.7940583
  71.3021628 103.0639105  83.2005775  72.6112756 102.3700623  83.5115065
  74.2662340 112.7602691  84.7274847  74.2238519 112.9863537  83.7983379
  75.1825039 112.5266066  84.8760649  77.7127974 103.2286759  91.6255477
  78.0677362 103.4558232  92.4849942  78.3600105 103.5605135  91.0032732
  83.4425711 106.3505194  82.3304806  83.3043609 106.5406790  81.4025995
  83.0861930 107.1124577  82.7872857  71.6067837 100.3363290  88.4101818
  72.2467216 100.1952049  87.7124781  70.7745367 100.0497803  88.0340420
  83.4695090 108.4181721  87.3416077  83.9031597 108.3257011  88.1899131
  84.1826671 108.3939222  86.7036093  72.3828141 109.6365720  84.5236810
  73.1768739 109.1416040  84.3219385  71.6719833 109.1083583  84.1604516
  77.2022985 112.0183816  88.8749178  77.2560008 112.5874752  89.6426894
  76.3337767 112.1885701  88.5103215  68.6910904 103.7808802  80.5996563
  67.7608492 103.7193257  80.8166525  68.7868376 103.2584755  79.8033204
  68.6096453 100.3063615  83.1874805  68.8703271 101.2208948  83.0783965
  69.4313626  99.8388057  83.3371417  70.0821379 101.7201372  90.3573629
  70.7544432 101.5118734  89.7086278  69.2551165 101.5223458  89.9178861
  84.3310640 108.4605422  89.8748963  84.5246530 109.3651233  90.1208238
  84.2311258 108.0012841  90.7087548  75.9846951  98.3463313  92.3739290
  75.3374866  99.0453262  92.2803766  76.7547966  98.7799457  92.7415538
  76.1611085 106.1844078  90.4336110  77.0903145 106.3355237  90.2605077
  75.7402115 106.2728098  89.5784756  74.9599417 110.2094742  88.2034647
  74.8210503 109.8413526  89.0760585  74.1714013 110.7242381  88.0318605
  75.5547569 115.3103838  79.5460184  75.7299324 114.8391882  80.3605806
  74.8680357 115.9369605  79.7741445  76.5104632 109.5876345  85.5923485
  76.1754465 109.5477115  86.4881135  76.0108578 108.9221061  85.1193895
  70.4848876 104.9943975  91.1176066  70.3468674 104.2624214  91.7187605
  71.3953799 104.9052875  90.8360254  79.4463824 106.9332379  75.8660545
  78.8292994 106.2079207  75.7693597  78.9780312 107.6941739  75.5227619
  73.1131177 104.7063934  90.6059746  73.8230795 104.0657126  90.5646364
  73.0700485 104.9576829  91.5285927  71.8260111 101.6929152  92.4255385
  71.2897468 101.2419890  93.0776982  71.2376819 101.8275061  91.6825850
  70.1208654 118.4593201  86.3200044  70.3605252 119.0911725  86.9979063
  69.2777851 118.1081241  86.6065403  71.2362370 101.1517803  74.9881849
  70.3591836 101.0306604  74.6244096  71.7120123 100.3603882  74.7360738
  81.1035363 109.6070871  91.7580305  80.2162141 109.2696793  91.8806704
  81.6733914 108.8753903  91.9949070  62.7564510 105.9394963  85.0823356
  63.4435550 105.6256693  84.4944371  62.6012638 106.8436328  84.8090608
  67.5599232 100.8285160  89.5108380  67.4757421 100.2210829  88.7758790
  66.7381938 101.3194178  89.5117876  74.6336516 114.2672324  88.7241548
  74.5606687 115.0727295  89.2360852  74.1913909 114.4664290  87.8989569
  74.4226296 113.5044094  82.2344369  73.6393817 114.0465774  82.3282594
  75.1219041 114.0218073  82.6338611  77.7322946  99.3138723  84.8778575
  78.2291645  98.5608686  84.5579645  76.9609927  99.3503040  84.3121784
  85.5852703 105.0179089  86.5196866  85.5742579 105.9003804  86.1490799
  84.7170083 104.6650640  86.3251403  77.0935199 114.1659158  90.8799707
  77.8063172 114.8006623  90.8075608  76.6025228 114.2623024  90.0639708
  78.8152726 108.0710410  82.4516998  77.8809005 108.1911873  82.2821703
  78.9929395 107.1682877  82.1877008  74.3157914 101.4556106  84.6050259
  73.9455702 100.9027147  85.2931165  74.8117007 100.8514240  84.0525260
  82.2025278 103.9127730  82.9867032  82.6685730 104.7455721  82.9127335
  82.6532778 103.4472711  83.6912291  72.1447113 111.9153601  91.7005277
  72.8456572 112.5490084  91.8534672  71.6742228 112.2568333  90.9400917
  80.2701509 110.2571551  79.9853184  80.5461353 110.1428146  80.8947059
  79.4006008 109.8589036  79.9465358  80.1741940  96.2808317  87.0257934
  79.2605020  96.5112544  87.1940141  80.6035042  96.3646761  87.8771966
  79.9448399 104.4698209  89.5257828  79.2919849 104.7174116  88.8710281
  80.3228779 103.6562347  89.1920305  76.9055573 114.5057902  83.6285998
  77.0877967 113.6879558  84.0913750  77.7288559 114.7225594  83.1910888
  77.2397738 113.4326087  80.8901047  77.7685505 112.9218542  80.2771209
  77.5025958 113.1168617  81.7546580  75.9935972 105.2118020  96.0123865
  75.3176609 105.1112149  96.6826240  76.8163606 105.0557233  96.4759862
  67.7414831 111.4489956  88.6336380  68.3268268 110.7033644  88.7664284
  67.5439670 111.7593913  89.5173044  70.5953486 114.4841204  83.6498822
  69.9263862 114.9687331  83.1662863  70.4566356 114.7310424  84.5642201
  62.3332486 104.0195556  87.3540823  62.3716585 103.4859147  88.1477941
  61.8272779 103.4930762  86.7351800  74.7358755 116.5184947  90.2481481
  75.2877063 116.6816569  91.0130566  75.0764948 117.1089385  89.5761506
  69.7123248  98.8660097  90.8503366  69.7764575  99.7274928  90.4380763
  69.6490368  98.2534099  90.1175724  69.1875521 100.9383230  94.4976400
  69.8147559 100.5560307  95.1113924  68.3303439 100.7197431  94.8632092
  65.9641063 102.7459659  80.4294755  66.2594504 101.8370337  80.3761808
  65.0629099 102.7247398  80.1075757  77.8727142 114.4666923  87.2345163
  77.7478282 113.6656663  86.7256108  78.5306233 114.9613116  86.7459133
  69.4935310 100.8215655  86.4122303  68.7721896 101.4351623  86.2729777
  70.2828566 101.3573420  86.3338949  79.9362051 112.2675943  88.8624713
  78.9892386 112.1481294  88.7903040  80.2844824 111.3798441  88.9450975
  72.2961624  98.1570082  92.6862955  72.8196026  98.4032378  93.4489264
  72.0773957  98.9890116  92.2666092  67.6928905 100.4273756  80.5534080
  67.3641611  99.5471135  80.3709186  68.0468276 100.3721425  81.4410469
  76.9408484 112.0628659  85.0629065  76.7933446 111.1345366  85.2436635
  77.7661977 112.0848750  84.5786141  70.8070728 100.7146726  80.9209557
  71.1466801 101.2432647  80.1988166  71.2542849 101.0527132  81.6968124
  80.5442606 112.8857218  86.1493938  81.4689153 112.6800079  86.0118389
  80.3757909 112.6373619  87.0583280  73.5014169  99.0983777  90.3712626
  73.1610989  98.2991590  90.7733305  72.7953175  99.3985488  89.7989459
  74.1530641  96.1833089  88.8239949  74.9756710  95.7093567  88.7018839
  74.3968704  96.9623573  89.3238635  72.7938875  99.2121348  79.1202850
  73.5147238  99.5902600  78.6166567  72.1704179  99.9310224  79.2237828
  76.9369998  99.9166497  80.0561183  77.1533613 100.7991135  79.7550011
  76.4564065  99.5252710  79.3266825  71.6769220 102.8752210  86.6331927
  71.5313800 103.1892513  87.5256209  71.1994423 103.4937110  86.0802826
  73.5365602  99.8654758  86.6812817  73.5227171  98.9695851  86.3445115
  74.2538031  99.8725422  87.3151103  75.3891733 100.2992098  88.7265944
  75.1309511 101.2209169  88.7250275  74.8576774  99.9022533  89.4166408
  80.3337922 113.4042885  81.5056030  80.5074799 112.8389308  80.7529882
  80.8266813 114.2043780  81.3235519  66.1514882 105.4157554  89.5719588
  65.6068350 106.1917362  89.7039863  67.0294232 105.7628359  89.4138710
  72.9402498  98.7469138  81.9500387  73.0618410  97.8185784  82.1491274
  72.6504541  98.7607824  81.0378702  75.8093689  96.4324049  85.0867107
  75.8315386  96.4963382  84.1319086  76.2261748  95.5928557  85.2807613
  86.1877313 106.1679308  83.1246329  86.6308459 105.4186633  82.7265453
  85.3103823 106.1589444  82.7420061  81.3213094 112.7209650  78.6052928
  82.0163999 113.3416342  78.8240242  81.6636245 111.8705001  78.8805306
  66.9380904 104.5427451  92.4649745  66.1962640 104.6910086  93.0514376
  66.6173648 104.8035716  91.6016495  83.2204517 110.1709355  80.1340259
  83.7455842 110.5096628  79.4089579  83.1326870 109.2356370  79.9503393
  74.8824566 114.0843429  92.2630135  75.1911693 113.8392576  93.1352835
  75.6800048 114.2890067  91.7749005  74.9045178 116.2381338  84.4935512
  74.4650169 115.7457717  85.1868368  75.6553295 115.6954306  84.2527587
  67.3837517 112.4292879  84.4960140  68.2095537 112.1296651  84.1158783
  67.0331569 111.6600502  84.9449928  72.3519050 111.7819347  86.5657813
  71.7299060 111.1190052  86.2660041  73.0223917 111.8080479  85.8831461
  65.5846122 110.3479206  85.4549073  64.7478031 109.9201380  85.2733075
  65.5569768 110.5411649  86.3919865  72.4243578 100.2601135  96.1590319
  72.4731733 101.1363258  95.7768089  72.9666092  99.7178529  95.5861963
  83.0296299 107.6534725  92.7524185  83.0794304 107.4884733  93.6939708
  82.9210222 106.7861984  92.3622066  71.9132557 110.3323271  80.0416274
  72.0620678 111.0158735  79.3882947  72.7199001 110.3128361  80.5565730
  80.3200061 103.6365653  94.0683492  81.2209924 103.4972118  93.7767490
  80.3948036 103.8020108  95.0081669  74.6542866 101.0132508  92.9136678
  73.7846176 101.3066074  92.6419267  74.8902347 101.5972953  93.6343942
  85.7310178 107.6384546  85.5168777  86.5657069 108.0774350  85.6806337
  85.8669307 107.1623200  84.6977023  82.7801684 105.1964281  91.4646265
  83.2555805 105.3891928  90.6565116  81.8567249 105.2523467  91.2189648
  69.6685190 106.3588448  81.0477343  69.4231232 105.4550778  81.2457553
  69.8381105 106.3605599  80.1056821  77.3581900  97.2312125  90.4302099
  77.8763844  97.9673152  90.1048587  77.0037033  97.5376118  91.2648858
  68.9380838 102.0916806  78.5463504  68.2450083 102.1661161  77.8903540
  68.6932590 101.3277150  79.0685021  77.6094494  93.6512407  85.9502995
  77.8896248  92.9835596  86.5763422  78.3945101  93.8441503  85.4377659
  75.4127963 112.8271401  77.5128021  74.8401930 113.4461588  77.0598493
  75.9860757 113.3770763  78.0467943  81.4803353 102.0730041  89.6974570
  82.4320776 102.1728139  89.7186794  81.3106803 101.2808310  90.2072655
  79.5017732  99.1585625  89.8833971  78.9067664  99.4390637  89.1880460
  79.2167429  99.6479525  90.6550712  78.6325223 113.1108551  78.6436604
  79.5655896 113.0454113  78.8469479  78.5448435 113.9464818  78.1851136
  81.2613239 112.4274422  75.6040551  81.1826871 112.0934285  76.4976309
  82.0822906 112.9196190  75.6032024  83.9591430 105.2936161  88.8116870
  83.9267751 104.3552162  88.9976554  84.5692054 105.3720198  88.0782695
  75.7974761 104.1632214  74.8544074  76.7433866 104.0338422  74.9232492
  75.4189006 103.4246876  75.3313502  84.1085919 102.0847204  88.8575153
  83.5924968 101.3005661  88.6705082  84.9925867 101.7565921  89.0221673
  81.7696646  95.8288220  84.8170966  81.5721467  95.5203308  85.7014298
  82.3796351  96.5549859  84.9468896  89.7767980 106.3552168  87.9522907
  90.5071369 106.0937456  88.5130610  89.1674926 105.6180890  87.9924975
  87.8583277 104.4960030  88.5497358  87.1316441 104.3615995  87.9413849
  87.4430564 104.8036859  89.3554076  73.9817678 102.0882190  74.7898959
  73.0749134 101.7915303  74.8661673  74.2593659 101.7912008  73.9233245
  64.8995619 103.4088554  85.2398006  64.5798403 102.5553862  84.9472380
  64.3529047 103.6237132  85.9955973  68.6775526 106.1250995  88.9567512
  68.8961536 107.0568103  88.9755546  69.0901300 105.7658969  89.7422316
  75.5979744  96.6319080  80.9443200  74.7880473  96.2866165  81.3198446
  76.2864161  96.3226624  81.5330812  77.5270292  95.7097127  82.5667497
  78.0801331  96.1292580  83.2257520  77.7640379  94.7832875  82.6090453
  73.5503392 101.6984201  98.3470261  73.4500119 102.6478558  98.2782352
  73.3324934 101.3702439  97.4746331  72.7516463  98.9469126  74.9310938
  73.6135627  99.2724024  75.1906756  72.9366807  98.1600622  74.4184004
  64.7683879 107.0291465  87.2091127  64.0747350 106.6145418  86.6961082
  65.5156870 107.0712002  86.6124546  80.9049100  97.8197652  82.0746161
  80.3247769  98.4782456  81.6924214  80.6385032  96.9974997  81.6633579
  79.3552666  97.2202710  84.2767482  79.8552444  97.3319244  83.4681800
  79.9988274  96.9163763  84.9168290  73.4134662 105.1281339  97.1635323
  72.9301743 105.9281700  97.3699212  73.4995601 105.1389284  96.2102767
  66.6820621 106.9609719  85.0857142  66.6591310 107.0597406  84.1339025
  66.9921258 107.8074870  85.4074308  69.3407999 109.0185874  89.2003756
  70.2951253 108.9869816  89.1333688  69.1420523 108.5576498  90.0153982
  69.9307381 107.5886990  91.7674554  70.7500270 108.0831069  91.7909391
  70.2044189 106.6718958  91.7392122  79.6873978  99.9797742  81.1302510
  78.7999833 100.2647393  80.9122704  80.1027967  99.8191506  80.2829786
  83.0388514 100.0044263  84.8456849  83.8148904 100.4940716  85.1181466
  82.3136648 100.4302318  85.3028718  85.4761072 100.7171883  85.9030789
  86.0705563 100.4767619  85.1924098  85.5487656  99.9979013  86.5304326
  67.6958228 114.5605494  86.2173954  67.5612696 113.8005894  85.6511952
  67.2790290 115.2846393  85.7502743  78.8317191 109.7442417  75.2250530
  79.5353041 109.9492420  75.8408185  78.1079840 110.3119179  75.4899613
  79.6615001 105.4952278  81.3452800  79.6050203 105.9520830  80.5060432
  80.2143344 104.7342963  81.1675642  83.4719807 101.2842010  82.1702919
  83.2156741 100.8838646  83.0011127  82.8472675 101.9985804  82.0453058
  87.7832145 104.0238084  84.6774211  87.2231703 104.0931273  85.4505773
  87.1775648 103.8479068  83.9573707  70.8527354 115.4574811  86.4292397
  70.7359738 116.4020243  86.3271087  70.0319800 115.1548372  86.8178196
  80.7403888 110.1824946  77.2748990  81.5749492 109.7506145  77.0926464
  80.5788231 110.0106960  78.2025884  80.3949781 106.6857060  78.6405329
  80.3398584 106.5201331  77.6993773  79.7695836 107.3933093  78.7967519
  65.1842296 101.9225124  92.4666751  65.8301159 101.4124078  92.9553976
  64.9759447 102.6593806  93.0410176  73.7045906  96.1865169  78.2190647
  73.6924576  97.1307009  78.3758918  74.5969328  96.0035314  77.9250109
  71.8781868 116.1103073  89.6448325  72.7809115 116.1426683  89.9614820
  71.6519238 115.1803523  89.6594661  73.6335470 114.8634059  86.3058404
  72.6831101 114.8635921  86.1922776  73.9367956 114.1166794  85.7894439
  77.5198026  92.7807945  82.4736584  76.7530421  92.2266432  82.6193266
  77.9308731  92.8529814  83.3350736  69.5239787  99.0692741  96.5641765
  70.3871248  98.7129546  96.7745090  68.9505197  98.7306636  97.2517170
  82.0364686 122.5057502  83.2962582  81.4729551 122.4147439  82.5278870
  81.9217081 121.6857406  83.7765075  81.5419871 123.2617607  79.0064181
  82.3150747 122.7146594  78.8677057  81.8945270 124.1261856  79.2178643
  83.8786149 119.4210273  76.6382631  84.1311670 118.8991794  75.8766094
  82.9410708 119.2576418  76.7409315  88.9229432 118.4246051  84.4457374
  89.7092521 118.0065474  84.0947791  89.1868136 119.3292143  84.6139023
  83.5982438 121.3238379  78.8407006  83.4818696 120.6483282  79.5088090
  83.7084698 120.8370753  78.0239159  85.9413979 120.7848526  82.5453695
  85.5772186 120.2579147  83.2566617  86.7981095 120.3946995  82.3720181
  85.5819466 115.8138426  77.5415044  85.7493868 116.6818662  77.9085515
  85.3916635 115.9765707  76.6176333  81.7907281 120.7269201  85.2417579
  80.8657777 120.5945416  85.4495270  82.0391694 121.5063421  85.7387521
  85.5608687 118.2696083  78.5261711  85.4408312 118.7153134  79.3647191
  84.8661275 118.6181401  77.9675249  79.1516092 120.3702475  86.0761368
  79.2808473 120.6236954  86.9900779  78.4713543 120.9630183  85.7566023
  91.2593753 118.7417556  79.3542045  92.1711609 118.9744943  79.1789742
  90.7503400 119.3254601  78.7917123  88.6029728 114.9175592  87.6031906
  87.7414207 115.2156846  87.8948643  88.6292162 115.1345991  86.6712938
  85.4191297 123.4617783  84.0105711  85.8829643 123.7405486  83.2210334
  85.1548095 122.5601227  83.8278802  84.3560183 119.5840935  80.8195276
  85.0584226 120.0361979  81.2869203  84.0240812 118.9424754  81.4475170
  78.0985517 117.8424488  86.1212410  77.3084571 118.0982016  85.6452521
  78.5896764 118.6572826  86.2264451  80.0500262 118.2069067  83.0795887
  79.2531426 118.3187761  83.5979382  79.8225855 118.5455719  82.2136777
  76.3823220 118.0954978  88.5527401  76.6331259 118.9801988  88.8184977
  76.9182768 117.9159580  87.7802493  79.0483345 123.9157316  81.4685307
  79.5607866 124.7100566  81.6190871  79.7006058 123.2183606  81.4018908
  88.9446411 109.9212440  89.4256275  88.6010681 110.8114081  89.3495386
  89.3125374 109.7314097  88.5625860  77.0132262 122.2445970  82.2444877
  77.8507484 122.6542979  82.0278585  77.1910530 121.3045412  82.2145071
  88.9096694 119.9121051  77.9328710  88.3943317 120.6825656  78.1717098
  88.6374003 119.2386187  78.5561772  86.4943805 114.7570752  82.9913949
  85.6385401 114.3677602  82.8119587  86.9070757 114.8362712  82.1313734
  88.0242952 112.2917095  87.3905508  87.5207747 112.2547230  86.5773314
  88.3173559 113.2009838  87.4502165  84.2685838 112.3755825  86.3971690
  85.1338834 112.1798633  86.0377580  84.3363347 112.1466176  87.3241047
  88.6982997 117.7848143  79.7588491  88.3933133 118.0994292  80.6098635
  89.6513439 117.8629563  79.8015824  81.8748157 114.6058033  83.7688057
  82.4491909 114.3833214  83.0361250  82.4619139 114.6746727  84.5216658
  82.2017744 116.6362494  77.7883942  81.3655056 116.9737180  78.1093217
  82.0622513 116.5011473  76.8511079  84.1770824 111.4799281  82.4963126
  83.5235237 111.1648299  81.8719741  84.1351299 110.8575022  83.2222949
  85.2882029 121.7618577  74.4116418  84.3809091 121.5307830  74.6107567
  85.7853061 120.9656196  74.5990400  88.1943613 119.3672631  81.9513454
  88.9415431 119.8794028  81.6420576  88.4635202 119.0456683  82.8117848
  86.4670263 121.8631171  78.9340409  85.5581482 121.5790204  79.0312878
  86.4965347 122.2830250  78.0743715  90.6422450 116.4029747  83.9332244
  89.9045206 115.8907133  84.2642486  90.8949223 115.9630129  83.1215520
  90.7434077 109.1805999  84.5274013  91.0492954 108.3203362  84.2399928
  91.4686682 109.7723619  84.3273007  77.0358433 119.5836686  82.9155611
  76.8382833 118.9906046  82.1906677  76.4805097 119.2788896  83.6331550
  85.0155157 119.4759792  85.0350204  85.0703767 118.5233628  84.9592680
  84.2046359 119.6319231  85.5191502  82.9547517 118.0936852  82.7940583
  82.1415382 118.3931022  83.2005775  83.4506511 117.6992541  83.5115065
  82.4461591 115.6655207  88.4101818  83.0860971 115.5243966  87.7124781
  81.6139122 115.3789721  88.0340420  79.5304659 119.1100719  80.5996563
  78.6002247 119.0485175  80.8166525  79.6262131 118.5876672  79.8033204
  79.4490208 115.6355532  83.1874805  79.7097025 116.5500866  83.0783965
  80.2707380 115.1679975  83.3371417  82.0756124 116.4809721  74.9881849
  81.1985590 116.3598522  74.6244096  82.5513877 115.6895799  74.7360738
  73.5958264 121.2686881  85.0823356  74.2829304 120.9548611  84.4944371
  73.4406393 122.1728245  84.8090608  78.3992986 116.1577077  89.5108380
  78.3151175 115.5502747  88.7758790  77.5775693 116.6486096  89.5117876
  88.5716700 114.6430641  84.8778575  89.0685400 113.8900603  84.5579645
  87.8003682 114.6794958  84.3121784  85.1551669 116.7848024  84.6050259
  84.7849456 116.2319064  85.2931165  85.6510761 116.1806157  84.0525260
  91.0135695 111.6100234  87.0257934  90.0998775 111.8404461  87.1940141
  91.4428796 111.6938678  87.8771966  73.1726240 119.3487474  87.3540823
  73.2110340 118.8151065  88.1477941  72.6666533 118.8222680  86.7351800
  80.5517003 114.1952015  90.8503366  80.6158329 115.0566846  90.4380763
  80.4884123 113.5826016  90.1175724  76.8034818 118.0751576  80.4294755
  77.0988259 117.1662255  80.3761808  75.9022854 118.0539316  80.1075757
  80.3329065 116.1507573  86.4122303  79.6115651 116.7643541  86.2729777
  81.1222321 116.6865338  86.3338949  78.5322659 115.7565674  80.5534080
  78.2035366 114.8763053  80.3709186  78.8862030 115.7013343  81.4410469
  81.6464483 116.0438644  80.9209557  81.9860555 116.5724565  80.1988166
  82.0936603 116.3819050  81.6968124  84.9924395 111.5125007  88.8239949
  85.8150465 111.0385485  88.7018839  85.2362459 112.2915491  89.3238635
  83.6332630 114.5413265  79.1202850  84.3540992 114.9194518  78.6166567
  83.0097934 115.2602142  79.2237828  87.7763753 115.2458414  80.0561183
  87.9927367 116.1283052  79.7550011  87.2957820 114.8544628  79.3266825
  82.5162974 118.2044128  86.6331927  82.3707555 118.5184431  87.5256209
  82.0388178 118.8229028  86.0802826  84.3759357 115.1946676  86.6812817
  84.3620926 114.2987769  86.3445115  85.0931785 115.2017339  87.3151103
  83.7796253 114.0761056  81.9500387  83.9012164 113.1477702  82.1491274
  83.4898295 114.0899742  81.0378702  86.6487443 111.7615966  85.0867107
  86.6709140 111.8255299  84.1319086  87.0655502 110.9220475  85.2807613
  78.2231272 127.7584797  84.4960140  79.0489292 127.4588569  84.1158783
  77.8725324 126.9892419  84.9449928  76.4239877 125.6771123  85.4549073
  75.5871785 125.2493298  85.2733075  76.3963522 125.8703567  86.3919865
  80.5078945 121.6880366  81.0477343  80.2624987 120.7842696  81.2457553
  80.6774859 121.6897517  80.1056821  79.7774592 117.4208724  78.5463504
  79.0843837 117.4953079  77.8903540  79.5326344 116.6569067  79.0685021
  88.4488249 108.9804325  85.9502995  88.7290003 108.3127514  86.5763422
  89.2338856 109.1733421  85.4377659  86.6368516 119.4924132  74.8544074
  87.5827621 119.3630340  74.9232492  86.2582761 118.7538794  75.3313502
  92.6090400 111.1580138  84.8170966  92.4115221 110.8495226  85.7014298
  93.2190106 111.8841777  84.9468896  84.8211433 117.4174108  74.7898959
  83.9142888 117.1207221  74.8661673  85.0987414 117.1203926  73.9233245
  75.7389373 118.7380471  85.2398006  75.4192158 117.8845780  84.9472380
  75.1922802 118.9529050  85.9955973  86.4373499 111.9610998  80.9443200
  85.6274227 111.6158083  81.3198446  87.1257916 111.6518542  81.5330812
  88.3664047 111.0389045  82.5667497  88.9195086 111.4584498  83.2257520
  88.6034133 110.1124793  82.6090453  83.5910218 114.2761043  74.9310938
  84.4529382 114.6015942  75.1906756  83.7760562 113.4892539  74.4184004
  75.6077633 122.3583383  87.2091127  74.9141105 121.9437336  86.6961082
  76.3550624 122.4003919  86.6124546  91.7442854 113.1489570  82.0746161
  91.1641523 113.8074374  81.6924214  91.4778787 112.3266914  81.6633579
  90.1946420 112.5494627  84.2767482  90.6946199 112.6611162  83.4681800
  90.8382028 112.2455680  84.9168290  77.5214376 122.2901637  85.0857142
  77.4985064 122.3889324  84.1339025  77.8315012 123.1366788  85.4074308
  90.5267732 115.3089660  81.1302510  89.6393587 115.5939311  80.9122704
  90.9421721 115.1483424  80.2829786  94.3113562 116.6133928  82.1702919
  94.0550496 116.2130564  83.0011127  93.6866430 117.3277722  82.0453058
  84.5439661 111.5157086  78.2190647  84.5318330 112.4598926  78.3758918
  85.4363082 111.3327232  77.9250109  88.3591780 108.1099863  82.4736584
  87.5924176 107.5558350  82.6193266  88.7702485 108.1821732  83.3350736
  24.3325638   5.7305214  74.0949473  24.9704048   5.6111961  73.3912813
  24.2146481   6.6786058  74.1537425  21.1415344   5.6832642  74.0310998
  20.8033856   5.5673707  73.1431533  22.0105112   5.2823807  74.0112004
  17.0002160   7.5368118  70.0207889  16.4367025   7.4458055  69.2524176
  16.8854555   6.7168023  70.5010381  21.6235127   6.8367494  79.9897203
  21.6123768   6.4420292  79.1177707  21.7855767   6.1033566  80.5830975
  14.5466592   9.0319310  72.8592109  15.3387884   8.6910135  72.4438408
  14.7863242   9.1414285  73.7794262  22.5801719  11.2039086  65.3322354
  21.9289698  11.7893167  64.9456367  23.3746081  11.7345281  65.3917391
  16.5057346   8.2928223  65.7309488  17.2788222   7.7457210  65.5922364
  16.8582745   9.1572473  65.9423949  18.3442388   9.6204606  78.9376387
  18.0532254  10.5250236  78.8223054  18.9799373   9.6621133  79.6520457
  19.2698595   6.9981454  75.5277747  19.8662167   6.7737477  74.8134710
  19.3273567   6.2566200  76.1303195  23.8866906   3.4556668  71.1702681
  24.6729996   3.0376091  70.8193098  24.1505611   4.3602760  71.3384329
  24.0576984   8.8929518  65.8691338  23.4222817   8.9664145  66.5812242
  23.7274390   9.4823117  65.1910417  29.2875334   3.3931901  72.0735660
  30.0200505   2.8231118  72.3073489  28.5314689   3.0053501  72.5142165
  18.5619912   6.3548995  65.5652313  18.4456170   5.6793899  66.2333397
  18.6722172   5.8681369  64.7484466  20.9051453   5.8159143  69.2699002
  20.5409660   5.2889763  69.9811923  21.7618569   5.4257612  69.0965487
  23.3032273   9.3066021  75.9326181  23.0032996  10.2091060  75.8241988
  22.9583333   9.0398204  76.7847334  26.7029417   1.8248561  73.6123618
  25.7946295   1.7563970  73.3182379  26.6517013   2.3020506  74.4405444
  18.2853053  16.0710341  68.8997149  18.2077083  17.0218167  68.9785629
  17.6814697  15.7256214  69.5572075  28.5691064   0.0265000  75.3901492
  27.9265444   0.3197533  74.7441287  28.0645992  -0.0882080  76.1954689
  26.2231227   3.7728173  66.0787351  27.1349083   4.0055560  65.9035049
  25.7140874   4.3565217  65.5162430  19.0316655   6.0523660  81.1176482
  19.7731340   6.5908704  80.8411306  18.3253641   6.6789949  81.2748034
  24.5071995   8.1952801  79.7148644  24.9155351   7.7535211  78.9703276
  23.7849256   7.6205428  79.9682837  24.8300810   8.7553991  73.4700933
  24.2009672   8.9199705  72.7677001  24.4426472   9.1695601  74.2411897
  28.7090041   9.6908429  70.8245297  28.0241080  10.0707331  70.2742330
  28.7933891  10.3003756  71.5577244  25.9640973   7.3368388  77.4240640
  26.1757868   7.9800148  76.7475021  25.9170721   6.5030705  76.9562570
  20.3828771   8.4928399  70.7351018  20.8467117   8.7716102  69.9455640
  20.1185570   7.5911844  70.5524109  17.2752852   8.0399881  73.6730781
  17.8454210   8.4687149  73.0348266  17.8660964   7.7582466  74.3714967
  27.0786801  10.2140344  75.5962997  27.9004245   9.8120531  75.3145679
  27.0749204  10.1108578  76.5479113  20.8443404   9.7624387  77.7523708
  20.9087837  10.2244794  78.5881880  20.1354328   9.1321752  77.8806018
  35.1692794   6.5579092  71.9447969  34.4156502   5.9886490  71.7891973
  35.3040335   6.5241757  72.8918604  20.5591422  11.4292494  67.6202688
  20.4237097  12.2744030  68.0487536  21.1001235  11.6311772  66.8568622
  14.0120819   8.9467932  68.1930613  14.5245340   9.7411183  68.3436178
  14.6643532   8.2494223  68.1264215  15.8215704  12.0633689  70.2753367
  15.9982333  12.9851653  70.0874350  16.6172538  11.7492108  70.7047746
  22.1859898  12.0516061  81.7503030  21.7423753  11.2652440  81.4323935
  22.8477112  12.2395211  81.0846921  16.9447020  13.5811863  76.2763709
  17.4954445  13.4528926  75.5040703  16.1058496  13.8806752  75.9258602
  24.2841137  12.3318861  79.7784432  24.2659612  13.1527742  79.2864701
  25.2061057  12.2072936  80.0034573  20.7414191   9.8462990  80.6207940
  21.2742527   9.0851279  80.3907248  20.2128272   9.5536642  81.3632095
  23.8734168   4.9431667  64.6574017  23.3580792   5.7136272  64.8962404
  23.6011477   4.2696804  65.2807078  28.8468443   7.6964022  66.5927190
  28.0697885   7.3575182  66.1482352  29.5259923   7.7016645  65.9182155
  23.6620472   2.8158760  66.4833798  23.3570607   3.1304909  67.3343941
  24.6150914   2.8940179  66.5261131  22.1066903   8.9748983  68.1326752
  21.5788265   8.2401742  67.8199989  21.6054406   9.7523659  67.8866720
  27.0859749   7.1698003  73.2493798  26.4283424   7.8597265  73.3373927
  27.8900149   7.5594435  73.5927785  25.8965208   5.5242376  71.2997740
  26.4097090   6.1572368  71.8019450  26.5466432   4.9243572  70.9341100
  20.2519504   6.7929193  61.1361725  19.3446565   6.5618447  61.3352874
  20.7490536   5.9966812  61.3235707  23.1587582  15.5026700  64.0558411
  22.4849281  15.8058397  64.6643369  23.5453404  16.3055781  63.7063868
  22.3746039   2.9991832  73.5456081  21.4568600   3.2206779  73.3877769
  22.7906183   3.0738142  72.6867788  23.1581087   4.3983247  68.6758761
  23.9052906   4.9104644  68.3665883  23.4272676   4.0767300  69.5363154
  21.4307737   6.8941788  65.6585715  20.5218956   6.6100821  65.7558185
  21.4602821   7.3140867  64.7989022  26.6627004  10.5048377  69.4276883
  26.2089332   9.6639287  69.4842073  26.0320971  11.1409776  69.7651663
  25.6059924   1.4340363  70.6577550  24.8682681   0.9217750  70.9887793
  25.8586698   0.9940745  69.8460827  25.1059944  12.3424874  70.3626701
  25.3982918  12.9029931  69.6439067  25.6158564  12.6353435  71.1179860
  21.1283825   8.4350532  62.9973794  20.6903255   7.7186391  62.5379431
  21.8694266   8.6626646  62.4358885  20.0693569  13.1205225  71.4520154
  20.0269748  13.3466072  70.5228686  20.9856268  12.8868600  71.6005955
  23.5159203   3.5889293  78.3500783  23.8708590   3.8160766  79.2095249
  24.1631334   3.9207670  77.7278039  29.2456940   6.7107729  69.0550112
  29.1074838   6.9009325  68.1271302  28.8893158   7.4727111  69.5118163
  29.2726319   8.7784256  74.0661384  29.7062826   8.6859545  74.9144438
  29.9857900   8.7541756  73.4281400  18.1859370   9.9968254  71.2482117
  18.9799968   9.5018574  71.0464692  17.4751062   9.4686117  70.8849822
  23.0054214  12.3786350  75.5994484  23.0591236  12.9477286  76.3672200
  22.1368995  12.5488235  75.2348522  30.1341869   8.8207956  76.5994269
  30.3277759   9.7253767  76.8453544  30.0342487   8.3615375  77.4332854
  25.1956977   8.9714699  82.1735150  25.0442484   8.7425251  81.2565234
  25.1861657   9.9285300  82.1866495  21.9642314   6.5446612  77.1581416
  22.8934374   6.6957771  76.9850384  21.5433344   6.6330633  76.3030063
  20.7630646  10.5697276  74.9279954  20.6241731  10.2016061  75.8005892
  19.9745242  11.0844916  74.7563912  21.3578798  15.6706373  66.2705490
  21.5330553  15.1994416  67.0851113  20.6711586  16.2972139  66.4986751
  22.3135861   9.9478879  72.3168792  21.9785693   9.9079649  73.2126442
  21.8139806   9.2823595  71.8439202  25.2495052   7.2934913  62.5905851
  24.6324223   6.5681741  62.4938904  24.7811541   8.0544274  62.2472926
  18.9162405   5.0666468  77.3305052  19.6262024   4.4259660  77.2891671
  18.8731714   5.3179363  78.2531233  26.9049184  12.0033822  80.2511632
  26.8461730  11.3193042  79.5842215  27.3068702  12.7452812  79.7992258
  15.9239883  18.8195735  73.0445351  16.1636481  19.4514260  73.7224369
  15.0809079  18.4683775  73.3310710  26.9066591   9.9673406  78.4825611
  26.0193370   9.6299327  78.6052010  27.4765142   9.2356437  78.7194377
  20.4367745  14.6274858  75.4486855  20.3637916  15.4329829  75.9606159
  19.9945138  14.8266824  74.6234876  20.2257524  13.8646628  68.9589676
  19.4425046  14.4068308  69.0527901  20.9250270  14.3820608  69.3583917
  31.3883932   5.3781623  73.2442173  31.3773808   6.2606338  72.8736106
  30.5201311   5.0253174  73.0496710  22.8966428  14.5261692  77.6045013
  23.6094400  15.1609157  77.5320915  22.4056457  14.6225558  76.7885015
  24.6183955   8.4312945  69.1762305  23.6840234   8.5514407  69.0067009
  24.7960624   7.5285411  68.9122315  28.0056507   4.2730264  69.7112339
  28.4716959   5.1058255  69.6372642  28.4564007   3.8075245  70.4157598
  17.9478342  12.2756135  78.4250584  18.6487801  12.9092618  78.5779978
  17.4773457  12.6170867  77.6646223  26.0732738  10.6174085  66.7098491
  26.3492582  10.5030680  67.6192365  25.2037236  10.2191570  66.6710664
  25.7479628   4.8300743  76.2503134  25.0951078   5.0776650  75.5955587
  26.1260008   4.0164881  75.9165612  22.7086802  14.8660436  70.3531305
  22.8909196  14.0482092  70.8159057  23.5319788  15.0828128  69.9156195
  23.0428967  13.7928621  67.6146353  23.5716734  13.2821076  67.0016515
  23.3057187  13.4771151  68.4791886  21.7967201   5.5720554  82.7369172
  21.1207838   5.4714683  83.4071547  22.6194835   5.4159768  83.2005169
  13.5446060  11.8092490  75.3581687  14.1299497  11.0636178  75.4909591
  13.3470898  12.1196447  76.2418351  16.3984715  14.8443738  70.3744129
  15.7295090  15.3289865  69.8908169  16.2597585  15.0912958  71.2887508
  20.5389984  16.8787481  76.9726787  21.0908292  17.0419103  77.7375873
  20.8796177  17.4691919  76.3006812  25.3900858  11.7048739  82.8275442
  25.9340762  12.3178697  82.3330397  24.8087703  12.2628317  83.3442455
  23.6758371  14.8269457  73.9590470  23.5509510  14.0259197  73.4501415
  24.3337462  15.3215650  73.4704440  25.7393279  12.6278477  75.5870020
  24.7923615  12.5083828  75.5148346  26.0876052  11.7400975  75.6696281
  22.7439713  12.4231193  71.7874372  22.5964675  11.4947901  71.9681942
  23.5693206  12.4451284  71.3031447  26.3473834  13.2459752  72.8739245
  27.2720382  13.0402613  72.7363696  26.1789138  12.9976153  73.7828586
  26.1369151  13.7645419  68.2301336  26.3106028  13.1991842  67.4775189
  26.6298042  14.5646314  68.0480826  31.9908542   6.5281842  69.8491636
  32.4339688   5.7789168  69.4510759  31.1135052   6.5191979  69.4665368
  27.1244323  13.0812184  65.3298234  27.8195228  13.7018876  65.5485549
  27.4667473  12.2307535  65.6050612  29.0235746  10.5311889  66.8585565
  29.5487070  10.8699162  66.1334885  28.9358099   9.5958905  66.6748700
  20.6855795  14.4445963  78.9875442  20.9942921  14.1995110  79.8598141
  21.4831277  14.6492601  78.4994312  20.7076407  16.5983873  71.2180818
  20.2681397  16.1060251  71.9113675  21.4584524  16.0556840  70.9772894
  13.1868746  12.7895413  71.2205446  14.0126766  12.4899185  70.8404090
  12.8362798  12.0203036  71.6695235  18.1550279  12.1421882  73.2903120
  17.5330288  11.4792587  72.9905348  18.8255146  12.1683014  72.6076768
  28.7129652  11.1644793  82.1636763  27.9225196  11.1468932  81.6241263
  28.4763007  11.7033087  82.9185800  28.8327527   8.0137259  79.4769492
  28.8825532   7.8487267  80.4185014  28.7241451   7.1464518  79.0867372
  17.7163786  10.6925805  66.7661581  17.8651906  11.3761269  66.1128253
  18.5230230  10.6730895  67.2811036  26.1231290   3.9968187  80.7928798
  27.0241153   3.8574652  80.5012796  26.1979264   4.1622642  81.7326976
  30.3345724  10.4334201  79.7211513  30.0430533  10.7964181  80.5574974
  29.7217856   9.7201209  79.5424845  31.5341407   7.9987081  72.2414083
  32.3688298   8.4376885  72.4051644  31.6700535   7.5225734  71.4222329
  28.5832912   5.5566815  78.1891571  29.0587034   5.7494462  77.3810423
  27.6598478   5.6126001  77.9434955  21.2159192  13.1873935  64.2373328
  20.6433159  13.8064123  63.7843800  21.7891985  13.7373297  64.7713250
  27.2834581   2.4332576  76.4219877  28.2352004   2.5330673  76.4432101
  27.1138032   1.6410844  76.9317961  24.4356451  13.4711086  65.3681910
  25.3687125  13.4056647  65.5714786  24.3479664  14.3067352  64.9096443
  27.0644468  12.7876956  62.3285858  26.9858100  12.4536820  63.2221616
  27.8854135  13.2798724  62.3277330  29.7622659   5.6538695  75.5362176
  29.7298979   4.7154696  75.7221860  30.3723283   5.7322732  74.8028001
  21.6005990   4.5234748  61.5789381  22.5465095   4.3940956  61.6477799
  21.2220235   3.7849410  62.0558809  29.9117148   2.4449739  75.5820460
  29.3956196   1.6608195  75.3950389  30.7957096   2.1168455  75.7466979
  35.5799209   6.7154702  74.6768213  36.3102598   6.4539990  75.2375917
  34.9706155   5.9783424  74.7170281  33.6614506   4.8562565  75.2742664
  32.9347670   4.7218530  74.6659156  33.2461793   5.1639393  76.0799383
  21.4844683   8.5752494  83.0390038  22.4047692   8.7531093  83.2330084
  21.4494266   7.6308540  82.8869737  19.2165891   5.4883874  83.8880629
  18.7332972   6.2884234  84.0944518  19.3026830   5.4991818  82.9348073
  15.1439228   9.3788408  75.9249063  16.0982482   9.3472351  75.8578995
  14.9451752   8.9179032  76.7399289  15.7338610   7.9489524  78.4919861
  16.5531499   8.4433603  78.5154698  16.0075418   7.0321492  78.4637428
  25.4905206   0.3400277  67.8547816  24.6031061   0.6249927  67.6368011
  25.9059195   0.1794040  67.0075093  28.8419743   0.3646798  71.5702155
  29.6180133   0.8543250  71.8426772  28.1167877   0.7904852  72.0274025
  31.2792301   1.0774417  72.6276096  31.8736792   0.8370153  71.9169404
  31.3518885   0.3581547  73.2549632  13.4989457  14.9208028  72.9419261
  13.3643925  14.1608429  72.3757259  13.0821519  15.6448928  72.4748050
  24.6348420  10.1044951  61.9495836  25.3384270  10.3094954  62.5653492
  23.9111069  10.6721713  62.2144920  25.4646230   5.8554813  68.0698106
  25.4081432   6.3123364  67.2305739  26.0174573   5.0945497  67.8920949
  29.2751036   1.6444544  68.8948226  29.0187970   1.2441180  69.7256434
  28.6503904   2.3588338  68.7698365  33.5863374   4.3840618  71.4019517
  33.0262932   4.4533807  72.1751079  32.9806877   4.2081602  70.6819014
  16.6558583  15.8177345  73.1537704  16.5390967  16.7622777  73.0516394
  15.8351029  15.5150906  73.5423503  26.5435117  10.5427481  63.9994296
  27.3780721  10.1108679  63.8171771  26.3819460  10.3709494  64.9271191
  26.1981009   7.0459594  65.3650636  26.1429813   6.8803865  64.4239080
  25.5727065   7.7535627  65.5212825  23.5126917   9.3508506  84.6904198
  24.3818076   9.5249158  84.3290833  23.0333668  10.1702923  84.5679928
  17.6813097  16.4705607  76.3693632  18.5840344  16.5029217  76.6860127
  17.4550467  15.5406058  76.3839968  19.4366699  15.2236593  73.0303711
  18.4862330  15.2238455  72.9168083  19.7399185  14.4769328  72.5139745
  35.1719392  21.0597132  74.0949473  35.8097802  20.9403879  73.3912813
  35.0540235  22.0077976  74.1537425  31.9809099  21.0124560  74.0310998
  31.6427610  20.8965624  73.1431533  32.8498867  20.6115725  74.0112004
  27.8395914  22.8660036  70.0207889  27.2760779  22.7749973  69.2524176
  27.7248309  22.0459941  70.5010381  32.4628882  22.1659411  79.9897203
  32.4517522  21.7712210  79.1177707  32.6249521  21.4325484  80.5830975
  25.3860346  24.3611228  72.8592109  26.1781638  24.0202052  72.4438408
  25.6256996  24.4706203  73.7794262  33.4195473  26.5331004  65.3322354
  32.7683453  27.1185084  64.9456367  34.2139836  27.0637199  65.3917391
  27.3451100  23.6220141  65.7309488  28.1181976  23.0749128  65.5922364
  27.6976499  24.4864390  65.9423949  29.1836143  24.9496523  78.9376387
  28.8926009  25.8542154  78.8223054  29.8193127  24.9913051  79.6520457
  30.1092350  22.3273372  75.5277747  30.7055922  22.1029394  74.8134710
  30.1667321  21.5858117  76.1303195  29.6817378  19.7812807  63.3627938
  29.9342899  19.2594328  62.6011401  28.7441937  19.6178953  63.4654621
  34.7260661  18.7848585  71.1702681  35.5123750  18.3668009  70.8193098
  34.9899365  19.6894678  71.3384329  34.8970738  24.2221436  65.8691338
  34.2616571  24.2956062  66.5812242  34.5668145  24.8115035  65.1910417
  40.1269088  18.7223819  72.0735660  40.8594260  18.1523036  72.3073489
  39.3708444  18.3345419  72.5142165  29.4013667  21.6840913  65.5652313
  29.2849925  21.0085816  66.2333397  29.5115927  21.1973287  64.7484466
  31.7445208  21.1451060  69.2699002  31.3803415  20.6181681  69.9811923
  32.6012324  20.7549529  69.0965487  37.6494508  12.4345393  76.5330268
  37.3177833  13.3040804  76.3091483  37.0540122  12.1181677  77.2124299
  31.3850695  16.1740960  64.2660351  31.5525097  17.0421196  64.6330822
  31.1947864  16.3368242  63.3421640  34.1426028  24.6357939  75.9326181
  33.8426751  25.5382978  75.8241988  33.7977087  24.3690122  76.7847334
  27.5938509  21.0871736  71.9662885  26.6689006  20.9547950  72.1740577
  27.8422923  21.8665955  72.4632828  37.5423172  17.1540479  73.6123618
  36.6340049  17.0855887  73.3182379  37.4910767  17.6312424  74.4405444
  31.3639916  18.6298617  65.2507017  31.2439541  19.0755668  66.0892498
  30.6692504  18.9783935  64.6920555  24.9547320  20.7305009  72.8006674
  25.0839702  20.9839488  73.7146086  24.2744772  21.3232717  72.4811329
  29.1246808  31.4002259  68.8997149  29.0470837  32.3510084  68.9785629
  28.5208451  31.0548132  69.5572075  31.6164037  18.5730125  81.5558515
  30.8397372  19.1324045  81.5461380  32.2554600  19.0586908  82.0773386
  39.4084818  15.3556917  75.3901492  38.7659198  15.6489451  74.7441287
  38.9039747  15.2409838  76.1954689  37.0624982  19.1020091  66.0787351
  37.9742838  19.3347477  65.9035049  36.5534629  19.6857135  65.5162430
  29.8710410  21.3815578  81.1176482  30.6125094  21.9200622  80.8411306
  29.1647395  22.0081867  81.2748034  35.3465749  23.5244718  79.7148644
  35.7549105  23.0827129  78.9703276  34.6243011  22.9497346  79.9682837
  31.6996819  18.4617325  77.0882201  32.5458015  18.8856739  77.2316850
  31.6395457  17.8050949  77.7820764  35.6694564  24.0845909  73.4700933
  35.0403426  24.2491623  72.7677001  35.2820226  24.4987519  74.2411897
  39.5483796  25.0200347  70.8245297  38.8634834  25.3999248  70.2742330
  39.6327645  25.6295674  71.5577244  34.8496265  16.1221694  78.7463375
  34.6057197  16.8763754  78.2097650  35.1256195  16.5007041  79.5810622
  36.8034728  22.6660306  77.4240640  37.0151623  23.3092066  76.7475021
  36.7564476  21.8322622  76.9562570  34.4060956  15.2778127  74.3277212
  33.5445436  15.5759380  74.6193950  34.4323391  15.4948525  73.3958245
  31.2222526  23.8220317  70.7351018  31.6860871  24.1008020  69.9455640
  30.9579324  22.9203762  70.5524109  28.1146607  23.3691799  73.6730781
  28.6847964  23.7979067  73.0348266  28.7054719  23.0874383  74.3714967
  30.1591412  19.9443469  67.5440583  30.8615455  20.3964513  68.0114509
  29.8272040  19.3027288  68.1720476  28.6071773  18.5355226  81.9191792
  27.9770434  19.2171507  82.1527189  28.5007861  18.4238308  80.9744931
  23.9016746  18.2027022  72.8457717  23.1115800  18.4584551  72.3697827
  24.3927993  19.0175360  72.9509757  37.9180555  25.5432261  75.5962997
  38.7397999  25.1412449  75.3145679  37.9142958  25.4400495  76.5479113
  25.8531491  18.5671601  69.8041193  25.0562655  18.6790296  70.3224689
  25.6257084  18.9058254  68.9382084  31.6837159  25.0916305  77.7523708
  31.7481591  25.5536712  78.5881880  30.9748083  24.4613670  77.8806018
  22.1854449  18.4557513  75.2772707  22.4362487  19.3404523  75.5430283
  22.7213997  18.2762114  74.5047799  46.0086549  21.8871010  71.9447969
  45.2550257  21.3178408  71.7891973  46.1434090  21.8533674  72.8918604
  31.3985177  26.7584412  67.6202688  31.2630851  27.6035948  68.0487536
  31.9394989  26.9603690  66.8568622  27.8852516  12.8375992  84.2817044
  27.4919462  12.2842191  84.9564688  28.7018657  13.1486570  84.6723561
  24.8514574  24.2759850  68.1930613  25.3639095  25.0703100  68.3436178
  25.5037287  23.5786141  68.1264215  26.6609459  27.3925606  70.2753367
  26.8376087  28.3143571  70.0874350  27.4566292  27.0784026  70.7047746
  30.8020477  14.2533871  81.8737300  31.5430191  14.8541024  81.7941763
  31.0338400  13.5111509  81.3155343  25.9461815  19.4390238  80.1515530
  25.8315330  18.5375496  80.4522629  25.0906333  19.6853935  79.8000346
  33.0253653  27.3807979  81.7503030  32.5817507  26.5944357  81.4323935
  33.6870867  27.5687129  81.0846921  27.7840774  28.9103780  76.2763709
  28.3348199  28.7820844  75.5040703  26.9452250  29.2098669  75.9258602
  35.1234891  27.6610779  79.7784432  35.1053366  28.4819660  79.2864701
  36.0454811  27.5364854  80.0034573  31.5807945  25.1754908  80.6207940
  32.1136282  24.4143196  80.3907248  31.0522026  24.8828560  81.3632095
  34.7477640  10.2814974  76.1501582  34.4041910  11.1716616  76.0740692
  35.1156603  10.0916632  75.2871167  22.8163491  22.6048504  68.9690184
  23.6538713  23.0145513  68.7523892  22.9941758  21.6647947  68.9390378
  34.7127923  20.2723585  64.6574017  34.1974546  21.0428190  64.8962404
  34.4405231  19.5988721  65.2807078  32.2975034  15.1173286  69.7159255
  31.4416630  14.7280136  69.5364894  32.7101986  15.1965247  68.8559041
  33.8274181  12.6519629  74.1150815  33.3238976  12.6149764  73.3018620
  34.1204787  13.5612372  74.1747472  30.0717066  12.7358359  73.1216997
  30.9370063  12.5401168  72.7622886  30.1394575  12.5068711  74.0486354
  39.6862197  23.0255940  66.5927190  38.9091640  22.6867099  66.1482352
  40.3653678  23.0308563  65.9182155  34.5014226  18.1450677  66.4833798
  34.1964362  18.4596826  67.3343941  35.4544668  18.2232097  66.5261131
  32.9460658  24.3040901  68.1326752  32.4182019  23.5693660  67.8199989
  32.4448161  25.0815577  67.8866720  37.9253504  22.4989921  73.2493798
  37.2677178  23.1889182  73.3373927  38.7293903  22.8886353  73.5927785
  27.6779386  14.9660567  70.4933364  28.2523137  14.7435748  69.7606557
  28.2650368  15.0349261  71.2461965  36.7358963  20.8534294  71.2997740
  37.2490844  21.4864286  71.8019450  37.3860187  20.2535489  70.9341100
  28.0048973  16.9965028  64.5129249  27.1686285  17.3339714  64.8338524
  27.8653742  16.8614008  63.5756386  29.9802053  11.8401816  69.2208433
  29.3266466  11.5250833  68.5965048  29.9382527  11.2177556  69.9468256
  31.0913258  22.1221111  61.1361725  30.1840320  21.8910364  61.3352874
  31.5884290  21.3258730  61.3235707  33.9981337  30.8318618  64.0558411
  33.3243036  31.1350315  64.6643369  34.3847159  31.6347698  63.7063868
  33.2139794  18.3283749  73.5456081  32.2962355  18.5498696  73.3877769
  33.6299937  18.4030060  72.6867788  33.9974841  19.7275165  68.6758761
  34.7446660  20.2396562  68.3665883  34.2666431  19.4059218  69.5363154
  32.2701492  22.2233706  65.6585715  31.3612711  21.9392738  65.7558185
  32.2996575  22.6432784  64.7989022  37.5020759  25.8340295  69.4276883
  37.0483086  24.9931205  69.4842073  36.8714726  26.4701694  69.7651663
  36.4453678  16.7632281  70.6577550  35.7076435  16.2509667  70.9887793
  36.6980452  16.3232663  69.8460827  35.9453698  27.6716792  70.3626701
  36.2376673  28.2321849  69.6439067  36.4552319  27.9645353  71.1179860
  36.5465306   9.5408533  71.2519319  36.8524183   8.6805897  70.9645235
  37.2717911  10.1326153  71.0518313  22.8389662  19.9439220  69.6400917
  22.6414062  19.3508580  68.9151984  22.2836326  19.6391430  70.3576856
  30.8186386  19.8362326  71.7595511  30.8734995  18.8836163  71.6837987
  30.0077588  19.9921765  72.2436809  31.9677579  23.7642449  62.9973794
  31.5297009  23.0478308  62.5379431  32.7088020  23.9918564  62.4358885
  28.7578745  18.4539386  69.5185889  27.9446611  18.7533557  69.9251082
  29.2537740  18.0595075  70.2360372  30.9087323  28.4497143  71.4520154
  30.8663502  28.6757989  70.5228686  31.8250022  28.2160518  71.6005955
  34.3552957  18.9181210  78.3500783  34.7102345  19.1452684  79.2095249
  35.0025088  19.2499587  77.7278039  40.0850694  22.0399646  69.0550112
  39.9468593  22.2301242  68.1271302  39.7286913  22.8019029  69.5118163
  28.2492820  16.0257742  75.1347124  28.8892200  15.8846501  74.4370088
  27.4170351  15.7392255  74.7585726  40.1120074  24.1076173  74.0661384
  40.5456580  24.0151462  74.9144438  40.8251654  24.0833674  73.4281400
  29.0253124  25.3260172  71.2482117  29.8193723  24.8310492  71.0464692
  28.3144817  24.7978035  70.8849822  33.8447969  27.7078267  75.5994484
  33.8984991  28.2769204  76.3672200  32.9762750  27.8780153  75.2348522
  25.3335888  19.4703254  67.3241869  24.4033476  19.4087709  67.5411832
  25.4293360  18.9479206  66.5278511  25.2521437  15.9958066  69.9120111
  25.5128254  16.9103400  69.8029272  26.0738609  15.5282509  70.0616724
  26.7246362  17.4095824  77.0818936  27.3969415  17.2013186  76.4331585
  25.8976149  17.2117910  76.6424168  40.9735623  24.1499874  76.5994269
  41.1671513  25.0545685  76.8453544  40.8736241  23.6907293  77.4332854
  32.6271934  14.0357765  79.0984597  31.9799849  14.7347714  79.0049073
  33.3972949  14.4693909  79.4660845  36.0350732  24.3006617  82.1735150
  35.8836238  24.0717168  81.2565234  36.0255411  25.2577218  82.1866495
  32.8036068  21.8738529  77.1581416  33.7328128  22.0249689  76.9850384
  32.3827098  21.9622550  76.3030063  31.6024400  25.8989194  74.9279954
  31.4635486  25.5307978  75.8005892  30.8138996  26.4136833  74.7563912
  32.1972552  30.9998290  66.2705490  32.3724308  30.5286334  67.0851113
  31.5105340  31.6264057  66.4986751  33.1529615  25.2770797  72.3168792
  32.8179448  25.2371567  73.2126442  32.6533561  24.6115513  71.8439202
  27.1273859  20.6838427  77.8421373  26.9893657  19.9518665  78.4432912
  28.0378783  20.5947327  77.5605561  36.0888807  22.6226831  62.5905851
  35.4717978  21.8973659  62.4938904  35.6205295  23.3836191  62.2472926
  29.7556160  20.3958386  77.3305052  30.4655778  19.7551578  77.2891671
  29.7125468  20.6471281  78.2531233  37.7442939  27.3325739  80.2511632
  37.6855485  26.6484959  79.5842215  38.1462457  28.0744729  79.7992258
  28.4685094  17.3823604  79.1500692  27.9322451  16.9314342  79.8022288
  27.8801802  17.5169513  78.4071156  26.7633637  34.1487653  73.0445351
  27.0030236  34.7806177  73.7224369  25.9202834  33.7975693  73.3310710
  27.8787353  16.8412255  61.7127156  27.0016819  16.7201056  61.3489402
  28.3545106  16.0498334  61.4606044  37.7460346  25.2965323  78.4825611
  36.8587125  24.9591245  78.6052010  38.3158897  24.5648354  78.7194377
  19.3989493  21.6289415  71.8068663  20.0860533  21.3151145  71.2189678
  19.2437622  22.5330780  71.5335914  24.2024215  16.5179612  76.2353686
  24.1182404  15.9105281  75.5004096  23.3806922  17.0088630  76.2363183
  31.2761499  29.9566776  75.4486855  31.2031671  30.7621747  75.9606159
  30.8338892  30.1558741  74.6234876  31.0651279  29.1938546  68.9589676
  30.2818801  29.7360226  69.0527901  31.7644024  29.7112525  69.3583917
  34.3747929  15.0033175  71.6023882  34.8716629  14.2503137  71.2824952
  33.6034910  15.0397492  71.0367091  42.2277686  20.7073541  73.2442173
  42.2167563  21.5898256  72.8736106  41.3595066  20.3545091  73.0496710
  33.7360183  29.8553610  77.6045013  34.4488155  30.4901074  77.5320915
  33.2450211  29.9517476  76.7885015  35.4577710  23.7604862  69.1762305
  34.5233988  23.8806325  69.0067009  35.6354378  22.8577329  68.9122315
  30.9582898  17.1450558  71.3295566  30.5880685  16.5921598  72.0176472
  31.4541990  16.5408692  70.7770566  38.8450261  19.6022182  69.7112339
  39.3110713  20.4350173  69.6372642  39.2957762  19.1367163  70.4157598
  28.7872096  27.6048053  78.4250584  29.4881556  28.2384536  78.5779978
  28.3167211  27.9462785  77.6646223  36.9126492  25.9466003  66.7098491
  37.1886336  25.8322597  67.6192365  36.0430991  25.5483488  66.6710664
  36.8166924  11.9702769  73.7503240  35.9030004  12.2006995  73.9185447
  37.2460025  12.0541213  74.6017273  36.5873382  20.1592661  76.2503134
  35.9344833  20.4068568  75.5955587  36.9653762  19.3456799  75.9165612
  33.5480556  30.1952354  70.3531305  33.7302951  29.3774010  70.8159057
  34.3713542  30.4120046  69.9156195  33.8822722  29.1220539  67.6146353
  34.4110488  28.6112993  67.0016515  34.1450941  28.8063069  68.4791886
  32.6360955  20.9012472  82.7369172  31.9601592  20.8006601  83.4071547
  33.4588589  20.7451685  83.2005169  24.3839814  27.1384408  75.3581687
  24.9693251  26.3928096  75.4909591  24.1864653  27.4488365  76.2418351
  27.2378470  30.1735656  70.3744129  26.5688845  30.6581783  69.8908169
  27.0991339  30.4204876  71.2887508  18.9757469  19.7090008  74.0786130
  19.0141569  19.1753599  74.8723248  18.4697762  19.1825214  73.4597107
  31.3783738  32.2079399  76.9726787  31.9302046  32.3711021  77.7375873
  31.7189932  32.7983837  76.3006812  26.3548231  14.5554549  77.5748672
  26.4189558  15.4169380  77.1626070  26.2915352  13.9428551  76.8421031
  25.8300504  16.6277681  81.2221706  26.4572543  16.2454759  81.8359231
  24.9728423  16.4091883  81.5877399  36.2294612  27.0340657  82.8275442
  36.7734516  27.6470615  82.3330397  35.6481457  27.5920235  83.3442455
  22.6066047  18.4354111  67.1540061  22.9019488  17.5264789  67.1007115
  21.7054082  18.4141850  66.8321064  34.5152125  30.1561375  73.9590470
  34.3903265  29.3551114  73.4501415  35.1731217  30.6507568  73.4704440
  26.1360294  16.5110107  73.1367610  25.4146879  17.1246075  72.9975083
  26.9253549  17.0467872  73.0584256  36.5787034  27.9570395  75.5870020
  35.6317369  27.8375746  75.5148346  36.9269807  27.0692893  75.6696281
  28.9386607  13.8464534  79.4108262  29.4621009  14.0926830  80.1734571
  28.7198940  14.6784568  78.9911399  24.3353888  16.1168208  67.2779386
  24.0066594  15.2365587  67.0954492  24.6893259  16.0615877  68.1655776
  33.5833467  27.7523111  71.7874372  33.4358430  26.8239818  71.9681942
  34.4086961  27.7743202  71.3031447  27.4495711  16.4041178  67.6454864
  27.7891784  16.9327099  66.9233472  27.8967832  16.7421584  68.4213431
  37.1867589  28.5751670  72.8739245  38.1114136  28.3694531  72.7363696
  37.0182892  28.3268071  73.7828586  30.1439152  14.7878229  77.0957932
  29.8035973  13.9886042  77.4978612  29.4378159  15.0879940  76.5234765
  30.7955624  11.8727541  75.5485255  31.6181693  11.3988019  75.4264146
  31.0393688  12.6518025  76.0483941  29.4363859  14.9015800  65.8448157
  30.1572221  15.2797052  65.3411874  28.8129163  15.6204676  65.9483135
  33.5794981  15.6060949  66.7806489  33.7958596  16.4885586  66.4795317
  33.0989049  15.2147162  66.0512131  28.3194203  18.5646662  73.3577234
  28.1738784  18.8786965  74.2501515  27.8419406  19.1831562  72.8048132
  30.1790586  15.5549210  73.4058123  30.1652154  14.6590303  73.0690421
  30.8963014  15.5619873  74.0396409  32.0316716  15.9886550  75.4511251
  31.7734494  16.9103621  75.4495581  31.5001757  15.5916984  76.1411715
  36.9762905  29.0937337  68.2301336  37.1499783  28.5283760  67.4775189
  37.4691796  29.8938232  68.0480826  22.7939865  21.1052006  76.2964895
  22.2493333  21.8811814  76.4285169  23.6719215  21.4522811  76.1384016
  29.5827482  14.4363590  68.6745693  29.7043393  13.5080236  68.8736581
  29.2929524  14.4502276  67.7624009  32.4518672  12.1218500  71.8112413
  32.4740369  12.1857834  70.8564393  32.8686731  11.2823009  72.0052919
  42.8302296  21.8573760  69.8491636  43.2733442  21.1081085  69.4510759
  41.9528807  21.8483896  69.4665368  37.9638078  28.4104101  65.3298234
  38.6588982  29.0310794  65.5485549  38.3061228  27.5599453  65.6050612
  23.5805887  20.2321902  79.1895052  22.8387623  20.3804538  79.7759682
  23.2598631  20.4930168  78.3261801  39.8629501  25.8603807  66.8585565
  40.3880825  26.1991080  66.1334885  39.7751853  24.9250822  66.6748700
  31.5249549  29.7737881  78.9875442  31.8336676  29.5287027  79.8598141
  32.3225032  29.9784519  78.4994312  31.5470162  31.9275790  71.2180818
  31.1075152  31.4352169  71.9113675  32.2978278  31.3848758  70.9772894
  24.0262501  28.1187331  71.2205446  24.8520520  27.8191103  70.8404090
  23.6756553  27.3494954  71.6695235  28.9944034  27.4713799  73.2903120
  28.3724043  26.8084504  72.9905348  29.6648901  27.4974931  72.6076768
  22.2271106  26.0373658  72.1794380  21.3903014  25.6095832  71.9978381
  22.1994751  26.2306101  73.1165171  29.0668561  15.9495587  82.8835626
  29.1156717  16.8257710  82.5013396  29.6091075  15.4072980  82.3107269
  39.5523407  26.4936711  82.1636763  38.7618951  26.4760849  81.6241263
  39.3156761  27.0325004  82.9185800  39.6721282  23.3429177  79.4769492
  39.7219287  23.1779184  80.4185014  39.5635205  22.4756436  79.0867372
  28.5557541  26.0217723  66.7661581  28.7045661  26.7053187  66.1128253
  29.3623984  26.0022813  67.2811036  36.9625044  19.3260105  80.7928798
  37.8634907  19.1866570  80.5012796  37.0373019  19.4914560  81.7326976
  31.2967850  16.7026960  79.6381985  30.4271159  16.9960526  79.3664573
  31.5327330  17.2867405  80.3589248  41.1739479  25.7626119  79.7211513
  40.8824287  26.1256099  80.5574974  40.5611610  25.0493127  79.5424845
  42.3735161  23.3278998  72.2414083  43.2082052  23.7668802  72.4051644
  42.5094290  22.8517652  71.4222329  39.4226667  20.8858733  78.1891571
  39.8980789  21.0786379  77.3810423  38.4992232  20.9417919  77.9434955
  26.3110174  22.0482900  67.7722650  26.0656216  21.1445230  67.9702860
  26.4806088  22.0500051  66.8302128  34.0006883  12.9206577  77.1547405
  34.5188827  13.6567604  76.8293894  33.6462016  13.2270570  77.9894164
  25.5805821  17.7811258  65.2708811  24.8875066  17.8555613  64.6148847
  25.3357573  17.0171602  65.7930328  34.2519478   9.3406859  72.6748302
  34.5321231   8.6730048  73.3008728  35.0370085   9.5335955  72.1622966
  32.0552946  28.5165853  64.2373328  31.4826913  29.1356040  63.7843800
  32.6285740  29.0665215  64.7713250  38.1228336  17.7624493  76.4219877
  39.0745759  17.8622591  76.4432101  37.9531786  16.9702762  76.9317961
  36.1442715  14.8480076  76.6079278  35.5492648  15.1285089  75.9125766
  35.8592412  15.3373977  77.3796019  35.2750206  28.8003003  65.3681910
  36.2080879  28.7348565  65.5714786  35.1873419  29.6359270  64.9096443
  37.9038223  28.1168874  62.3285858  37.8251854  27.7828737  63.2221616
  38.7247889  28.6090642  62.3277330  40.6016414  20.9830613  75.5362176
  40.5692734  20.0446614  75.7221860  41.2117037  21.0614650  74.8028001
  32.4399745  19.8526666  61.5789381  33.3858849  19.7232874  61.6477799
  32.0613990  19.1141328  62.0558809  40.7510902  17.7741656  75.5820460
  40.2349951  16.9900113  75.3950389  41.6350851  17.4460373  75.7466979
  38.4121629  11.5182672  71.5416272  38.2146450  11.2097760  72.4259604
  39.0221335  12.2444311  71.6714202  46.4192964  22.0446620  74.6768213
  47.1496352  21.7831908  75.2375917  45.8099909  21.3075342  74.7170281
  44.5008261  20.1854482  75.2742664  43.7741424  20.0510447  74.6659156
  44.0855548  20.4931311  76.0799383  32.3238437  23.9044412  83.0390038
  33.2441447  24.0823011  83.2330084  32.2888020  22.9600457  82.8869737
  30.6242662  17.7776642  61.5144266  29.7174117  17.4809755  61.5906979
  30.9018643  17.4806460  60.6478552  21.5420602  19.0983006  71.9643312
  21.2223387  18.2448314  71.6717686  20.9954030  19.3131584  72.7201279
  25.3200510  21.8145447  75.6812819  25.5386519  22.7462555  75.7000852
  25.7326284  21.4553421  76.4667623  32.2404728  12.3213532  67.6688507
  31.4305456  11.9760617  68.0443753  32.9289144  12.0121076  68.2576119
  34.1695276  11.3991579  69.2912804  34.7226314  11.8187032  69.9502827
  34.4065362  10.4727327  69.3335760  30.1928375  17.3878652  85.0715568
  30.0925102  18.3373009  85.0027659  29.9749917  17.0596891  84.1991638
  29.3941446  14.6363578  61.6556245  30.2560610  14.9618476  61.9152062
  29.5791791  13.8495073  61.1429311  21.4108862  22.7185917  73.9336434
  20.7172334  22.3039870  73.4206388  22.1581853  22.7606454  73.3369853
  37.5474083  13.5092104  68.7991468  36.9672752  14.1676908  68.4169520
  37.2810016  12.6869449  68.3878885  35.9977649  12.9097162  71.0012788
  36.4977428  13.0213696  70.1927107  36.6413257  12.6058215  71.6413597
  30.0559645  20.8175791  83.8880629  29.5726727  21.6176151  84.0944518
  30.1420584  20.8283736  82.9348073  23.3245605  22.6504171  71.8102449
  23.3016293  22.7491858  70.8584332  23.6346241  23.4969322  72.1319615
  25.9832983  24.7080326  75.9249063  26.9376236  24.6764268  75.8578995
  25.7845506  24.2470950  76.7399289  26.5732365  23.2781442  78.4919861
  27.3925254  23.7725521  78.5154698  26.8469172  22.3613410  78.4637428
  36.3298961  15.6692194  67.8547816  35.4424816  15.9541845  67.6368011
  36.7452950  15.5085958  67.0075093  39.6813497  15.6938715  71.5702155
  40.4573887  16.1835168  71.8426772  38.9561631  16.1196770  72.0274025
  42.1186056  16.4066335  72.6276096  42.7130546  16.1662071  71.9169404
  42.1912639  15.6873465  73.2549632  24.3383211  30.2499945  72.9419261
  24.2037679  29.4900346  72.3757259  23.9215274  30.9740845  72.4748050
  35.4742174  25.4336869  61.9495836  36.1778024  25.6386872  62.5653492
  34.7504823  26.0013631  62.2144920  36.3039985  21.1846730  68.0698106
  36.2475186  21.6415282  67.2305739  36.8568327  20.4237415  67.8920949
  40.1144791  16.9736462  68.8948226  39.8581725  16.5733098  69.7256434
  39.4897659  17.6880256  68.7698365  44.4257128  19.7132535  71.4019517
  43.8656686  19.7825725  72.1751079  43.8200632  19.5373520  70.6819014
  27.4952337  31.1469263  73.1537704  27.3784721  32.0914695  73.0516394
  26.6744784  30.8442824  73.5423503  37.3828872  25.8719398  63.9994296
  38.2174476  25.4400597  63.8171771  37.2213215  25.7001412  64.9271191
  37.0374764  22.3751512  65.3650636  36.9823568  22.2095783  64.4239080
  36.4120819  23.0827544  65.5212825  21.8267279  17.6119576  79.1912058
  22.4726143  17.1018530  79.6799283  21.6184430  18.3488258  79.7655483
  34.3520671  24.6800423  84.6904198  35.2211831  24.8541076  84.3290833
  33.8727423  25.4994840  84.5679928  30.3470889  11.8759621  64.9435954
  30.3349559  12.8201460  65.1004225  31.2394311  11.6929766  64.6495415
  28.5206851  31.7997524  76.3693632  29.4234098  31.8321135  76.6860127
  28.2944221  30.8697975  76.3839968  30.2760453  30.5528511  73.0303711
  29.3256084  30.5530373  72.9168083  30.5792940  29.8061246  72.5139745
  34.1623009   8.4702397  69.1981891  33.3955405   7.9160884  69.3438573
  34.5733714   8.5424266  70.0596042  26.1664770  14.7587193  83.2887072
  27.0296231  14.4023998  83.4990397  25.5930181  14.4201088  83.9762476
  46.0113147  36.3889049  74.0949473  46.6491557  36.2695797  73.3912813
  45.8933990  37.3369893  74.1537425  42.8202853  36.3416477  74.0310998
  42.4821365  36.2257542  73.1431533  43.6892621  35.9407643  74.0112004
  38.6789669  38.1951954  70.0207889  38.1154534  38.1041891  69.2524176
  38.5642064  37.3751858  70.5010381  43.3022636  37.4951329  79.9897203
  43.2911277  37.1004127  79.1177707  43.4643276  36.7617402  80.5830975
  36.2254101  39.6903145  72.8592109  37.0175393  39.3493970  72.4438408
  36.4650751  39.7998120  73.7794262  38.1844855  38.9512059  65.7309488
  38.9575731  38.4041046  65.5922364  38.5370254  39.8156308  65.9423949
  40.0229897  40.2788441  78.9376387  39.7319763  41.1834072  78.8223054
  40.6586882  40.3204969  79.6520457  40.9486104  37.6565289  75.5277747
  41.5449676  37.4321312  74.8134710  41.0061076  36.9150035  76.1303195
  40.5211133  35.1104725  63.3627938  40.7736653  34.5886246  62.6011401
  39.5835692  34.9470870  63.4654621  45.5654415  34.1140503  71.1702681
  46.3517505  33.6959926  70.8193098  45.8293120  35.0186595  71.3384329
  50.9662842  34.0515736  72.0735660  51.6988014  33.4814953  72.3073489
  50.2102198  33.6637337  72.5142165  40.2407421  37.0132831  65.5652313
  40.1243679  36.3377734  66.2333397  40.3509681  36.5265205  64.7484466
  42.5838962  36.4742978  69.2699002  42.2197169  35.9473599  69.9811923
  43.4406078  36.0841447  69.0965487  48.4888263  27.7637310  76.5330268
  48.1571588  28.6332721  76.3091483  47.8933876  27.4473594  77.2124299
  42.2244449  31.5032878  64.2660351  42.3918852  32.3713114  64.6330822
  42.0341618  31.6660159  63.3421640  44.9819782  39.9649856  75.9326181
  44.6820505  40.8674895  75.8241988  44.6370842  39.6982040  76.7847334
  38.4332264  36.4163653  71.9662885  37.5082760  36.2839867  72.1740577
  38.6816677  37.1957873  72.4632828  48.3816926  32.4832397  73.6123618
  47.4733803  32.4147805  73.3182379  48.3304522  32.9604342  74.4405444
  42.2033670  33.9590535  65.2507017  42.0833295  34.4047586  66.0892498
  41.5086258  34.3075853  64.6920555  35.7941075  36.0596927  72.8006674
  35.9233456  36.3131406  73.7146086  35.1138526  36.6524635  72.4811329
  39.9640562  46.7294177  68.8997149  39.8864592  47.6802002  68.9785629
  39.3602206  46.3840049  69.5572075  42.4557792  33.9022042  81.5558515
  41.6791126  34.4615962  81.5461380  43.0948355  34.3878825  82.0773386
  50.2478573  30.6848835  75.3901492  49.6052953  30.9781368  74.7441287
  49.7433501  30.5701755  76.1954689  47.9018736  34.4312008  66.0787351
  48.8136592  34.6639395  65.9035049  47.3928383  35.0149052  65.5162430
  40.7104164  36.7107496  81.1176482  41.4518849  37.2492540  80.8411306
  40.0041150  37.3373784  81.2748034  46.1859504  38.8536636  79.7148644
  46.5942860  38.4119047  78.9703276  45.4636765  38.2789264  79.9682837
  42.5390574  33.7909243  77.0882201  43.3851769  34.2148656  77.2316850
  42.4789212  33.1342867  77.7820764  46.5088319  39.4137827  73.4700933
  45.8797181  39.5783541  72.7677001  46.1213981  39.8279436  74.2411897
  50.3877550  40.3492265  70.8245297  49.7028589  40.7291166  70.2742330
  50.4721400  40.9587591  71.5577244  45.6890019  31.4513611  78.7463375
  45.4450951  32.2055672  78.2097650  45.9649950  31.8298959  79.5810622
  47.6428482  37.9952224  77.4240640  47.8545377  38.6383983  76.7475021
  47.5958230  37.1614540  76.9562570  45.2454711  30.6070044  74.3277212
  44.3839190  30.9051298  74.6193950  45.2717146  30.8240443  73.3958245
  42.0616280  39.1512235  70.7351018  42.5254626  39.4299938  69.9455640
  41.7973079  38.2495679  70.5524109  38.9540361  38.6983716  73.6730781
  39.5241719  39.1270985  73.0348266  39.5448473  38.4166301  74.3714967
  40.9985166  35.2735387  67.5440583  41.7009210  35.7256431  68.0114509
  40.6665795  34.6319206  68.1720476  39.4465528  33.8647144  81.9191792
  38.8164189  34.5463425  82.1527189  39.3401616  33.7530225  80.9744931
  34.7410500  33.5318940  72.8457717  33.9509554  33.7876468  72.3697827
  35.2321748  34.3467278  72.9509757  48.7574310  40.8724179  75.5962997
  49.5791754  40.4704366  75.3145679  48.7536713  40.7692413  76.5479113
  36.6925246  33.8963519  69.8041193  35.8956409  34.0082213  70.3224689
  36.4650838  34.2350171  68.9382084  42.5230913  40.4208222  77.7523708
  42.5875346  40.8828630  78.5881880  41.8141837  39.7905587  77.8806018
  33.0248203  33.7849430  75.2772707  33.2756242  34.6696440  75.5430283
  33.5607752  33.6054032  74.5047799  56.8480303  37.2162927  71.9447969
  56.0944011  36.6470326  71.7891973  56.9827844  37.1825592  72.8918604
  38.7246271  28.1667910  84.2817044  38.3313216  27.6134108  84.9564688
  39.5412411  28.4778488  84.6723561  35.6908328  39.6051768  68.1930613
  36.2032849  40.3995018  68.3436178  36.3431041  38.9078058  68.1264215
  37.5003213  42.7217524  70.2753367  37.6769842  43.6435489  70.0874350
  38.2960047  42.4075943  70.7047746  41.6414232  29.5825789  81.8737300
  42.3823945  30.1832942  81.7941763  41.8732155  28.8403427  81.3155343
  36.7855570  34.7682156  80.1515530  36.6709085  33.8667413  80.4522629
  35.9300087  35.0145853  79.8000346  43.8647407  42.7099896  81.7503030
  43.4211262  41.9236275  81.4323935  44.5264621  42.8979047  81.0846921
  38.6234529  44.2395698  76.2763709  39.1741954  44.1112761  75.5040703
  37.7846005  44.5390587  75.9258602  45.9628646  42.9902696  79.7784432
  45.9447121  43.8111577  79.2864701  46.8848566  42.8656771  80.0034573
  42.4201700  40.5046826  80.6207940  42.9530036  39.7435114  80.3907248
  41.8915781  40.2120478  81.3632095  45.5871395  25.6106892  76.1501582
  45.2435664  26.5008533  76.0740692  45.9550357  25.4208549  75.2871167
  33.6557245  37.9340422  68.9690184  34.4932467  38.3437430  68.7523892
  33.8335513  36.9939864  68.9390378  45.5521677  35.6015503  64.6574017
  45.0368301  36.3720107  64.8962404  45.2798986  34.9280639  65.2807078
  43.1368788  30.4465204  69.7159255  42.2810385  30.0572054  69.5364894
  43.5495740  30.5257164  68.8559041  44.6667935  27.9811547  74.1150815
  44.1632731  27.9441682  73.3018620  44.9598542  28.8904290  74.1747472
  40.9110821  28.0650277  73.1216997  41.7763818  27.8693085  72.7622886
  40.9788330  27.8360628  74.0486354  50.5255951  38.3547857  66.5927190
  49.7485394  38.0159017  66.1482352  51.2047432  38.3600481  65.9182155
  45.3407981  33.4742595  66.4833798  45.0358116  33.7888744  67.3343941
  46.2938423  33.5524015  66.5261131  43.7854412  39.6332818  68.1326752
  43.2575774  38.8985578  67.8199989  43.2841915  40.4107495  67.8866720
  48.7647258  37.8281839  73.2493798  48.1070933  38.5181100  73.3373927
  49.5687658  38.2178271  73.5927785  38.5173140  30.2952484  70.4933364
  39.0916892  30.0727666  69.7606557  39.1044122  30.3641179  71.2461965
  47.5752717  36.1826211  71.2997740  48.0884599  36.8156203  71.8019450
  48.2253941  35.5827407  70.9341100  38.8442727  32.3256945  64.5129249
  38.0080039  32.6631632  64.8338524  38.7047497  32.1905925  63.5756386
  40.8195808  27.1693733  69.2208433  40.1660220  26.8542751  68.5965048
  40.7776282  26.5469474  69.9468256  44.0533548  33.6575667  73.5456081
  43.1356109  33.8790614  73.3877769  44.4693692  33.7321977  72.6867788
  44.8368596  35.0567083  68.6758761  45.5840415  35.5688480  68.3665883
  45.1060185  34.7351135  69.5363154  43.1095246  37.5525623  65.6585715
  42.2006465  37.2684656  65.7558185  43.1390330  37.9724702  64.7989022
  48.3414513  41.1632213  69.4276883  47.8876841  40.3223123  69.4842073
  47.7108480  41.7993611  69.7651663  47.2847433  32.0924199  70.6577550
  46.5470190  31.5801585  70.9887793  47.5374207  31.6524580  69.8460827
  47.3859060  24.8700451  71.2519319  47.6917937  24.0097814  70.9645235
  48.1111665  25.4618071  71.0518313  33.6783416  35.2731137  69.6400917
  33.4807816  34.6800498  68.9151984  33.1230080  34.9683348  70.3576856
  41.6580140  35.1654244  71.7595511  41.7128750  34.2128080  71.6837987
  40.8471342  35.3213683  72.2436809  39.5972500  33.7831304  69.5185889
  38.7840366  34.0825474  69.9251082  40.0931494  33.3886992  70.2360372
  41.7481078  43.7789061  71.4520154  41.7057257  44.0049907  70.5228686
  42.6643777  43.5452435  71.6005955  45.1946712  34.2473128  78.3500783
  45.5496099  34.4744601  79.2095249  45.8418843  34.5791505  77.7278039
  50.9244449  37.3691564  69.0550112  50.7862347  37.5593160  68.1271302
  50.5680667  38.1310947  69.5118163  39.0886575  31.3549659  75.1347124
  39.7285954  31.2138418  74.4370088  38.2564105  31.0684173  74.7585726
  50.9513828  39.4368091  74.0661384  51.3850335  39.3443380  74.9144438
  51.6645409  39.4125591  73.4281400  39.8646879  40.6552090  71.2482117
  40.6587477  40.1602410  71.0464692  39.1538571  40.1269953  70.8849822
  44.6841723  43.0370185  75.5994484  44.7378745  43.6061121  76.3672200
  43.8156504  43.2072070  75.2348522  36.1729642  34.7995171  67.3241869
  35.2427230  34.7379627  67.5411832  36.2687114  34.2771124  66.5278511
  36.0915191  31.3249984  69.9120111  36.3522008  32.2395317  69.8029272
  36.9132363  30.8574427  70.0616724  37.5640116  32.7387741  77.0818936
  38.2363170  32.5305103  76.4331585  36.7369903  32.5409827  76.6424168
  51.8129378  39.4791792  76.5994269  52.0065268  40.3837602  76.8453544
  51.7129996  39.0199211  77.4332854  43.4665688  29.3649682  79.0984597
  42.8193604  30.0639632  79.0049073  44.2366704  29.7985826  79.4660845
  46.8744486  39.6298534  82.1735150  46.7229993  39.4009086  81.2565234
  46.8649166  40.5869136  82.1866495  43.6429823  37.2030447  77.1581416
  44.5721883  37.3541607  76.9850384  43.2220853  37.2914468  76.3030063
  42.4418155  41.2281112  74.9279954  42.3029240  40.8599896  75.8005892
  41.6532751  41.7428751  74.7563912  43.9923370  40.6062714  72.3168792
  43.6573202  40.5663484  73.2126442  43.4927315  39.9407430  71.8439202
  37.9667614  36.0130344  77.8421373  37.8287412  35.2810583  78.4432912
  38.8772537  35.9239244  77.5605561  40.5949914  35.7250304  77.3305052
  41.3049533  35.0843496  77.2891671  40.5519223  35.9763198  78.2531233
  48.5836693  42.6617657  80.2511632  48.5249239  41.9776877  79.5842215
  48.9856211  43.4036647  79.7992258  39.3078848  32.7115522  79.1500692
  38.7716205  32.2606260  79.8022288  38.7195557  32.8461430  78.4071156
  37.6027392  49.4779571  73.0445351  37.8423990  50.1098095  73.7224369
  36.7596588  49.1267611  73.3310710  38.7181107  32.1704173  61.7127156
  37.8410574  32.0492974  61.3489402  39.1938860  31.3790251  61.4606044
  48.5854100  40.6257241  78.4825611  47.6980879  40.2883163  78.6052010
  49.1552651  39.8940272  78.7194377  30.2383247  36.9581333  71.8068663
  30.9254287  36.6443063  71.2189678  30.0831376  37.8622697  71.5335914
  35.0417970  31.8471529  76.2353686  34.9576158  31.2397199  75.5004096
  34.2200676  32.3380548  76.2363183  42.1155254  45.2858693  75.4486855
  42.0425425  46.0913665  75.9606159  41.6732647  45.4850659  74.6234876
  41.9045033  44.5230463  68.9589676  41.1212555  45.0652143  69.0527901
  42.6037779  45.0404443  69.3583917  45.2141683  30.3325093  71.6023882
  45.7110383  29.5795055  71.2824952  44.4428665  30.3689409  71.0367091
  53.0671441  36.0365458  73.2442173  53.0561317  36.9190174  72.8736106
  52.1988820  35.6837009  73.0496710  44.5753937  45.1845527  77.6045013
  45.2881909  45.8192992  77.5320915  44.0843966  45.2809393  76.7885015
  46.2971464  39.0896780  69.1762305  45.3627743  39.2098242  69.0067009
  46.4748133  38.1869247  68.9122315  41.7976652  32.4742476  71.3295566
  41.4274440  31.9213516  72.0176472  42.2935745  31.8700609  70.7770566
  49.6844016  34.9314099  69.7112339  50.1504468  35.7642091  69.6372642
  50.1351516  34.4659081  70.4157598  39.6265851  42.9339971  78.4250584
  40.3275310  43.5676454  78.5779978  39.1560966  43.2754702  77.6646223
  47.6560678  27.2994686  73.7503240  46.7423758  27.5298913  73.9185447
  48.0853780  27.3833130  74.6017273  47.4267137  35.4884578  76.2503134
  46.7738587  35.7360486  75.5955587  47.8047517  34.6748716  75.9165612
  43.4754710  36.2304389  82.7369172  42.7995347  36.1298519  83.4071547
  44.2982344  36.0743603  83.2005169  35.2233569  42.4676326  75.3581687
  35.8087006  41.7220014  75.4909591  35.0258407  42.7780283  76.2418351
  38.0772224  45.5027573  70.3744129  37.4082599  45.9873701  69.8908169
  37.9385094  45.7496794  71.2887508  29.8151224  35.0381926  74.0786130
  29.8535323  34.5045517  74.8723248  29.3091516  34.5117132  73.4597107
  42.2177493  47.5371317  76.9726787  42.7695801  47.7002938  77.7375873
  42.5583686  48.1275755  76.3006812  37.1941986  29.8846467  77.5748672
  37.2583312  30.7461297  77.1626070  37.1309106  29.2720468  76.8421031
  36.6694258  31.9569599  81.2221706  37.2966297  31.5746676  81.8359231
  35.8122177  31.7383801  81.5877399  47.0688367  42.3632574  82.8275442
  47.6128271  42.9762533  82.3330397  46.4875212  42.9212153  83.3442455
  33.4459801  33.7646028  67.1540061  33.7413242  32.8556707  67.1007115
  32.5447837  33.7433768  66.8321064  45.3545880  45.4853292  73.9590470
  45.2297019  44.6843032  73.4501415  46.0124971  45.9799486  73.4704440
  36.9754048  31.8402025  73.1367610  36.2540634  32.4537992  72.9975083
  37.7647304  32.3759790  73.0584256  47.4180788  43.2862312  75.5870020
  46.4711124  43.1667664  75.5148346  47.7663561  42.3984810  75.6696281
  39.7780362  29.1756451  79.4108262  40.3014764  29.4218748  80.1734571
  39.5592695  30.0076486  78.9911399  35.1747643  31.4460126  67.2779386
  34.8460349  30.5657505  67.0954492  35.5287013  31.3907795  68.1655776
  44.4227222  43.0815029  71.7874372  44.2752184  42.1531736  71.9681942
  45.2480715  43.1035119  71.3031447  38.2889466  31.7333096  67.6454864
  38.6285538  32.2619017  66.9233472  38.7361586  32.0713502  68.4213431
  48.0261343  43.9043587  72.8739245  48.9507891  43.6986449  72.7363696
  47.8576647  43.6559988  73.7828586  40.9832907  30.1170146  77.0957932
  40.6429727  29.3177959  77.4978612  40.2771913  30.4171857  76.5234765
  41.6349379  27.2019459  75.5485255  42.4575448  26.7279937  75.4264146
  41.8787442  27.9809943  76.0483941  40.2757613  30.2307717  65.8448157
  40.9965976  30.6088970  65.3411874  39.6522917  30.9496594  65.9483135
  44.4188736  30.9352866  66.7806489  44.6352350  31.8177504  66.4795317
  43.9382803  30.5439080  66.0512131  39.1587957  33.8938579  73.3577234
  39.0132538  34.2078882  74.2501515  38.6813161  34.5123480  72.8048132
  41.0184340  30.8841127  73.4058123  41.0045909  29.9882221  73.0690421
  41.7356768  30.8911791  74.0396409  42.8710471  31.3178468  75.4511251
  42.6128249  32.2395538  75.4495581  42.3395511  30.9208902  76.1411715
  33.6333619  36.4343924  76.2964895  33.0887088  37.2103732  76.4285169
  34.5112969  36.7814728  76.1384016  40.4221236  29.7655508  68.6745693
  40.5437147  28.8372154  68.8736581  40.1323279  29.7794194  67.7624009
  43.2912427  27.4510418  71.8112413  43.3134123  27.5149751  70.8564393
  43.7080486  26.6114927  72.0052919  53.6696051  37.1865678  69.8491636
  54.1127197  36.4373003  69.4510759  52.7922561  37.1775814  69.4665368
  34.4199641  35.5613820  79.1895052  33.6781377  35.7096455  79.7759682
  34.0992386  35.8222086  78.3261801  42.3643304  45.1029798  78.9875442
  42.6730430  44.8578945  79.8598141  43.1618786  45.3076437  78.4994312
  42.3863916  47.2567708  71.2180818  41.9468906  46.7644087  71.9113675
  43.1372033  46.7140676  70.9772894  34.8656255  43.4479249  71.2205446
  35.6914275  43.1483021  70.8404090  34.5150307  42.6786871  71.6695235
  39.8337788  42.8005717  73.2903120  39.2117797  42.1376422  72.9905348
  40.5042655  42.8266849  72.6076768  33.0664860  41.3665575  72.1794380
  32.2296768  40.9387750  71.9978381  33.0388505  41.5598019  73.1165171
  39.9062316  31.2787505  82.8835626  39.9550471  32.1549628  82.5013396
  40.4484830  30.7364898  82.3107269  50.3917161  41.8228628  82.1636763
  49.6012705  41.8052767  81.6241263  50.1550516  42.3616922  82.9185800
  50.5115036  38.6721095  79.4769492  50.5613041  38.5071102  80.4185014
  50.4028960  37.8048354  79.0867372  39.3951295  41.3509640  66.7661581
  39.5439415  42.0345105  66.1128253  40.2017739  41.3314730  67.2811036
  47.8018799  34.6552023  80.7928798  48.7028662  34.5158488  80.5012796
  47.8766773  34.8206478  81.7326976  42.1361604  32.0318877  79.6381985
  41.2664914  32.3252444  79.3664573  42.3721084  32.6159322  80.3589248
  52.0133233  41.0918036  79.7211513  51.7218042  41.4548017  80.5574974
  51.4005365  40.3785044  79.5424845  53.2128916  38.6570916  72.2414083
  54.0475807  39.0960720  72.4051644  53.3488044  38.1809569  71.4222329
  50.2620421  36.2150651  78.1891571  50.7374543  36.4078297  77.3810423
  49.3385987  36.2709837  77.9434955  37.1503928  37.3774818  67.7722650
  36.9049970  36.4737148  67.9702860  37.3199843  37.3791968  66.8302128
  44.8400638  28.2498494  77.1547405  45.3582582  28.9859521  76.8293894
  44.4855771  28.5562488  77.9894164  36.4199576  33.1103176  65.2708811
  35.7268821  33.1847531  64.6148847  36.1751328  32.3463519  65.7930328
  45.0913232  24.6698777  72.6748302  45.3714986  24.0021966  73.3008728
  45.8763839  24.8627873  72.1622966  48.9622090  33.0916411  76.4219877
  49.9139513  33.1914509  76.4432101  48.7925541  32.2994679  76.9317961
  46.9836470  30.1771994  76.6079278  46.3886402  30.4577007  75.9125766
  46.6986167  30.6665895  77.3796019  51.4410168  36.3122531  75.5362176
  51.4086488  35.3738531  75.7221860  52.0510792  36.3906567  74.8028001
  43.2793499  35.1818584  61.5789381  44.2252604  35.0524792  61.6477799
  42.9007744  34.4433245  62.0558809  51.5904657  33.1033574  75.5820460
  51.0743705  32.3192031  75.3950389  52.4744605  32.7752291  75.7466979
  49.2515384  26.8474590  71.5416272  49.0540205  26.5389678  72.4259604
  49.8615089  27.5736229  71.6714202  57.2586718  37.3738537  74.6768213
  57.9890107  37.1123826  75.2375917  56.6493664  36.6367259  74.7170281
  55.3402015  35.5146400  75.2742664  54.6135179  35.3802365  74.6659156
  54.9249302  35.8223229  76.0799383  43.1632192  39.2336330  83.0390038
  44.0835201  39.4114929  83.2330084  43.1281775  38.2892375  82.8869737
  41.4636416  33.1068560  61.5144266  40.5567872  32.8101673  61.5906979
  41.7412397  32.8098378  60.6478552  32.3814357  34.4274923  71.9643312
  32.0617141  33.5740232  71.6717686  31.8347785  34.6423502  72.7201279
  36.1594264  37.1437364  75.6812819  36.3780274  38.0754472  75.7000852
  36.5720038  36.7845339  76.4667623  43.0798482  27.6505450  67.6688507
  42.2699210  27.3052535  68.0443753  43.7682899  27.3412993  68.2576119
  45.0089030  26.7283496  69.2912804  45.5620069  27.1478950  69.9502827
  45.2459117  25.8019245  69.3335760  41.0322130  32.7170570  85.0715568
  40.9318856  33.6664927  85.0027659  40.8143672  32.3888809  84.1991638
  40.2335201  29.9655495  61.6556245  41.0954365  30.2910393  61.9152062
  40.4185545  29.1786991  61.1429311  32.2502617  38.0477835  73.9336434
  31.5566088  37.6331788  73.4206388  32.9975608  38.0898371  73.3369853
  48.3867837  28.8384022  68.7991468  47.8066506  29.4968826  68.4169520
  48.1203770  28.0161366  68.3878885  46.8371404  28.2389079  71.0012788
  47.3371182  28.3505614  70.1927107  47.4807012  27.9350132  71.6413597
  40.8953400  36.1467709  83.8880629  40.4120481  36.9468069  84.0944518
  40.9814339  36.1575654  82.9348073  34.1639359  37.9796089  71.8102449
  34.1410047  38.0783776  70.8584332  34.4739996  38.8261239  72.1319615
  36.8226737  40.0372244  75.9249063  37.7769991  40.0056186  75.8578995
  36.6239261  39.5762867  76.7399289  37.4126119  38.6073360  78.4919861
  38.2319008  39.1017438  78.5154698  37.6862927  37.6905328  78.4637428
  47.1692715  30.9984112  67.8547816  46.2818570  31.2833763  67.6368011
  47.5846704  30.8377875  67.0075093  50.5207252  31.0230633  71.5702155
  51.2967642  31.5127085  71.8426772  49.7955386  31.4488687  72.0274025
  52.9579810  31.7358252  72.6276096  53.5524301  31.4953988  71.9169404
  53.0306394  31.0165383  73.2549632  35.1776966  45.5791863  72.9419261
  35.0431434  44.8192264  72.3757259  34.7609028  46.3032763  72.4748050
  47.1433739  36.5138648  68.0698106  47.0868941  36.9707199  67.2305739
  47.6962082  35.7529333  67.8920949  50.9538545  32.3028380  68.8948226
  50.6975479  31.9025015  69.7256434  50.3291413  33.0172174  68.7698365
  55.2650883  35.0424453  71.4019517  54.7050441  35.1117642  72.1751079
  54.6594386  34.8665438  70.6819014  38.3346092  46.4761180  73.1537704
  38.2178476  47.4206613  73.0516394  37.5138538  46.1734742  73.5423503
  32.6661033  32.9411494  79.1912058  33.3119897  32.4310448  79.6799283
  32.4578185  33.6780175  79.7655483  45.1914426  40.0092341  84.6904198
  46.0605585  40.1832993  84.3290833  44.7121177  40.8286758  84.5679928
  41.1864644  27.2051538  64.9435954  41.1743314  28.1493378  65.1004225
  42.0788066  27.0221684  64.6495415  39.3600606  47.1289442  76.3693632
  40.2627853  47.1613052  76.6860127  39.1337976  46.1989893  76.3839968
  41.1154208  45.8820429  73.0303711  40.1649839  45.8822290  72.9168083
  41.4186694  45.1353163  72.5139745  45.0016763  23.7994315  69.1981891
  44.2349159  23.2452802  69.3438573  45.4127468  23.8716184  70.0596042
  37.0058524  30.0879111  83.2887072  37.8689986  29.7315916  83.4990397
  36.4323935  29.7493005  83.9762476  56.8506901  51.7180967  74.0949473
  57.4885311  51.5987714  73.3912813  56.7327744  52.6661811  74.1537425
  53.6596608  51.6708395  74.0310998  53.3215119  51.5549460  73.1431533
  54.5286376  51.2699560  74.0112004  54.1416391  52.8243247  79.9897203
  54.1305031  52.4296045  79.1177707  54.3037030  52.0909319  80.5830975
  47.0647855  55.0195063  72.8592109  47.8569147  54.6785888  72.4438408
  47.3044505  55.1290038  73.7794262  50.8623652  55.6080359  78.9376387
  50.5713518  56.5125989  78.8223054  51.4980636  55.6496886  79.6520457
  51.7879859  52.9857207  75.5277747  52.3843431  52.7613230  74.8134710
  51.8454830  52.2441953  76.1303195  56.4048170  49.4432421  71.1702681
  57.1911259  49.0251844  70.8193098  56.6686874  50.3478513  71.3384329
  59.3282017  43.0929228  76.5330268  58.9965342  43.9624639  76.3091483
  58.7327631  42.7765512  77.2124299  55.8213537  55.2941774  75.9326181
  55.5214260  56.1966813  75.8241988  55.4764596  55.0273957  76.7847334
  59.2210681  47.8124314  73.6123618  58.3127558  47.7439723  73.3182379
  59.1698276  48.2896259  74.4405444  46.6334829  51.3888845  72.8006674
  46.7627211  51.6423323  73.7146086  45.9532281  51.9816553  72.4811329
  50.8034317  62.0586095  68.8997149  50.7258346  63.0093920  68.9785629
  50.1995960  61.7131967  69.5572075  53.2951546  49.2313960  81.5558515
  52.5184880  49.7907880  81.5461380  53.9342109  49.7170743  82.0773386
  61.0872327  46.0140753  75.3901492  60.4446707  46.3073286  74.7441287
  60.5827256  45.8993673  76.1954689  51.5497919  52.0399413  81.1176482
  52.2912603  52.5784457  80.8411306  50.8434904  52.6665702  81.2748034
  57.0253258  54.1828554  79.7148644  57.4336614  53.7410964  78.9703276
  56.3030520  53.6081181  79.9682837  53.3784328  49.1201161  77.0882201
  54.2245524  49.5440574  77.2316850  53.3182966  48.4634785  77.7820764
  57.3482073  54.7429744  73.4700933  56.7190935  54.9075459  72.7677001
  56.9607735  55.1571354  74.2411897  61.2271305  55.6784182  70.8245297
  60.5422343  56.0583084  70.2742330  61.3115154  56.2879509  71.5577244
  56.5283774  46.7805529  78.7463375  56.2844706  47.5347589  78.2097650
  56.8043704  47.1590876  79.5810622  58.4822237  53.3244141  77.4240640
  58.6939132  53.9675901  76.7475021  58.4351985  52.4906458  76.9562570
  56.0848465  45.9361962  74.3277212  55.2232945  46.2343215  74.6193950
  56.1110900  46.1532361  73.3958245  49.7934116  54.0275634  73.6730781
  50.3635473  54.4562902  73.0348266  50.3842228  53.7458219  74.3714967
  50.2859282  49.1939061  81.9191792  49.6557943  49.8755342  82.1527189
  50.1795370  49.0822143  80.9744931  45.5804255  48.8610857  72.8457717
  44.7903309  49.1168386  72.3697827  46.0715502  49.6759195  72.9509757
  59.5968064  56.2016097  75.5962997  60.4185508  55.7996284  75.3145679
  59.5930467  56.0984331  76.5479113  53.3624668  55.7500140  77.7523708
  53.4269100  56.2120547  78.5881880  52.6535592  55.1197505  77.8806018
  43.8641958  49.1141348  75.2772707  44.1149996  49.9988358  75.5430283
  44.4001506  48.9345949  74.5047799  49.5640025  43.4959827  84.2817044
  49.1706971  42.9426026  84.9564688  50.3806166  43.8070406  84.6723561
  48.3396968  58.0509442  70.2753367  48.5163596  58.9727406  70.0874350
  49.1353801  57.7367861  70.7047746  52.4807986  44.9117706  81.8737300
  53.2217700  45.5124860  81.7941763  52.7125909  44.1695344  81.3155343
  47.6249324  50.0974074  80.1515530  47.5102839  49.1959331  80.4522629
  46.7693842  50.3437770  79.8000346  54.7041162  58.0391814  81.7503030
  54.2605016  57.2528193  81.4323935  55.3658376  58.2270964  81.0846921
  49.4628283  59.5687616  76.2763709  50.0135708  59.4404679  75.5040703
  48.6239759  59.8682505  75.9258602  56.8022400  58.3194614  79.7784432
  56.7840875  59.1403495  79.2864701  57.7242320  58.1948689  80.0034573
  53.2595454  55.8338743  80.6207940  53.7923791  55.0727032  80.3907248
  52.7309535  55.5412395  81.3632095  56.4265149  40.9398809  76.1501582
  56.0829419  41.8300451  76.0740692  56.7944112  40.7500467  75.2871167
  55.5061690  43.3103465  74.1150815  55.0026485  43.2733600  73.3018620
  55.7992296  44.2196207  74.1747472  51.7504575  43.3942194  73.1216997
  52.6157572  43.1985003  72.7622886  51.8182084  43.1652546  74.0486354
  58.4146472  51.5118129  71.2997740  58.9278353  52.1448121  71.8019450
  59.0647696  50.9119325  70.9341100  54.8927303  48.9867585  73.5456081
  53.9749864  49.2082532  73.3877769  55.3087446  49.0613895  72.6867788
  58.1241187  47.4216117  70.6577550  57.3863944  46.9093503  70.9887793
  58.3767961  46.9816498  69.8460827  57.6241207  58.3300627  70.3626701
  57.9164182  58.8905684  69.6439067  58.1339828  58.6229188  71.1179860
  58.2252815  40.1992369  71.2519319  58.5311692  39.3389732  70.9645235
  58.9505420  40.7909989  71.0518313  52.5874832  59.1080978  71.4520154
  52.5451011  59.3341825  70.5228686  53.5037531  58.8744353  71.6005955
  56.0340466  49.5765046  78.3500783  56.3889854  49.8036519  79.2095249
  56.6812597  49.9083423  77.7278039  49.9280329  46.6841577  75.1347124
  50.5679709  46.5430336  74.4370088  49.0957860  46.3976090  74.7585726
  61.7907583  54.7660009  74.0661384  62.2244089  54.6735298  74.9144438
  62.5039163  54.7417509  73.4281400  55.5235478  58.3662103  75.5994484
  55.5772500  58.9353039  76.3672200  54.6550259  58.5363988  75.2348522
  48.4033871  48.0679659  77.0818936  49.0756924  47.8597021  76.4331585
  47.5763657  47.8701745  76.6424168  62.6523132  54.8083709  76.5994269
  62.8459022  55.7129520  76.8453544  62.5523750  54.3491128  77.4332854
  54.3059443  44.6941600  79.0984597  53.6587358  45.3931550  79.0049073
  55.0760458  45.1277744  79.4660845  57.7138241  54.9590452  82.1735150
  57.5623747  54.7301004  81.2565234  57.7042920  55.9161054  82.1866495
  54.4823577  52.5322365  77.1581416  55.4115637  52.6833524  76.9850384
  54.0614607  52.6206386  76.3030063  53.2811909  56.5573029  74.9279954
  53.1422995  56.1891814  75.8005892  52.4926505  57.0720669  74.7563912
  48.8061368  51.3422262  77.8421373  48.6681166  50.6102501  78.4432912
  49.7166292  51.2531162  77.5605561  51.4343669  51.0542221  77.3305052
  52.1443287  50.4135414  77.2891671  51.3912977  51.3055116  78.2531233
  59.4230448  57.9909575  80.2511632  59.3642994  57.3068795  79.5842215
  59.8249966  58.7328565  79.7992258  50.1472603  48.0407439  79.1500692
  49.6109960  47.5898178  79.8022288  49.5589311  48.1753348  78.4071156
  48.4421146  64.8071489  73.0445351  48.6817745  65.4390013  73.7224369
  47.5990343  64.4559529  73.3310710  59.4247855  55.9549159  78.4825611
  58.5374634  55.6175080  78.6052010  59.9946406  55.2232190  78.7194377
  41.0777002  52.2873250  71.8068663  41.7648042  51.9734980  71.2189678
  40.9225131  53.1914615  71.5335914  45.8811724  47.1763447  76.2353686
  45.7969913  46.5689116  75.5004096  45.0594431  47.6672465  76.2363183
  52.9549008  60.6150611  75.4486855  52.8819180  61.4205582  75.9606159
  52.5126401  60.8142577  74.6234876  56.0535438  45.6617010  71.6023882
  56.5504138  44.9086973  71.2824952  55.2822419  45.6981327  71.0367091
  55.4147692  60.5137445  77.6045013  56.1275664  61.1484910  77.5320915
  54.9237720  60.6101311  76.7885015  50.4659605  58.2631888  78.4250584
  51.1669065  58.8968371  78.5779978  49.9954720  58.6046620  77.6646223
  58.4954433  42.6286604  73.7503240  57.5817513  42.8590831  73.9185447
  58.9247534  42.7125048  74.6017273  58.2660891  50.8176496  76.2503134
  57.6132341  51.0652403  75.5955587  58.6441271  50.0040634  75.9165612
  55.2268065  60.8536189  70.3531305  55.4090460  60.0357845  70.8159057
  56.0501051  61.0703881  69.9156195  54.3148464  51.5596307  82.7369172
  53.6389101  51.4590436  83.4071547  55.1376098  51.4035521  83.2005169
  46.0627323  57.7968243  75.3581687  46.6480760  57.0511931  75.4909591
  45.8652162  58.1072200  76.2418351  48.9165979  60.8319491  70.3744129
  48.2476354  61.3165619  69.8908169  48.7778848  61.0788711  71.2887508
  40.6544978  50.3673844  74.0786130  40.6929078  49.8337434  74.8723248
  40.1485271  49.8409049  73.4597107  53.0571247  62.8663234  76.9726787
  53.6089555  63.0294856  77.7375873  53.3977441  63.4567672  76.3006812
  48.0335740  45.2138384  77.5748672  48.0977067  46.0753215  77.1626070
  47.9702861  44.6012386  76.8421031  47.5088013  47.2861517  81.2221706
  48.1360052  46.9038594  81.8359231  46.6515932  47.0675719  81.5877399
  57.9082121  57.6924492  82.8275442  58.4522025  58.3054450  82.3330397
  57.3268966  58.2504070  83.3442455  56.1939634  60.8145210  73.9590470
  56.0690774  60.0134950  73.4501415  56.8518726  61.3091403  73.4704440
  47.8147803  47.1693942  73.1367610  47.0934388  47.7829910  72.9975083
  48.6041058  47.7051707  73.0584256  58.2574543  58.6154230  75.5870020
  57.3104878  58.4959581  75.5148346  58.6057316  57.7276728  75.6696281
  50.6174116  44.5048369  79.4108262  51.1408518  44.7510665  80.1734571
  50.3986449  45.3368404  78.9911399  55.2620976  58.4106946  71.7874372
  55.1145939  57.4823654  71.9681942  56.0874470  58.4327037  71.3031447
  58.8655098  59.2335505  72.8739245  59.7901645  59.0278366  72.7363696
  58.6970401  58.9851906  73.7828586  51.8226661  45.4462064  77.0957932
  51.4823482  44.6469877  77.4978612  51.1165667  45.7463775  76.5234765
  52.4743133  42.5311376  75.5485255  53.2969202  42.0571855  75.4264146
  52.7181197  43.3101860  76.0483941  49.9981712  49.2230497  73.3577234
  49.8526293  49.5370800  74.2501515  49.5206915  49.8415397  72.8048132
  51.8578095  46.2133045  73.4058123  51.8439663  45.3174138  73.0690421
  52.5750523  46.2203709  74.0396409  53.7104225  46.6470385  75.4511251
  53.4522003  47.5687456  75.4495581  53.1789266  46.2500820  76.1411715
  58.6550414  59.7521172  68.2301336  58.8287292  59.1867595  67.4775189
  59.1479305  60.5522067  68.0480826  44.4727374  51.7635841  76.2964895
  43.9280842  52.5395649  76.4285169  45.3506724  52.1106646  76.1384016
  54.1306181  42.7802336  71.8112413  54.1527878  42.8441669  70.8564393
  54.5474240  41.9406844  72.0052919  45.2593396  50.8905738  79.1895052
  44.5175132  51.0388373  79.7759682  44.9386140  51.1514003  78.3261801
  53.2037058  60.4321716  78.9875442  53.5124185  60.1870863  79.8598141
  54.0012540  60.6368354  78.4994312  53.2257671  62.5859626  71.2180818
  52.7862661  62.0936004  71.9113675  53.9765787  62.0432593  70.9772894
  45.7050010  58.7771166  71.2205446  46.5308029  58.4774938  70.8404090
  45.3544061  58.0078789  71.6695235  50.6731543  58.1297635  73.2903120
  50.0511552  57.4668340  72.9905348  51.3436410  58.1558767  72.6076768
  43.9058615  56.6957493  72.1794380  43.0690523  56.2679667  71.9978381
  43.8782260  56.8889936  73.1165171  50.7456070  46.6079423  82.8835626
  50.7944226  47.4841546  82.5013396  51.2878584  46.0656816  82.3107269
  61.2310916  57.1520546  82.1636763  60.4406460  57.1344685  81.6241263
  60.9944270  57.6908840  82.9185800  61.3508791  54.0013012  79.4769492
  61.4006796  53.8363020  80.4185014  61.2422714  53.1340271  79.0867372
  50.2345050  56.6801558  66.7661581  50.3833170  57.3637022  66.1128253
  51.0411493  56.6606648  67.2811036  58.6412553  49.9843940  80.7928798
  59.5422416  49.8450405  80.5012796  58.7160528  50.1498395  81.7326976
  52.9755359  47.3610795  79.6381985  52.1058668  47.6544361  79.3664573
  53.2114839  47.9451240  80.3589248  62.8526988  56.4209954  79.7211513
  62.5611796  56.7839934  80.5574974  62.2399119  55.7076962  79.5424845
  61.1014176  51.5442568  78.1891571  61.5768298  51.7370215  77.3810423
  60.1779741  51.6001754  77.9434955  55.6794392  43.5790412  77.1547405
  56.1976336  44.3151439  76.8293894  55.3249525  43.8854405  77.9894164
  55.9306987  39.9990695  72.6748302  56.2108740  39.3313884  73.3008728
  56.7157594  40.1919790  72.1622966  59.8015845  48.4208329  76.4219877
  60.7533268  48.5206426  76.4432101  59.6319295  47.6286597  76.9317961
  57.8230224  45.5063912  76.6079278  57.2280157  45.7868925  75.9125766
  57.5379921  45.9957813  77.3796019  60.0909138  42.1766507  71.5416272
  59.8933959  41.8681595  72.4259604  60.7008844  42.9028146  71.6714202
  54.0025946  54.5628247  83.0390038  54.9228956  54.7406846  83.2330084
  53.9675529  53.6184293  82.8869737  43.2208111  49.7566841  71.9643312
  42.9010895  48.9032149  71.6717686  42.6741539  49.9715419  72.7201279
  46.9988019  52.4729282  75.6812819  47.2174028  53.4046390  75.7000852
  47.4113793  52.1137256  76.4667623  55.8482785  42.0575414  69.2912804
  56.4013823  42.4770868  69.9502827  56.0852871  41.1311162  69.3335760
  51.8715884  48.0462488  85.0715568  51.7712611  48.9956845  85.0027659
  51.6537426  47.7180727  84.1991638  43.0896371  53.3769753  73.9336434
  42.3959843  52.9623705  73.4206388  43.8369362  53.4190289  73.3369853
  59.2261592  44.1675939  68.7991468  58.6460261  44.8260743  68.4169520
  58.9597525  43.3453284  68.3878885  57.6765158  43.5680997  71.0012788
  58.1764937  43.6797532  70.1927107  58.3200766  43.2642050  71.6413597
  51.7347154  51.4759627  83.8880629  51.2514236  52.2759987  84.0944518
  51.8208093  51.4867572  82.9348073  45.0033114  53.3088006  71.8102449
  44.9803802  53.4075694  70.8584332  45.3133750  54.1553157  72.1319615
  47.6620492  55.3664161  75.9249063  48.6163745  55.3348104  75.8578995
  47.4633015  54.9054785  76.7399289  48.2519874  53.9365277  78.4919861
  49.0712763  54.4309356  78.5154698  48.5256681  53.0197246  78.4637428
  61.3601006  46.3522551  71.5702155  62.1361396  46.8419003  71.8426772
  60.6349140  46.7780605  72.0274025  46.0170720  60.9083781  72.9419261
  45.8825188  60.1484182  72.3757259  45.6002783  61.6324681  72.4748050
  49.1739846  61.8053098  73.1537704  49.0572230  62.7498530  73.0516394
  48.3532292  61.5026659  73.5423503  43.5054788  48.2703411  79.1912058
  44.1513652  47.7602365  79.6799283  43.2971939  49.0072093  79.7655483
  56.0308180  55.3384259  84.6904198  56.8999340  55.5124911  84.3290833
  55.5514932  56.1578676  84.5679928  50.1994360  62.4581360  76.3693632
  51.1021607  62.4904970  76.6860127  49.9731730  61.5281811  76.3839968
  51.9547962  61.2112346  73.0303711  51.0043593  61.2114208  72.9168083
  52.2580449  60.4645081  72.5139745  55.8410518  39.1286233  69.1981891
  55.0742914  38.5744719  69.3438573  56.2521223  39.2008101  70.0596042
  47.8452279  45.4171028  83.2887072  48.7083740  45.0607833  83.4990397
  47.2717690  45.0784923  83.9762476  61.7017406  70.9372276  78.9376387
  61.4107272  71.8417907  78.8223054  62.3374391  70.9788804  79.6520457
  70.1675772  58.4221146  76.5330268  69.8359097  59.2916557  76.3091483
  69.5721385  58.1057430  77.2124299  61.6428071  77.3878012  68.8997149
  61.5652101  78.3385837  68.9785629  61.0389715  77.0423885  69.5572075
  64.1345301  64.5605878  81.5558515  63.3578635  65.1199798  81.5461380
  64.7735864  65.0462661  82.0773386  62.3891673  67.3691331  81.1176482
  63.1306358  67.9076375  80.8411306  61.6828659  67.9957620  81.2748034
  61.1253037  64.5230979  81.9191792  60.4951698  65.2047260  82.1527189
  61.0189125  64.4114061  80.9744931  56.4198009  64.1902775  72.8457717
  55.6297063  64.4460304  72.3697827  56.9109257  65.0051113  72.9509757
  58.3712755  64.5547354  69.8041193  57.5743918  64.6666049  70.3224689
  58.1438347  64.8934007  68.9382084  54.7035712  64.4433266  75.2772707
  54.9543751  65.3280276  75.5430283  55.2395261  64.2637867  74.5047799
  63.9166440  72.7460165  67.6202688  63.7812115  73.5911701  68.0487536
  64.4576253  72.9479443  66.8568622  60.4033780  58.8251745  84.2817044
  60.0100725  58.2717944  84.9564688  61.2199920  59.1362323  84.6723561
  63.3201741  60.2409624  81.8737300  64.0611454  60.8416777  81.7941763
  63.5519664  59.4987262  81.3155343  58.4643079  65.4265991  80.1515530
  58.3496594  64.5251249  80.4522629  57.6087596  65.6729688  79.8000346
  65.5434916  73.3683732  81.7503030  65.0998771  72.5820110  81.4323935
  66.2052130  73.5562882  81.0846921  60.3022038  74.8979533  76.2763709
  60.8529463  74.7696597  75.5040703  59.4633514  75.1974422  75.9258602
  67.6416155  73.6486532  79.7784432  67.6234630  74.4695413  79.2864701
  68.5636075  73.5240607  80.0034573  64.0989209  71.1630661  80.6207940
  64.6317545  70.4018949  80.3907248  63.5703290  70.8704313  81.3632095
  67.2658904  56.2690727  76.1501582  66.9223173  57.1592369  76.0740692
  67.6337866  56.0792385  75.2871167  66.3455444  58.6395382  74.1150815
  65.8420240  58.6025517  73.3018620  66.6386051  59.5488125  74.1747472
  62.5898330  58.7234112  73.1216997  63.4551327  58.5276921  72.7622886
  62.6575839  58.4944464  74.0486354  55.3570925  65.9314973  69.6400917
  55.1595325  65.3384334  68.9151984  54.8017589  65.6267183  70.3576856
  57.7702700  61.9833820  69.9120111  58.0309517  62.8979153  69.8029272
  58.5919872  61.5158262  70.0616724  59.2427625  63.3971577  77.0818936
  59.9150679  63.1888939  76.4331585  58.4157412  63.1993663  76.6424168
  68.5531995  70.2882370  82.1735150  68.4017502  70.0592921  81.2565234
  68.5436675  71.2452971  82.1866495  59.6455123  66.6714180  77.8421373
  59.5074921  65.9394419  78.4432912  60.5560046  66.5823080  77.5605561
  70.2624202  73.3201492  80.2511632  70.2036748  72.6360712  79.5842215
  70.6643720  74.0620482  79.7992258  60.9866357  63.3699357  79.1500692
  60.4503714  62.9190095  79.8022288  60.3983066  63.5045266  78.4071156
  59.2814901  80.1363406  73.0445351  59.5211499  80.7681930  73.7224369
  58.4384097  79.7851446  73.3310710  51.9170756  67.6165168  71.8068663
  52.6041796  67.3026898  71.2189678  51.7618885  68.5206533  71.5335914
  56.7205479  62.5055365  76.2353686  56.6363667  61.8981034  75.5004096
  55.8988185  62.9964383  76.2363183  63.7942763  75.9442529  75.4486855
  63.7212934  76.7497500  75.9606159  63.3520156  76.1434494  74.6234876
  63.5832542  75.1814299  68.9589676  62.8000064  75.7235979  69.0527901
  64.2825288  75.6988278  69.3583917  66.2541446  75.8429363  77.6045013
  66.9669418  76.4776827  77.5320915  65.7631475  75.9393229  76.7885015
  61.3053360  73.5923806  78.4250584  62.0062819  74.2260289  78.5779978
  60.8348475  73.9338538  77.6646223  69.3348187  57.9578522  73.7503240
  68.4211267  58.1882748  73.9185447  69.7641289  58.0416966  74.6017273
  66.0661820  76.1828107  70.3531305  66.2484214  75.3649763  70.8159057
  66.8894806  76.3995799  69.9156195  65.1542219  66.8888225  82.7369172
  64.4782856  66.7882354  83.4071547  65.9769853  66.7327438  83.2005169
  56.9021078  73.1260161  75.3581687  57.4874515  72.3803849  75.4909591
  56.7045916  73.4364118  76.2418351  59.7559733  76.1611409  70.3744129
  59.0870108  76.6457536  69.8908169  59.6172603  76.4080629  71.2887508
  51.4938733  65.6965761  74.0786130  51.5322832  65.1629352  74.8723248
  50.9879025  65.1700967  73.4597107  63.8965002  78.1955152  76.9726787
  64.4483310  78.3586774  77.7375873  64.2371195  78.7859590  76.3006812
  58.8729495  60.5430302  77.5748672  58.9370821  61.4045133  77.1626070
  58.8096615  59.9304304  76.8421031  58.3481767  62.6153434  81.2221706
  58.9753806  62.2330512  81.8359231  57.4909686  62.3967636  81.5877399
  68.7475876  73.0216410  82.8275442  69.2915780  73.6346368  82.3330397
  68.1662721  73.5795988  83.3442455  55.1247310  64.4229864  67.1540061
  55.4200751  63.5140542  67.1007115  54.2235346  64.4017603  66.8321064
  67.0333389  76.1437128  73.9590470  66.9084528  75.3426867  73.4501415
  67.6912480  76.6383321  73.4704440  61.4567871  59.8340287  79.4108262
  61.9802272  60.0802583  80.1734571  61.2380204  60.6660321  78.9911399
  56.8535152  62.1043961  67.2779386  56.5247858  61.2241340  67.0954492
  57.2074522  62.0491630  68.1655776  69.7048852  74.5627423  72.8739245
  70.6295400  74.3570284  72.7363696  69.5364156  74.3143824  73.7828586
  63.3136888  57.8603294  75.5485255  64.1362957  57.3863772  75.4264146
  63.5574951  58.6393778  76.0483941  69.4944169  75.0813090  68.2301336
  69.6681046  74.5159513  67.4775189  69.9873060  75.8813985  68.0480826
  55.3121128  67.0927759  76.2964895  54.7674597  67.8687567  76.4285169
  56.1900478  67.4398564  76.1384016  56.0987150  66.2197655  79.1895052
  55.3568886  66.3680291  79.7759682  55.7779895  66.4805921  78.3261801
  72.3810764  71.8479560  66.8585565  72.9062088  72.1866833  66.1334885
  72.2933117  70.9126575  66.6748700  64.0430813  75.7613634  78.9875442
  64.3517939  75.5162780  79.8598141  64.8406295  75.9660272  78.4994312
  64.0651425  77.9151543  71.2180818  63.6256415  77.4227922  71.9113675
  64.8159542  77.3724511  70.9772894  61.5849825  61.9371340  82.8835626
  61.6337980  62.8133463  82.5013396  62.1272339  61.3948733  82.3107269
  72.0704670  72.4812464  82.1636763  71.2800214  72.4636603  81.6241263
  71.8338025  73.0200757  82.9185800  73.6920742  71.7501872  79.7211513
  73.4005551  72.1131852  80.5574974  73.0792873  71.0368880  79.5424845
  66.5188147  58.9082330  77.1547405  67.0370091  59.6443357  76.8293894
  66.1643280  59.2146323  77.9894164  66.7700741  55.3282612  72.6748302
  67.0502495  54.6605801  73.3008728  67.5551348  55.5211708  72.1622966
  64.8419701  69.8920165  83.0390038  65.7622710  70.0698764  83.2330084
  64.8069284  68.9476210  82.8869737  54.0601866  65.0858759  71.9643312
  53.7404650  64.2324067  71.6717686  53.5135294  65.3007337  72.7201279
  57.8381773  67.8021200  75.6812819  58.0567783  68.7338308  75.7000852
  58.2507547  67.4429174  76.4667623  62.7109638  63.3754405  85.0715568
  62.6106365  64.3248762  85.0027659  62.4931181  63.0472644  84.1991638
  53.9290126  68.7061670  73.9336434  53.2353597  68.2915623  73.4206388
  54.6763117  68.7482207  73.3369853  62.5740909  66.8051544  83.8880629
  62.0907990  67.6051904  84.0944518  62.6601848  66.8159489  82.9348073
  58.5014246  70.6956079  75.9249063  59.4557500  70.6640021  75.8578995
  58.3026770  70.2346703  76.7399289  59.0913628  69.2657195  78.4919861
  59.9106517  69.7601274  78.5154698  59.3650436  68.3489163  78.4637428
  56.8564475  76.2375699  72.9419261  56.7218943  75.4776099  72.3757259
  56.4396537  76.9616598  72.4748050  60.0133601  77.1345016  73.1537704
  59.8965985  78.0790448  73.0516394  59.1926047  76.8318577  73.5423503
  54.3448542  63.5995329  79.1912058  54.9907406  63.0894283  79.6799283
  54.1365694  64.3364011  79.7655483  66.8701935  70.6676176  84.6904198
  67.7393094  70.8416829  84.3290833  66.3908686  71.4870593  84.5679928
  61.0388115  77.7873277  76.3693632  61.9415362  77.8196888  76.6860127
  60.8125485  76.8573728  76.3839968  62.7941717  76.5404264  73.0303711
  61.8437348  76.5406126  72.9168083  63.0974203  75.7936999  72.5139745
  58.6846033  60.7462946  83.2887072  59.5477495  60.3899751  83.4990397
  58.1111444  60.4076841  83.9762476  78.5294410  82.3764802  74.0949473
  79.1672820  82.2571550  73.3912813  78.4115253  83.3245646  74.1537425
  75.3384117  82.3292230  74.0310998  75.0002628  82.2133295  73.1431533
  76.2073885  81.9283396  74.0112004  71.1970932  84.1827707  70.0207889
  70.6335797  84.0917644  69.2524176  71.0823327  83.3627611  70.5010381
  75.8203900  83.4827082  79.9897203  75.8092540  83.0879880  79.1177707
  75.9824539  82.7493155  80.5830975  68.7435364  85.6778898  72.8592109
  69.5356656  85.3369723  72.4438408  68.9832014  85.7873874  73.7794262
  76.7770491  87.8498675  65.3322354  76.1258471  88.4352755  64.9456367
  77.5714854  88.3804869  65.3917391  70.7026118  84.9387812  65.7309488
  71.4756994  84.3916799  65.5922364  71.0551517  85.8032061  65.9423949
  72.5411161  86.2664194  78.9376387  72.2501027  87.1709825  78.8223054
  73.1768145  86.3080722  79.6520457  73.4667368  83.6441043  75.5277747
  74.0630940  83.4197065  74.8134710  73.5242339  82.9025788  76.1303195
  73.0392396  81.0980478  63.3627938  73.2917917  80.5761999  62.6011401
  72.1016955  80.9346623  63.4654621  78.0835679  80.1016256  71.1702681
  78.8698768  79.6835679  70.8193098  78.3474383  81.0062348  71.3384329
  78.2545756  85.5389107  65.8691338  77.6191589  85.6123733  66.5812242
  77.9243163  86.1282705  65.1910417  83.4844106  80.0391489  72.0735660
  84.2169278  79.4690706  72.3073489  82.7283462  79.6513090  72.5142165
  72.7588685  83.0008584  65.5652313  72.6424943  82.3253487  66.2333397
  72.8690945  82.5140958  64.7484466  75.1020226  82.4618731  69.2699002
  74.7378433  81.9349352  69.9811923  75.9587342  82.0717200  69.0965487
  81.0069526  73.7513064  76.5330268  80.6752851  74.6208474  76.3091483
  80.4115140  73.4349348  77.2124299  74.7425713  77.4908631  64.2660351
  74.9100115  78.3588867  64.6330822  74.5522882  77.6535912  63.3421640
  77.5001046  85.9525610  75.9326181  77.2001769  86.8550648  75.8241988
  77.1552105  85.6857793  76.7847334  70.9513527  82.4039406  71.9662885
  70.0264024  82.2715620  72.1740577  71.1997941  83.1833626  72.4632828
  80.8998190  78.4708150  73.6123618  79.9915067  78.4023558  73.3182379
  80.8485785  78.9480095  74.4405444  74.7214934  79.9466288  65.2507017
  74.6014559  80.3923339  66.0892498  74.0267522  80.2951606  64.6920555
  68.3122338  82.0472680  72.8006674  68.4414720  82.3007159  73.7146086
  67.6319790  82.6400388  72.4811329  72.4821826  92.7169930  68.8997149
  72.4045855  93.6677755  68.9785629  71.8783469  92.3715802  69.5572075
  74.9739055  79.8897795  81.5558515  74.1972389  80.4491715  81.5461380
  75.6129618  80.3754578  82.0773386  82.7659836  76.6724588  75.3901492
  82.1234216  76.9657121  74.7441287  82.2614765  76.5577508  76.1954689
  80.4200000  80.4187761  66.0787351  81.3317856  80.6515148  65.9035049
  79.9109647  81.0024805  65.5162430  73.2285428  82.6983249  81.1176482
  73.9700112  83.2368293  80.8411306  72.5222413  83.3249537  81.2748034
  78.7040767  84.8412389  79.7148644  79.1124123  84.3994800  78.9703276
  77.9818029  84.2665017  79.9682837  75.0571837  79.7784996  77.0882201
  75.9033033  80.2024409  77.2316850  74.9970475  79.1218620  77.7820764
  79.0269582  85.4013580  73.4700933  78.3978444  85.5659294  72.7677001
  78.6395244  85.8155189  74.2411897  82.9058814  86.3368018  70.8245297
  82.2209852  86.7166919  70.2742330  82.9902663  86.9463344  71.5577244
  78.2071283  77.4389364  78.7463375  77.9632215  78.1931425  78.2097650
  78.4831213  77.8174712  79.5810622  80.1609745  83.9827977  77.4240640
  80.3726641  84.6259737  76.7475021  80.1139494  83.1490293  76.9562570
  77.7635974  76.5945797  74.3277212  76.9020453  76.8927051  74.6193950
  77.7898409  76.8116196  73.3958245  74.5797544  85.1387988  70.7351018
  75.0435889  85.4175691  69.9455640  74.3154342  84.2371432  70.5524109
  71.4721625  84.6859469  73.6730781  72.0422982  85.1146738  73.0348266
  72.0629737  84.4042054  74.3714967  73.5166430  81.2611140  67.5440583
  74.2190473  81.7132184  68.0114509  73.1847058  80.6194959  68.1720476
  71.9646791  79.8522897  81.9191792  71.3345452  80.5339178  82.1527189
  71.8582879  79.7405978  80.9744931  67.2591764  79.5194693  72.8457717
  66.4690818  79.7752221  72.3697827  67.7503011  80.3343031  72.9509757
  81.2755573  86.8599932  75.5962997  82.0973017  86.4580119  75.3145679
  81.2717976  86.7568166  76.5479113  69.2106509  79.8839272  69.8041193
  68.4137673  79.9957966  70.3224689  68.9832101  80.2225924  68.9382084
  75.0412177  86.4083975  77.7523708  75.1056609  86.8704383  78.5881880
  74.3323101  85.7781340  77.8806018  65.5429467  79.7725183  75.2772707
  65.7937505  80.6572193  75.5430283  66.0789015  79.5929785  74.5047799
  89.3661566  83.2038681  71.9447969  88.6125275  82.6346079  71.7891973
  89.5009108  83.1701345  72.8918604  74.7560195  88.0752083  67.6202688
  74.6205869  88.9203619  68.0487536  75.2970007  88.2771360  66.8568622
  71.2427534  74.1543663  84.2817044  70.8494480  73.6009861  84.9564688
  72.0593675  74.4654241  84.6723561  68.2089592  85.5927521  68.1930613
  68.7214113  86.3870771  68.3436178  68.8612305  84.8953811  68.1264215
  70.0184477  88.7093277  70.2753367  70.1951105  89.6311242  70.0874350
  70.8141310  88.3951696  70.7047746  74.1595495  75.5701542  81.8737300
  74.9005209  76.1708695  81.7941763  74.3913418  74.8279180  81.3155343
  69.3036833  80.7557909  80.1515530  69.1890348  79.8543166  80.4522629
  68.4481351  81.0021606  79.8000346  76.3828671  88.6975649  81.7503030
  75.9392525  87.9112028  81.4323935  77.0445885  88.8854800  81.0846921
  71.1415792  90.2271451  76.2763709  71.6923217  90.0988514  75.5040703
  70.3027268  90.5266340  75.9258602  78.4809909  88.9778449  79.7784432
  78.4628384  89.7987330  79.2864701  79.4029829  88.8532524  80.0034573
  74.9382963  86.4922579  80.6207940  75.4711300  85.7310867  80.3907248
  74.4097044  86.1996231  81.3632095  78.1052658  71.5982645  76.1501582
  77.7616928  72.4884286  76.0740692  78.4731621  71.4084302  75.2871167
  66.1738509  83.9216175  68.9690184  67.0113731  84.3313184  68.7523892
  66.3516776  82.9815617  68.9390378  78.0702941  81.5891256  64.6574017
  77.5549564  82.3595860  64.8962404  77.7980249  80.9156392  65.2807078
  75.6550052  76.4340957  69.7159255  74.7991648  76.0447807  69.5364894
  76.0677004  76.5132917  68.8559041  77.1849199  73.9687300  74.1150815
  76.6813994  73.9317435  73.3018620  77.4779805  74.8780043  74.1747472
  73.4292084  74.0526030  73.1216997  74.2945081  73.8568838  72.7622886
  73.4969593  73.8236381  74.0486354  83.0437215  84.3423610  66.5927190
  82.2666658  84.0034770  66.1482352  83.7228696  84.3476234  65.9182155
  77.8589244  79.4618348  66.4833798  77.5539380  79.7764497  67.3343941
  78.8119686  79.5399768  66.5261131  76.3035676  85.6208571  68.1326752
  75.7757037  84.8861331  67.8199989  75.8023179  86.3983248  67.8866720
  81.2828522  83.8157592  73.2493798  80.6252196  84.5056853  73.3373927
  82.0868921  84.2054024  73.5927785  71.0354403  76.2828238  70.4933364
  71.6098155  76.0603419  69.7606557  71.6225386  76.3516932  71.2461965
  80.0933981  82.1701964  71.2997740  80.6065862  82.8031956  71.8019450
  80.7435205  81.5703160  70.9341100  71.3623991  78.3132699  64.5129249
  70.5261303  78.6507385  64.8338524  71.2228760  78.1781678  63.5756386
  73.3377071  73.1569486  69.2208433  72.6841484  72.8418504  68.5965048
  73.2957545  72.5345227  69.9468256  74.4488276  83.4388781  61.1361725
  73.5415338  83.2078035  61.3352874  74.9459308  82.6426401  61.3235707
  77.3556355  92.1486289  64.0558411  76.6818054  92.4517985  64.6643369
  77.7422177  92.9515369  63.7063868  76.5714812  79.6451420  73.5456081
  75.6537373  79.8666367  73.3877769  76.9874955  79.7197730  72.6867788
  77.3549859  81.0442836  68.6758761  78.1021678  81.5564233  68.3665883
  77.6241449  80.7226888  69.5363154  75.6276509  83.5401376  65.6585715
  74.7187729  83.2560409  65.7558185  75.6571593  83.9600455  64.7989022
  80.8595777  87.1507966  69.4276883  80.4058104  86.3098876  69.4842073
  80.2289744  87.7869364  69.7651663  79.8028696  78.0799952  70.6577550
  79.0651453  77.5677338  70.9887793  80.0555470  77.6400333  69.8460827
  79.3028716  88.9884463  70.3626701  79.5951691  89.5489520  69.6439067
  79.8127337  89.2813024  71.1179860  79.9040324  70.8576204  71.2519319
  80.2099201  69.9973567  70.9645235  80.6292929  71.4493824  71.0518313
  66.1964680  81.2606890  69.6400917  65.9989080  80.6676251  68.9151984
  65.6411344  80.9559101  70.3576856  74.1761404  81.1529997  71.7595511
  74.2310013  80.2003833  71.6837987  73.3652606  81.3089436  72.2436809
  75.3252597  85.0810120  62.9973794  74.8872027  84.3645979  62.5379431
  76.0663038  85.3086235  62.4358885  72.1153763  79.7707057  69.5185889
  71.3021629  80.0701227  69.9251082  72.6112758  79.3762745  70.2360372
  74.2662341  89.7664814  71.4520154  74.2238520  89.9925660  70.5228686
  75.1825040  89.5328188  71.6005955  77.7127975  80.2348881  78.3500783
  78.0677363  80.4620354  79.2095249  78.3600106  80.5667258  77.7278039
  83.4425712  83.3567317  69.0550112  83.3043611  83.5468913  68.1271302
  83.0861931  84.1186700  69.5118163  71.6067838  77.3425412  75.1347124
  72.2467218  77.2014171  74.4370088  70.7745369  77.0559926  74.7585726
  83.4695092  85.4243844  74.0661384  83.9031598  85.3319133  74.9144438
  84.1826672  85.4001345  73.4281400  72.3828142  86.6427843  71.2482117
  73.1768741  86.1478163  71.0464692  71.6719834  86.1145706  70.8849822
  77.2022987  89.0245938  75.5994484  77.2560009  89.5936874  76.3672200
  76.3337768  89.1947823  75.2348522  68.6910906  80.7870924  67.3241869
  67.7608494  80.7255380  67.5411832  68.7868378  80.2646877  66.5278511
  68.6096455  77.3125737  69.9120111  68.8703272  78.2271070  69.8029272
  69.4313627  76.8450180  70.0616724  70.0821380  78.7263494  77.0818936
  70.7544433  78.5180857  76.4331585  69.2551166  78.5285580  76.6424168
  84.3310641  85.4667545  76.5994269  84.5246531  86.3713355  76.8453544
  84.2311259  85.0074964  77.4332854  75.9846952  75.3525435  79.0984597
  75.3374867  76.0515385  79.0049073  76.7547967  75.7861579  79.4660845
  79.3925750  85.6174287  82.1735150  79.2411256  85.3884839  81.2565234
  79.3830429  86.5744889  82.1866495  76.1611086  83.1906200  77.1581416
  77.0903146  83.3417360  76.9850384  75.7402116  83.2790221  76.3030063
  74.9599418  87.2156865  74.9279954  74.8210504  86.8475649  75.8005892
  74.1714014  87.7304504  74.7563912  75.5547570  92.3165961  66.2705490
  75.7299326  91.8454004  67.0851113  74.8680358  92.9431727  66.4986751
  76.5104633  86.5938467  72.3168792  76.1754466  86.5539237  73.2126442
  76.0108579  85.9283183  71.8439202  70.4848877  82.0006097  77.8421373
  70.3468675  81.2686336  78.4432912  71.3953801  81.9114997  77.5605561
  79.4463825  83.9394502  62.5905851  78.8292996  83.2141330  62.4938904
  78.9780313  84.7003862  62.2472926  73.1131178  81.7126057  77.3305052
  73.8230796  81.0719249  77.2891671  73.0700486  81.9638952  78.2531233
  81.1017957  88.6493410  80.2511632  81.0430503  87.9652630  79.5842215
  81.5037475  89.3912400  79.7992258  71.8260112  78.6991275  79.1500692
  71.2897469  78.2482013  79.8022288  71.2376820  78.8337183  78.4071156
  70.1208655  95.4655324  73.0445351  70.3605254  96.0973848  73.7224369
  69.2777852  95.1143364  73.3310710  71.2362371  78.1579926  61.7127156
  70.3591837  78.0368727  61.3489402  71.7120124  77.3666004  61.4606044
  81.1035364  86.6132994  78.4825611  80.2162143  86.2758916  78.6052010
  81.6733915  85.8816025  78.7194377  62.7564511  82.9457086  71.8068663
  63.4435551  82.6318816  71.2189678  62.6012640  83.8498450  71.5335914
  67.5599233  77.8347282  76.2353686  67.4757422  77.2272952  75.5004096
  66.7381939  78.3256301  76.2363183  74.6336517  91.2734446  75.4486855
  74.5606689  92.0789418  75.9606159  74.1913910  91.4726412  74.6234876
  74.4226297  90.5106216  68.9589676  73.6393819  91.0527897  69.0527901
  75.1219042  91.0280196  69.3583917  77.7322947  76.3200846  71.6023882
  78.2291646  75.5670808  71.2824952  76.9609928  76.3565162  71.0367091
  85.5852704  82.0241211  73.2442173  85.5742581  82.9065927  72.8736106
  84.7170084  81.6712762  73.0496710  77.0935201  91.1721280  77.6045013
  77.8063173  91.8068745  77.5320915  76.6025229  91.2685146  76.7885015
  78.8152728  85.0772533  69.1762305  77.8809006  85.1973995  69.0067009
  78.9929396  84.1745000  68.9122315  74.3157916  78.4618229  71.3295566
  73.9455703  77.9089269  72.0176472  74.8117008  77.8576362  70.7770566
  82.2025279  80.9189852  69.7112339  82.6685731  81.7517844  69.6372642
  82.6532779  80.4534834  70.4157598  72.1447114  88.9215724  78.4250584
  72.8456574  89.5552207  78.5779978  71.6742229  89.2630455  77.6646223
  80.2701510  87.2633674  66.7098491  80.5461354  87.1490268  67.6192365
  79.4006009  86.8651158  66.6710664  80.1741942  73.2870439  73.7503240
  79.2605022  73.5174666  73.9185447  80.6035043  73.3708883  74.6017273
  79.9448400  81.4760331  76.2503134  79.2919850  81.7236239  75.5955587
  80.3228780  80.6624469  75.9165612  76.9055574  91.5120024  70.3531305
  77.0877969  90.6941680  70.8159057  77.7288560  91.7287717  69.9156195
  77.2397740  90.4388210  67.6146353  77.7685506  89.9280664  67.0016515
  77.5025959  90.1230740  68.4791886  75.9935973  82.2180142  82.7369172
  75.3176610  82.1174272  83.4071547  76.8163607  82.0619356  83.2005169
  67.7414832  88.4552079  75.3581687  68.3268269  87.7095767  75.4909591
  67.5439671  88.7656036  76.2418351  70.5953488  91.4903326  70.3744129
  69.9263863  91.9749454  69.8908169  70.4566357  91.7372547  71.2887508
  62.3332487  81.0257679  74.0786130  62.3716587  80.4921270  74.8723248
  61.8272780  80.4992885  73.4597107  74.7358756  93.5247070  76.9726787
  75.2877064  93.6878691  77.7375873  75.0764950  94.1151508  76.3006812
  69.7123249  75.8722220  77.5748672  69.7764576  76.7337050  77.1626070
  69.6490370  75.2596221  76.8421031  69.1875522  77.9445352  81.2221706
  69.8147561  77.5622429  81.8359231  68.3303441  77.7259554  81.5877399
  79.5869630  88.3508327  82.8275442  80.1309534  88.9638286  82.3330397
  79.0056475  88.9087906  83.3442455  65.9641065  79.7521781  67.1540061
  66.2594506  78.8432460  67.1007115  65.0629100  79.7309521  66.8321064
  77.8727143  91.4729045  73.9590470  77.7478283  90.6718785  73.4501415
  78.5306235  91.9675239  73.4704440  69.4935312  77.8277778  73.1367610
  68.7721897  78.4413745  72.9975083  70.2828567  78.3635543  73.0584256
  79.9362052  89.2738065  75.5870020  78.9892387  89.1543417  75.5148346
  80.2844825  88.3860563  75.6696281  72.2961625  75.1632204  79.4108262
  72.8196027  75.4094501  80.1734571  72.0773958  75.9952239  78.9911399
  76.9408485  89.0690782  71.7874372  76.7933448  88.1407489  71.9681942
  77.7661979  89.0910872  71.3031447  70.8070729  77.7208849  67.6454864
  71.1466802  78.2494770  66.9233472  71.2542850  78.0589255  68.4213431
  80.5442607  89.8919340  72.8739245  81.4689154  89.6862202  72.7363696
  80.3757910  89.6435741  73.7828586  73.5014170  76.1045899  77.0957932
  73.1610991  75.3053712  77.4978612  72.7953176  76.4047610  76.5234765
  74.1530642  73.1895212  75.5485255  74.9756711  72.7155690  75.4264146
  74.3968706  73.9685696  76.0483941  72.7938877  76.2183470  65.8448157
  73.5147239  76.5964723  65.3411874  72.1704181  76.9372347  65.9483135
  76.9369999  76.9228619  66.7806489  77.1533614  77.8053257  66.4795317
  76.4564067  76.5314833  66.0512131  71.6769221  79.8814332  73.3577234
  71.5313802  80.1954636  74.2501515  71.1994424  80.4999233  72.8048132
  73.5365604  76.8716880  73.4058123  73.5227172  75.9757974  73.0690421
  74.2538032  76.8787544  74.0396409  75.3891734  77.3054221  75.4511251
  75.1309512  78.2271291  75.4495581  74.8576775  76.9084655  76.1411715
  80.3337923  90.4105008  68.2301336  80.5074801  89.8451430  67.4775189
  80.8266814  91.2105903  68.0480826  66.1514883  82.4219677  76.2964895
  65.6068351  83.1979485  76.4285169  67.0294233  82.7690481  76.1384016
  72.9402500  75.7531261  68.6745693  73.0618411  74.8247907  68.8736581
  72.6504542  75.7669947  67.7624009  75.8093690  73.4386171  71.8112413
  75.8315387  73.5025504  70.8564393  76.2261749  72.5990680  72.0052919
  86.1877314  83.1741431  69.8491636  86.6308460  82.4248756  69.4510759
  85.3103825  83.1651567  69.4665368  81.3213096  89.7271772  65.3298234
  82.0164000  90.3478465  65.5485549  81.6636246  88.8767123  65.6050612
  66.9380905  81.5489573  79.1895052  66.1962641  81.6972208  79.7759682
  66.6173649  81.8097839  78.3261801  83.2204519  87.1771478  66.8585565
  83.7455843  87.5158750  66.1334885  83.1326871  86.2418493  66.6748700
  74.8824567  91.0905551  78.9875442  75.1911694  90.8454698  79.8598141
  75.6800049  91.2952190  78.4994312  74.9045180  93.2443461  71.2180818
  74.4650170  92.7519840  71.9113675  75.6553296  92.7016429  70.9772894
  67.3837518  89.4355002  71.2205446  68.2095538  89.1358774  70.8404090
  67.0331570  88.6662624  71.6695235  72.3519052  88.7881470  73.2903120
  71.7299061  88.1252175  72.9905348  73.0223919  88.8142602  72.6076768
  65.5846124  87.3541328  72.1794380  64.7478032  86.9263503  71.9978381
  65.5569769  87.5473772  73.1165171  72.4243579  77.2663258  82.8835626
  72.4731735  78.1425381  82.5013396  72.9666093  76.7240651  82.3107269
  82.9098425  87.8104381  82.1636763  82.1193969  87.7928520  81.6241263
  82.6731779  88.3492675  82.9185800  83.0296300  84.6596848  79.4769492
  83.0794305  84.4946855  80.4185014  82.9210223  83.7924107  79.0867372
  71.9132559  87.3385393  66.7661581  72.0620679  88.0220858  66.1128253
  72.7199002  87.3190483  67.2811036  80.3200062  80.6427776  80.7928798
  81.2209925  80.5034241  80.5012796  80.3948037  80.8082231  81.7326976
  74.6542868  78.0194630  79.6381985  73.7846177  78.3128197  79.3664573
  74.8902348  78.6035075  80.3589248  84.5314497  87.0793789  79.7211513
  84.2399305  87.4423770  80.5574974  83.9186628  86.3660798  79.5424845
  85.7310179  84.6446669  72.2414083  86.5657070  85.0836473  72.4051644
  85.8669308  84.1685322  71.4222329  82.7801685  82.2026404  78.1891571
  83.2555807  82.3954050  77.3810423  81.8567250  82.2585590  77.9434955
  69.6685192  83.3650571  67.7722650  69.4231233  82.4612901  67.9702860
  69.8381106  83.3667721  66.8302128  77.3581901  74.2374247  77.1547405
  77.8763845  74.9735274  76.8293894  77.0037034  74.5438241  77.9894164
  68.9380839  79.0978929  65.2708811  68.2450084  79.1723284  64.6148847
  68.6932591  78.3339272  65.7930328  77.6094496  70.6574530  72.6748302
  77.8896249  69.9897719  73.3008728  78.3945103  70.8503626  72.1622966
  75.4127964  89.8333524  64.2373328  74.8401931  90.4523711  63.7843800
  75.9860758  90.3832886  64.7713250  81.4803354  79.0792164  76.4219877
  82.4320777  79.1790262  76.4432101  81.3106804  78.2870432  76.9317961
  79.5017733  76.1647747  76.6079278  78.9067666  76.4452760  75.9125766
  79.2167430  76.6541648  77.3796019  78.6325224  90.1170674  65.3681910
  79.5655897  90.0516236  65.5714786  78.5448437  90.9526941  64.9096443
  81.2613241  89.4336544  62.3285858  81.1826872  89.0996408  63.2221616
  82.0822907  89.9258312  62.3277330  83.9591432  82.2998284  75.5362176
  83.9267752  81.3614284  75.7221860  84.5692055  82.3782320  74.8028001
  75.7974763  81.1694337  61.5789381  76.7433867  81.0400545  61.6477799
  75.4189008  80.4308999  62.0558809  84.1085920  79.0909327  75.5820460
  83.5924969  78.3067784  75.3950389  84.9925869  78.7628044  75.7466979
  81.7696647  72.8350343  71.5416272  81.5721468  72.5265431  72.4259604
  82.3796353  73.5611982  71.6714202  89.7767982  83.3614290  74.6768213
  90.5071370  83.0999579  75.2375917  89.1674927  82.6243012  74.7170281
  87.8583279  81.5022153  75.2742664  87.1316442  81.3678118  74.6659156
  87.4430566  81.8098982  76.0799383  75.6813455  85.2212083  83.0390038
  76.6016465  85.3990682  83.2330084  75.6463038  84.2768128  82.8869737
  73.9817680  79.0944313  61.5144266  73.0749135  78.7977426  61.5906979
  74.2593661  78.7974131  60.6478552  64.8995620  80.4150676  71.9643312
  64.5798404  79.5615985  71.6717686  64.3529048  80.6299255  72.7201279
  68.6775528  83.1313117  75.6812819  68.8961537  84.0630225  75.7000852
  69.0901301  82.7721092  76.4667623  75.5979745  73.6381203  67.6688507
  74.7880474  73.2928288  68.0443753  76.2864162  73.3288746  68.2576119
  77.5270294  72.7159250  69.2912804  78.0801332  73.1354703  69.9502827
  77.7640380  71.7894998  69.3335760  73.5503393  78.7046323  85.0715568
  73.4500120  79.6540680  85.0027659  73.3324935  78.3764562  84.1991638
  72.7516464  75.9531248  61.6556245  73.6135628  76.2786147  61.9152062
  72.9366809  75.1662744  61.1429311  64.7683880  84.0353588  73.9336434
  64.0747352  83.6207541  73.4206388  65.5156871  84.0774124  73.3369853
  80.9049101  74.8259775  68.7991468  80.3247770  75.4844579  68.4169520
  80.6385034  74.0037119  68.3878885  79.3552667  74.2264832  71.0012788
  79.8552446  74.3381367  70.1927107  79.9988275  73.9225885  71.6413597
  73.4134663  82.1343462  83.8880629  72.9301745  82.9343822  84.0944518
  73.4995602  82.1451407  82.9348073  66.6820623  83.9671842  71.8102449
  66.6591311  84.0659529  70.8584332  66.9921259  84.8136992  72.1319615
  69.3408001  86.0247997  75.9249063  70.2951254  85.9931939  75.8578995
  69.1420524  85.5638620  76.7399289  69.9307383  84.5949113  78.4919861
  70.7500272  85.0893191  78.5154698  70.2044190  83.6781081  78.4637428
  79.6873979  76.9859865  67.8547816  78.7999834  77.2709516  67.6368011
  80.1027968  76.8253628  67.0075093  83.0388515  77.0106386  71.5702155
  83.8148905  77.5002838  71.8426772  82.3136649  77.4364440  72.0274025
  85.4761074  77.7234005  72.6276096  86.0705564  77.4829741  71.9169404
  85.5487657  77.0041136  73.2549632  67.6958229  91.5667616  72.9419261
  67.5612697  90.8068017  72.3757259  67.2790292  92.2908516  72.4748050
  78.8317192  86.7504540  61.9495836  79.5353042  86.9554542  62.5653492
  78.1079841  87.3181302  62.2144920  79.6615003  82.5014401  68.0698106
  79.6050204  82.9582952  67.2305739  80.2143345  81.7405086  67.8920949
  83.4719809  78.2904133  68.8948226  83.2156743  77.8900769  69.7256434
  82.8472677  79.0047927  68.7698365  87.7832146  81.0300206  71.4019517
  87.2231704  81.0993395  72.1751079  87.1775650  80.8541191  70.6819014
  70.8527355  92.4636933  73.1537704  70.7359739  93.4082366  73.0516394
  70.0319801  92.1610495  73.5423503  80.7403890  87.1887069  63.9994296
  81.5749494  86.7568267  63.8171771  80.5788233  87.0169083  64.9271191
  80.3949782  83.6919182  65.3650636  80.3398586  83.5263454  64.4239080
  79.7695837  84.3995215  65.5212825  65.1842297  78.9287247  79.1912058
  65.8301161  78.4186201  79.6799283  64.9759448  79.6655928  79.7655483
  77.7095689  85.9968094  84.6904198  78.5786849  86.1708746  84.3290833
  77.2302441  86.8162511  84.5679928  73.7045907  73.1927291  64.9435954
  73.6924577  74.1369131  65.1004225  74.5969329  73.0097437  64.6495415
  71.8781869  93.1165195  76.3693632  72.7809116  93.1488805  76.6860127
  71.6519239  92.1865646  76.3839968  73.6335471  91.8696182  73.0303711
  72.6831102  91.8698043  72.9168083  73.9367957  91.1228916  72.5139745
  77.5198027  69.7870068  69.1981891  76.7530423  69.2328555  69.3438573
  77.9308732  69.8591937  70.0596042  69.5239788  76.0754864  83.2887072
  70.3871249  75.7191669  83.4990397  68.9505199  75.7368759  83.9762476
  89.3688165  97.7056720  74.0949473  90.0066575  97.5863467  73.3912813
  89.2509008  98.6537564  74.1537425  86.1777871  97.6584148  74.0310998
  85.8396383  97.5425213  73.1431533  87.0467639  97.2575313  74.0112004
  82.0364687  99.5119625  70.0207889  81.4729552  99.4209561  69.2524176
  81.9217082  98.6919529  70.5010381  86.6597654  98.8119000  79.9897203
  86.6486295  98.4171798  79.1177707  86.8218294  98.0785072  80.5830975
  79.5829119 101.0070816  72.8592109  80.3750411 100.6661641  72.4438408
  79.8225769 101.1165791  73.7794262  87.6164246 103.1790592  65.3322354
  86.9652225 103.7644673  64.9456367  88.4108608 103.7096787  65.3917391
  81.5419873 100.2679729  65.7309488  82.3150749  99.7208716  65.5922364
  81.8945272 101.1323979  65.9423949  83.3804915 101.5956112  78.9376387
  83.0894781 102.5001743  78.8223054  84.0161900 101.6372639  79.6520457
  84.3061122  98.9732960  75.5277747  84.9024694  98.7488983  74.8134710
  84.3636094  98.2317706  76.1303195  83.8786150  96.4272396  63.3627938
  84.1311671  95.9053917  62.6011401  82.9410710  96.2638541  63.4654621
  88.9229433  95.4308174  71.1702681  89.7092523  95.0127597  70.8193098
  89.1868138  96.3354266  71.3384329  89.0939511 100.8681024  65.8691338
  88.4585344 100.9415651  66.5812242  88.7636917 101.4574623  65.1910417
  94.3237860  95.3683407  72.0735660  95.0563032  94.7982624  72.3073489
  93.5677216  94.9805008  72.5142165  83.5982439  98.3300501  65.5652313
  83.4818697  97.6545405  66.2333397  83.7084699  97.8432875  64.7484466
  85.9413980  97.7910649  69.2699002  85.5772187  97.2641270  69.9811923
  86.7981096  97.4009118  69.0965487  91.8463281  89.0804981  76.5330268
  91.5146606  89.9500392  76.3091483  91.2508894  88.7641265  77.2124299
  85.5819467  92.8200548  64.2660351  85.7493869  93.6880785  64.6330822
  85.3916636  92.9827830  63.3421640  88.3394800 101.2817527  75.9326181
  88.0395523 102.1842566  75.8241988  87.9945860 101.0149710  76.7847334
  81.7907282  97.7331324  71.9662885  80.8657778  97.6007538  72.1740577
  82.0391695  98.5125543  72.4632828  91.7391944  93.8000067  73.6123618
  90.8308821  93.7315476  73.3182379  91.6879540  94.2772012  74.4405444
  85.5608688  95.2758206  65.2507017  85.4408313  95.7215257  66.0892498
  84.8661276  95.6243523  64.6920555  79.1516093  97.3764598  72.8006674
  79.2808474  97.6299077  73.7146086  78.4713544  97.9692306  72.4811329
  83.3215580 108.0461848  68.8997149  83.2439610 108.9969673  68.9785629
  82.7177224 107.7007720  69.5572075  85.8132810  95.2189713  81.5558515
  85.0366144  95.7783633  81.5461380  86.4523373  95.7046496  82.0773386
  93.6053591  92.0016506  75.3901492  92.9627971  92.2949039  74.7441287
  93.1008519  91.8869426  76.1954689  91.2593754  95.7479679  66.0787351
  92.1711610  95.9807066  65.9035049  90.7503401  96.3316723  65.5162430
  84.0679182  98.0275166  81.1176482  84.8093867  98.5660210  80.8411306
  83.3616168  98.6541455  81.2748034  89.5434522 100.1704307  79.7148644
  89.9517878  99.7286717  78.9703276  88.8211783  99.5956934  79.9682837
  85.8965592  95.1076914  77.0882201  86.7426787  95.5316327  77.2316850
  85.8364230  94.4510538  77.7820764  89.8663336 100.7305497  73.4700933
  89.2372199 100.8951212  72.7677001  89.4788999 101.1447107  74.2411897
  93.7452568 101.6659935  70.8245297  93.0603607 102.0458837  70.2742330
  93.8296418 102.2755262  71.5577244  89.0465037  92.7681282  78.7463375
  88.8025969  93.5223342  78.2097650  89.3224968  93.1466630  79.5810622
  91.0003500  99.3119894  77.4240640  91.2120395  99.9551654  76.7475021
  90.9533248  98.4782211  76.9562570  88.6029729  91.9237715  74.3277212
  87.7414208  92.2218968  74.6193950  88.6292164  92.1408114  73.3958245
  85.4191298 100.4679905  70.7351018  85.8829644 100.7467608  69.9455640
  85.1548096  99.5663350  70.5524109  82.3115379 100.0151387  73.6730781
  82.8816736 100.4438655  73.0348266  82.9023491  99.7333972  74.3714967
  84.3560184  96.5903058  67.5440583  85.0584228  97.0424102  68.0114509
  84.0240813  95.9486877  68.1720476  82.8040546  95.1814814  81.9191792
  82.1739207  95.8631095  82.1527189  82.6976634  95.0697896  80.9744931
  78.0985518  94.8486611  72.8457717  77.3084572  95.1044139  72.3697827
  78.5896766  95.6634948  72.9509757  92.1149328 102.1891850  75.5962997
  92.9366772 101.7872037  75.3145679  92.1111731 102.0860084  76.5479113
  80.0500264  95.2131190  69.8041193  79.2531427  95.3249884  70.3224689
  79.8225856  95.5517842  68.9382084  85.8805931 101.7375893  77.7523708
  85.9450364 102.1996300  78.5881880  85.1716855 101.1073258  77.8806018
  76.3823221  95.1017101  75.2772707  76.6331260  95.9864111  75.5430283
  76.9182770  94.9221703  74.5047799 100.2055321  98.5330598  71.9447969
  99.4519029  97.9637996  71.7891973 100.3402862  98.4993263  72.8918604
  85.5953949 103.4044000  67.6202688  85.4599624 104.2495536  68.0487536
  86.1363762 103.6063278  66.8568622  82.0821289  89.4835580  84.2817044
  81.6888234  88.9301779  84.9564688  82.8987429  89.7946159  84.6723561
  79.0483346 100.9219439  68.1930613  79.5607867 101.7162689  68.3436178
  79.7006059 100.2245729  68.1264215  80.8578231 104.0385195  70.2753367
  81.0344859 104.9603160  70.0874350  81.6535065 103.7243614  70.7047746
  84.9989250  90.8993459  81.8737300  85.7398963  91.5000613  81.7941763
  85.2307172  90.1571097  81.3155343  80.1430588  96.0849827  80.1515530
  80.0284103  95.1835084  80.4522629  79.2875105  96.3313523  79.8000346
  87.2222425 104.0267567  81.7503030  86.7786280 103.2403946  81.4323935
  87.8839639 104.2146718  81.0846921  81.9809547 105.5563369  76.2763709
  82.5316972 105.4280432  75.5040703  81.1421022 105.8558258  75.9258602
  89.3203663 104.3070367  79.7784432  89.3022139 105.1279248  79.2864701
  90.2423584 104.1824442  80.0034573  85.7776718 101.8214496  80.6207940
  86.3105054 101.0602785  80.3907248  85.2490799 101.5288148  81.3632095
  88.9446413  86.9274562  76.1501582  88.6010682  87.8176204  76.0740692
  89.3125375  86.7376220  75.2871167  77.0132263  99.2508093  68.9690184
  77.8507485  99.6605101  68.7523892  77.1910531  98.3107535  68.9390378
  88.9096695  96.9183173  64.6574017  88.3943319  97.6887778  64.8962404
  88.6374004  96.2448310  65.2807078  86.4943806  91.7632874  69.7159255
  85.6385403  91.3739725  69.5364894  86.9070758  91.8424835  68.8559041
  88.0242953  89.2979218  74.1150815  87.5207749  89.2609353  73.3018620
  88.3173560  90.2071960  74.1747472  84.2685839  89.3817947  73.1216997
  85.1338836  89.1860756  72.7622886  84.3363348  89.1528299  74.0486354
  93.8830969  99.6715528  66.5927190  93.1060412  99.3326688  66.1482352
  94.5622450  99.6768151  65.9182155  88.6982998  94.7910266  66.4833798
  88.3933134  95.1056415  67.3343941  89.6513441  94.8691685  66.5261131
  87.1429430 100.9500489  68.1326752  86.6150792 100.2153248  67.8199989
  86.6416933 101.7275165  67.8866720  92.1222276  99.1449509  73.2493798
  91.4645951  99.8348771  73.3373927  92.9262676  99.5345941  73.5927785
  81.8748158  91.6120155  70.4933364  82.4491910  91.3895337  69.7606557
  82.4619140  91.6808850  71.2461965  90.9327735  97.4993882  71.2997740
  91.4459617  98.1323874  71.8019450  91.5828959  96.8995078  70.9341100
  82.2017745  93.6424616  64.5129249  81.3655057  93.9799303  64.8338524
  82.0622515  93.5073596  63.5756386  84.1770826  88.4861404  69.2208433
  83.5235238  88.1710421  68.5965048  84.1351300  87.8637145  69.9468256
  85.2882031  98.7680699  61.1361725  84.3809092  98.5369953  61.3352874
  85.7853063  97.9718318  61.3235707  88.1950109 107.4778206  64.0558411
  87.5211808 107.7809903  64.6643369  88.5815931 108.2807287  63.7063868
  87.4108566  94.9743338  73.5456081  86.4931127  95.1958285  73.3877769
  87.8268710  95.0489648  72.6867788  88.1943614  96.3734753  68.6758761
  88.9415433  96.8856151  68.3665883  88.4635203  96.0518806  69.5363154
  86.4670264  98.8693294  65.6585715  85.5581483  98.5852327  65.7558185
  86.4965348  99.2892373  64.7989022  91.6989531 102.4799884  69.4276883
  91.2451858 101.6390793  69.4842073  91.0683498 103.1161282  69.7651663
  90.6422451  93.4091870  70.6577550  89.9045208  92.8969256  70.9887793
  90.8949224  92.9692251  69.8460827  90.1422471 104.3176380  70.3626701
  90.4345445 104.8781437  69.6439067  90.6521091 104.6104941  71.1179860
  90.7434078  86.1868122  71.2519319  91.0492955  85.3265485  70.9645235
  91.4686683  86.7785742  71.0518313  77.0358434  96.5898808  69.6400917
  76.8382834  95.9968169  68.9151984  76.4805098  96.2851018  70.3576856
  85.0155158  96.4821915  71.7595511  85.0703768  95.5295751  71.6837987
  84.2046360  96.6381354  72.2436809  86.1646352 100.4102038  62.9973794
  85.7265782  99.6937897  62.5379431  86.9056793 100.6378153  62.4358885
  82.9547518  95.0998974  69.5185889  82.1415383  95.3993145  69.9251082
  83.4506512  94.7054663  70.2360372  85.1056096 105.0956731  71.4520154
  85.0632275 105.3217578  70.5228686  86.0218795 104.8620106  71.6005955
  88.5521730  95.5640799  78.3500783  88.9071117  95.7912272  79.2095249
  89.1993861  95.8959176  77.7278039  94.2819467  98.6859235  69.0550112
  94.1437365  98.8760831  68.1271302  93.9255685  99.4478618  69.5118163
  82.4461593  92.6717330  75.1347124  83.0860972  92.5306089  74.4370088
  81.6139123  92.3851843  74.7585726  94.3088846 100.7535762  74.0661384
  94.7425353 100.6611051  74.9144438  95.0220427 100.7293262  73.4281400
  83.2221897 101.9719760  71.2482117  84.0162495 101.4770080  71.0464692
  82.5113589 101.4437623  70.8849822  88.0416741 104.3537856  75.5994484
  88.0953763 104.9228792  76.3672200  87.1731522 104.5239741  75.2348522
  79.5304660  96.1162842  67.3241869  78.6002248  96.0547298  67.5411832
  79.6262132  95.5938795  66.5278511  79.4490209  92.6417655  69.9120111
  79.7097026  93.5562988  69.8029272  80.2707381  92.1742097  70.0616724
  80.9215134  94.0555412  77.0818936  81.5938188  93.8472774  76.4331585
  80.0944921  93.8577498  76.6424168  95.1704396 100.7959462  76.5994269
  95.3640286 101.7005273  76.8453544  95.0705014 100.3366881  77.4332854
  86.8240706  90.6817353  79.0984597  86.1768621  91.3807303  79.0049073
  87.5941722  91.1153497  79.4660845  90.2319504 100.9466205  82.1735150
  90.0805011 100.7176757  81.2565234  90.2224184 101.9036807  82.1866495
  87.0004841  98.5198118  77.1581416  87.9296901  98.6709277  76.9850384
  86.5795871  98.6082139  76.3030063  85.7993173 102.5448782  74.9279954
  85.6604258 102.1767567  75.8005892  85.0107769 103.0596422  74.7563912
  86.3941325 107.6457879  66.2705490  86.5693080 107.1745922  67.0851113
  85.7074113 108.2723645  66.4986751  87.3498388 101.9230385  72.3168792
  87.0148220 101.8831155  73.2126442  86.8502333 101.2575101  71.8439202
  81.3242632  97.3298015  77.8421373  81.1862430  96.5978254  78.4432912
  82.2347555  97.2406915  77.5605561  90.2857579  99.2686419  62.5905851
  89.6686750  98.5433248  62.4938904  89.8174068 100.0295780  62.2472926
  83.9524932  97.0417974  77.3305052  84.6624551  96.4011167  77.2891671
  83.9094241  97.2930869  78.2531233  91.9411711 103.9785328  80.2511632
  91.8824257 103.2944548  79.5842215  92.3431229 104.7204318  79.7992258
  82.6653866  94.0283192  79.1500692  82.1291223  93.5773931  79.8022288
  82.0770575  94.1629101  78.4071156  80.9602410 110.7947242  73.0445351
  81.1999008 111.4265766  73.7224369  80.1171606 110.4435282  73.3310710
  82.0756125  93.4871844  61.7127156  81.1985592  93.3660644  61.3489402
  82.5513878  92.6957922  61.4606044  91.9429118 101.9424912  78.4825611
  91.0555897 101.6050833  78.6052010  92.5127669 101.2107943  78.7194377
  73.5958265  98.2749003  71.8068663  74.2829305  97.9610733  71.2189678
  73.4406394  99.1790368  71.5335914  78.3992988  93.1639200  76.2353686
  78.3151176  92.5564869  75.5004096  77.5775694  93.6548218  76.2363183
  85.4730272 106.6026364  75.4486855  85.4000443 107.4081335  75.9606159
  85.0307665 106.8018330  74.6234876  85.2620051 105.8398134  68.9589676
  84.4787573 106.3819814  69.0527901  85.9612796 106.3572114  69.3583917
  88.5716701  91.6492763  71.6023882  89.0685401  90.8962726  71.2824952
  87.8003683  91.6857080  71.0367091  96.4246459  97.3533129  73.2442173
  96.4136335  98.2357844  72.8736106  95.5563838  97.0004680  73.0496710
  87.9328955 106.5013198  77.6045013  88.6456927 107.1360663  77.5320915
  87.4418984 106.5977064  76.7885015  89.6546482 100.4064451  69.1762305
  88.7202761 100.5265913  69.0067009  89.8323151  99.5036917  68.9122315
  85.1551670  93.7910146  71.3295566  84.7849458  93.2381187  72.0176472
  85.6510763  93.1868280  70.7770566  93.0419033  96.2481770  69.7112339
  93.5079486  97.0809762  69.6372642  93.4926534  95.7826752  70.4157598
  82.9840869 104.2507641  78.4250584  83.6850328 104.8844124  78.5779978
  82.5135984 104.5922373  77.6646223  91.1095265 102.5925591  66.7098491
  91.3855108 102.4782186  67.6192365  90.2399763 102.1943076  66.6710664
  91.0135696  88.6162357  73.7503240  90.0998776  88.8466584  73.9185447
  91.4428798  88.7000801  74.6017273  90.7842155  96.8052249  76.2503134
  90.1313605  97.0528156  75.5955587  91.1622535  95.9916387  75.9165612
  87.7449329 106.8411942  70.3531305  87.9271723 106.0233598  70.8159057
  88.5682315 107.0579634  69.9156195  88.0791494 105.7680127  67.6146353
  88.6079261 105.2572582  67.0016515  88.3419714 105.4522657  68.4791886
  86.8329728  97.5472060  82.7369172  86.1570365  97.4466189  83.4071547
  87.6557362  97.3911274  83.2005169  78.5808587 103.7843997  75.3581687
  79.1662024 103.0387684  75.4909591  78.3833425 104.0947953  76.2418351
  81.4347242 106.8195244  70.3744129  80.7657617 107.3041372  69.8908169
  81.2960112 107.0664464  71.2887508  73.1726242  96.3549597  74.0786130
  73.2110341  95.8213187  74.8723248  72.6666534  95.8284802  73.4597107
  85.5752511 108.8538987  76.9726787  86.1270819 109.0170609  77.7375873
  85.9158704 109.4443425  76.3006812  80.5517004  91.2014137  77.5748672
  80.6158330  92.0628968  77.1626070  80.4884124  90.5888139  76.8421031
  80.0269276  93.2737270  81.2221706  80.6541315  92.8914347  81.8359231
  79.1697195  93.0551472  81.5877399  90.4263385 103.6800245  82.8275442
  90.9703289 104.2930203  82.3330397  89.8450230 104.2379823  83.3442455
  76.8034819  95.0813699  67.1540061  77.0988260  94.1724377  67.1007115
  75.9022855  95.0601438  66.8321064  88.7120898 106.8020963  73.9590470
  88.5872037 106.0010703  73.4501415  89.3699989 107.2967156  73.4704440
  80.3329066  93.1569695  73.1367610  79.6115652  93.7705663  72.9975083
  81.1222322  93.6927460  73.0584256  90.7755806 104.6029983  75.5870020
  89.8286142 104.4835334  75.5148346  91.1238579 103.7152481  75.6696281
  83.1355380  90.4924122  79.4108262  83.6589781  90.7386418  80.1734571
  82.9167713  91.3244157  78.9911399  78.5322661  92.7627797  67.2779386
  78.2035367  91.8825175  67.0954492  78.8862031  92.7075465  68.1655776
  87.7802240 104.3982699  71.7874372  87.6327202 103.4699407  71.9681942
  88.6055733 104.4202790  71.3031447  81.6464484  93.0500766  67.6454864
  81.9860556  93.5786688  66.9233472  82.0936604  93.3881172  68.4213431
  91.3836361 105.2211258  72.8739245  92.3082909 105.0154119  72.7363696
  91.2151665 104.9727659  73.7828586  84.3407925  91.4337817  77.0957932
  84.0004745  90.6345630  77.4978612  83.6346931  91.7339528  76.5234765
  84.9924397  88.5187129  75.5485255  85.8150466  88.0447608  75.4264146
  85.2362460  89.2977613  76.0483941  83.6332631  91.5475388  65.8448157
  84.3540994  91.9256641  65.3411874  83.0097935  92.2664265  65.9483135
  87.7763754  92.2520537  66.7806489  87.9927368  93.1345175  66.4795317
  87.2957821  91.8606750  66.0512131  82.5162975  95.2106250  73.3577234
  82.3707556  95.5246553  74.2501515  82.0388179  95.8291150  72.8048132
  84.3759358  92.2008798  73.4058123  84.3620927  91.3049891  73.0690421
  85.0931786  92.2079462  74.0396409  86.2285489  92.6346138  75.4511251
  85.9703267  93.5563209  75.4495581  85.6970529  92.2376573  76.1411715
  91.1731678 105.7396925  68.2301336  91.3468555 105.1743348  67.4775189
  91.6660569 106.5397820  68.0480826  76.9908637  97.7511595  76.2964895
  76.4462106  98.5271402  76.4285169  77.8687987  98.0982399  76.1384016
  83.7796254  91.0823178  68.6745693  83.9012165  90.1539825  68.8736581
  83.4898296  91.0961864  67.7624009  86.6487444  88.7678089  71.8112413
  86.6709141  88.8317422  70.8564393  87.0655503  87.9282597  72.0052919
  97.0271069  98.5033348  69.8491636  97.4702215  97.7540674  69.4510759
  96.1497579  98.4943485  69.4665368  92.1606850 105.0563690  65.3298234
  92.8557755 105.6770383  65.5485549  92.5030000 104.2059041  65.6050612
  77.7774659  96.8781491  79.1895052  77.0356395  97.0264126  79.7759682
  77.4567404  97.1389756  78.3261801  94.0598273 102.5063395  66.8585565
  94.5849597 102.8450668  66.1334885  93.9720626 101.5710411  66.6748700
  85.7218322 106.4197469  78.9875442  86.0305448 106.1746616  79.8598141
  86.5193804 106.6244107  78.4994312  85.7438934 108.5735379  71.2180818
  85.3043924 108.0811757  71.9113675  86.4947051 108.0308346  70.9772894
  78.2231273 104.7646920  71.2205446  79.0489293 104.4650691  70.8404090
  77.8725325 103.9954542  71.6695235  83.1912806 104.1173388  73.2903120
  82.5692815 103.4544093  72.9905348  83.8617673 104.1434520  72.6076768
  76.4239878 102.6833246  72.1794380  75.5871786 102.2555420  71.9978381
  76.3963523 102.8765689  73.1165171  83.2637334  92.5955176  82.8835626
  83.3125489  93.4717299  82.5013396  83.8059848  92.0532569  82.3107269
  93.7492179 103.1396299  82.1636763  92.9587723 103.1220438  81.6241263
  93.5125534 103.6784593  82.9185800  93.8690054  99.9888765  79.4769492
  93.9188059  99.8238773  80.4185014  93.7603978  99.1216024  79.0867372
  82.7526313 102.6677311  66.7661581  82.9014433 103.3512775  66.1128253
  83.5592757 102.6482401  67.2811036  91.1593817  95.9719693  80.7928798
  92.0603680  95.8326158  80.5012796  91.2341791  96.1374148  81.7326976
  85.4936622  93.3486548  79.6381985  84.6239931  93.6420114  79.3664573
  85.7296102  93.9326993  80.3589248  95.3708251 102.4085707  79.7211513
  95.0793059 102.7715687  80.5574974  94.7580382 101.6952715  79.5424845
  96.5703934  99.9738587  72.2414083  97.4050825 100.4128391  72.4051644
  96.7063062  99.4977240  71.4222329  93.6195439  97.5318322  78.1891571
  94.0949561  97.7245968  77.3810423  92.6961005  97.5877507  77.9434955
  80.5078946  98.6942489  67.7722650  80.2624988  97.7904819  67.9702860
  80.6774861  98.6959639  66.8302128  88.1975656  89.5666165  77.1547405
  88.7157600  90.3027192  76.8293894  87.8430789  89.8730158  77.9894164
  79.7774594  94.4270846  65.2708811  79.0843839  94.5015201  64.6148847
  79.5326345  93.6631190  65.7930328  88.4488250  85.9866448  72.6748302
  88.7290004  85.3189637  73.3008728  89.2338857  86.1795543  72.1622966
  86.2521719 105.1625442  64.2373328  85.6795686 105.7815629  63.7843800
  86.8254512 105.7124803  64.7713250  92.3197108  94.4084082  76.4219877
  93.2714531  94.5082179  76.4432101  92.1500559  93.6162350  76.9317961
  90.3411488  91.4939665  76.6079278  89.7461420  91.7744678  75.9125766
  90.0561185  91.9833566  77.3796019  89.4718978 105.4462592  65.3681910
  90.4049652 105.3808153  65.5714786  89.3842191 106.2818859  64.9096443
  92.1006995 104.7628462  62.3285858  92.0220627 104.4288326  63.2221616
  92.9216662 105.2550230  62.3277330  94.7985186  97.6290201  75.5362176
  94.7661506  96.6906202  75.7221860  95.4085810  97.7074238  74.8028001
  86.6368517  96.4986254  61.5789381  87.5827622  96.3692462  61.6477799
  86.2582762  95.7600916  62.0558809  94.9479675  94.4201245  75.5820460
  94.4318723  93.6359701  75.3950389  95.8319623  94.0919961  75.7466979
  92.6090402  88.1642260  71.5416272  92.4115223  87.8557348  72.4259604
  93.2190107  88.8903899  71.6714202 100.6161736  98.6906208  74.6768213
 101.3465125  98.4291496  75.2375917 100.0068682  97.9534930  74.7170281
  98.6977033  96.8314071  75.2742664  97.9710197  96.6970036  74.6659156
  98.2824320  97.1390899  76.0799383  86.5207210 100.5504000  83.0390038
  87.4410219 100.7282599  83.2330084  86.4856793  99.6060046  82.8869737
  84.8211434  94.4236231  61.5144266  83.9142890  94.1269343  61.5906979
  85.0987415  94.1266049  60.6478552  75.7389375  95.7442594  71.9643312
  75.4192159  94.8907902  71.6717686  75.1922803  95.9591172  72.7201279
  79.5169282  98.4605035  75.6812819  79.7355292  99.3922143  75.7000852
  79.9295056  98.1013009  76.4667623  86.4373500  88.9673120  67.6688507
  85.6274228  88.6220205  68.0443753  87.1257917  88.6580664  68.2576119
  88.3664048  88.0451167  69.2912804  88.9195087  88.4646621  69.9502827
  88.6034135  87.1186915  69.3335760  84.3897147  94.0338241  85.0715568
  84.2893874  94.9832598  85.0027659  84.1718690  93.7056480  84.1991638
  83.5910219  91.2823166  61.6556245  84.4529383  91.6078064  61.9152062
  83.7760563  90.4954662  61.1429311  75.6077635  99.3645506  73.9336434
  74.9141106  98.9499458  73.4206388  76.3550626  99.4066042  73.3369853
  91.7442855  90.1551692  68.7991468  91.1641524  90.8136496  68.4169520
  91.4778788  89.3329037  68.3878885  90.1946422  89.5556750  71.0012788
  90.6946200  89.6673285  70.1927107  90.8382030  89.2517803  71.6413597
  84.2528418  97.4635380  83.8880629  83.7695499  98.2635740  84.0944518
  84.3389357  97.4743325  82.9348073  77.5214377  99.2963759  71.8102449
  77.4985065  99.3951447  70.8584332  77.8315014 100.1428910  72.1319615
  80.1801755 101.3539914  75.9249063  81.1345009 101.3223857  75.8578995
  79.9814279 100.8930538  76.7399289  80.7701137  99.9241030  78.4919861
  81.5894026 100.4185109  78.5154698  81.0437945  99.0072999  78.4637428
  90.5267733  92.3151783  67.8547816  89.6393588  92.6001433  67.6368011
  90.9421722  92.1545546  67.0075093  93.8782269  92.3398304  71.5702155
  94.6542660  92.8294756  71.8426772  93.1530404  92.7656358  72.0274025
  96.3154828  93.0525923  72.6276096  96.9099319  92.8121659  71.9169404
  96.3881412  92.3333053  73.2549632  78.5351984 106.8959534  72.9419261
  78.4006452 106.1359935  72.3757259  78.1184046 107.6200434  72.4748050
  89.6710947 102.0796457  61.9495836  90.3746797 102.2846460  62.5653492
  88.9473596 102.6473219  62.2144920  90.5008757  97.8306319  68.0698106
  90.4443958  98.2874870  67.2305739  91.0537100  97.0697003  67.8920949
  94.3113563  93.6196051  68.8948226  94.0550497  93.2192686  69.7256434
  93.6866431  94.3339844  68.7698365  98.6225901  96.3592124  71.4019517
  98.0625459  96.4285313  72.1751079  98.0169404  96.1833108  70.6819014
  81.6921110 107.7928851  73.1537704  81.5753494 108.7374283  73.0516394
  80.8713556 107.4902412  73.5423503  91.5797644 102.5178987  63.9994296
  92.4143248 102.0860185  63.8171771  91.4181987 102.3461000  64.9271191
  91.2343536  99.0211100  65.3650636  91.1792340  98.8555371  64.4239080
  90.6089592  99.7287133  65.5212825  76.0236051  94.2579164  79.1912058
  76.6694915  93.7478118  79.6799283  75.8153203  94.9947846  79.7655483
  88.5489444 101.3260012  84.6904198  89.4180603 101.5000664  84.3290833
  88.0696195 102.1454429  84.5679928  84.5439662  88.5219209  64.9435954
  84.5318332  89.4661049  65.1004225  85.4363084  88.3389354  64.6495415
  82.7175624 108.4457113  76.3693632  83.6202871 108.4780723  76.6860127
  82.4912994 107.5157564  76.3839968  84.4729226 107.1988099  73.0303711
  83.5224857 107.1989961  72.9168083  84.7761712 106.4520834  72.5139745
  88.3591781  85.1161986  69.1981891  87.5924177  84.5620472  69.3438573
  88.7702486  85.1883854  70.0596042  80.3633542  91.4046781  83.2887072
  81.2265004  91.0483586  83.4990397  79.7898953  91.0660676  83.9762476
 100.2081919 113.0348638  74.0949473 100.8460329 112.9155385  73.3912813
 100.0902762 113.9829482  74.1537425  97.0171626 112.9876066  74.0310998
  96.6790137 112.8717131  73.1431533  97.8861394 112.5867231  74.0112004
  92.8758441 114.8411542  70.0207889  92.3123306 114.7501479  69.2524176
  92.7610836 114.0211447  70.5010381  97.4991409 114.1410918  79.9897203
  97.4880049 113.7463716  79.1177707  97.6612048 113.4076990  80.5830975
  90.4222873 116.3362734  72.8592109  91.2144165 115.9953558  72.4438408
  90.6619523 116.4457709  73.7794262  92.3813627 115.5971647  65.7309488
  93.1544503 115.0500634  65.5922364  92.7339026 116.4615896  65.9423949
  94.2198670 116.9248029  78.9376387  93.9288536 117.8293660  78.8223054
  94.8555654 116.9664557  79.6520457  95.1454877 114.3024878  75.5277747
  95.7418449 114.0780900  74.8134710  95.2029848 113.5609623  76.1303195
  94.7179905 111.7564313  63.3627938  94.9705426 111.2345834  62.6011401
  93.7804464 111.5930459  63.4654621  99.7623188 110.7600092  71.1702681
 100.5486277 110.3419515  70.8193098 100.0261892 111.6646184  71.3384329
  94.4376194 113.6592419  65.5652313  94.3212452 112.9837323  66.2333397
  94.5478454 113.1724793  64.7484466  96.7807735 113.1202566  69.2699002
  96.4165942 112.5933187  69.9811923  97.6374851 112.7301035  69.0965487
 102.6857035 104.4096899  76.5330268 102.3540360 105.2792310  76.3091483
 102.0902649 104.0933183  77.2124299  96.4213222 108.1492466  64.2660351
  96.5887624 109.0172702  64.6330822  96.2310391 108.3119748  63.3421640
  92.6301036 113.0623242  71.9662885  91.7051533 112.9299456  72.1740577
  92.8785449 113.8417461  72.4632828 102.5785699 109.1291985  73.6123618
 101.6702576 109.0607393  73.3182379 102.5273294 109.6063930  74.4405444
  96.4002443 110.6050123  65.2507017  96.2802068 111.0507174  66.0892498
  95.7055031 110.9535441  64.6920555  89.9909847 112.7056515  72.8006674
  90.1202228 112.9590994  73.7146086  89.3107299 113.2984223  72.4811329
  96.6526564 110.5481631  81.5558515  95.8759898 111.1075551  81.5461380
  97.2917127 111.0338414  82.0773386 104.4447345 107.3308423  75.3901492
 103.8021725 107.6240957  74.7441287 103.9402274 107.2161344  76.1954689
 102.0987509 111.0771597  66.0787351 103.0105365 111.3098983  65.9035049
 101.5897156 111.6608641  65.5162430  94.9072937 113.3567084  81.1176482
  95.6487621 113.8952128  80.8411306  94.2009922 113.9833373  81.2748034
  96.7359346 110.4368831  77.0882201  97.5820542 110.8608245  77.2316850
  96.6757984 109.7802456  77.7820764  99.8858792 108.0973200  78.7463375
  99.6419724 108.8515260  78.2097650 100.1618722 108.4758547  79.5810622
  99.4423483 107.2529633  74.3277212  98.5807962 107.5510886  74.6193950
  99.4685918 107.4700032  73.3958245  96.2585053 115.7971823  70.7351018
  96.7223398 116.0759526  69.9455640  95.9941851 114.8955268  70.5524109
  93.1509134 115.3443305  73.6730781  93.7210491 115.7730573  73.0348266
  93.7417246 115.0625889  74.3714967  95.1953939 111.9194976  67.5440583
  95.8977982 112.3716019  68.0114509  94.8634567 111.2778794  68.1720476
  93.6434300 110.5106732  81.9191792  93.0132961 111.1923013  82.1527189
  93.5370388 110.3989814  80.9744931  88.9379273 110.1778528  72.8457717
  88.1478327 110.4336057  72.3697827  89.4290520 110.9926866  72.9509757
  90.8894018 110.5423107  69.8041193  90.0925182 110.6541802  70.3224689
  90.6619610 110.8809760  68.9382084  87.2216976 110.4309019  75.2772707
  87.4725014 111.3156029  75.5430283  87.7576524 110.2513620  74.5047799
  92.9215043 104.8127498  84.2817044  92.5281989 104.2593697  84.9564688
  93.7381183 105.1238076  84.6723561  89.8877101 116.2511356  68.1930613
  90.4001621 117.0454606  68.3436178  90.5399814 115.5537647  68.1264215
  95.8383004 106.2285377  81.8737300  96.5792718 106.8292530  81.7941763
  96.0700927 105.4863015  81.3155343  90.9824342 111.4141744  80.1515530
  90.8677857 110.5127002  80.4522629  90.1268860 111.6605441  79.8000346
  99.7840167 102.2566480  76.1501582  99.4404436 103.1468122  76.0740692
 100.1519130 102.0668138  75.2871167  87.8526018 114.5800011  68.9690184
  88.6901240 114.9897019  68.7523892  88.0304285 113.6399453  68.9390378
  99.7490450 112.2475091  64.6574017  99.2337073 113.0179696  64.8962404
  99.4767758 111.5740227  65.2807078  97.3337561 107.0924792  69.7159255
  96.4779157 106.7031642  69.5364894  97.7464513 107.1716753  68.8559041
  98.8636707 104.6271135  74.1150815  98.3601503 104.5901270  73.3018620
  99.1567314 105.5363878  74.1747472  95.1079593 104.7109865  73.1216997
  95.9732590 104.5152674  72.7622886  95.1757102 104.4820217  74.0486354
  99.5376753 110.1202183  66.4833798  99.2326889 110.4348332  67.3343941
 100.4907195 110.1983603  66.5261131  92.7141912 106.9412073  70.4933364
  93.2885664 106.7187254  69.7606557  93.3012895 107.0100767  71.2461965
  93.0411500 108.9716534  64.5129249  92.2048812 109.3091220  64.8338524
  92.9016269 108.8365514  63.5756386  95.0164580 103.8153322  69.2208433
  94.3628992 103.5002339  68.5965048  94.9745054 103.1929062  69.9468256
  96.1275785 114.0972617  61.1361725  95.2202847 113.8661870  61.3352874
  96.6246817 113.3010236  61.3235707  98.2502321 110.3035255  73.5456081
  97.3324882 110.5250202  73.3877769  98.6662464 110.3781566  72.6867788
  99.0337368 111.7026671  68.6758761  99.7809187 112.2148068  68.3665883
  99.3028958 111.3810724  69.5363154  97.3064018 114.1985212  65.6585715
  96.3975238 113.9144245  65.7558185  97.3359102 114.6184290  64.7989022
 101.4816205 108.7383787  70.6577550 100.7438962 108.2261173  70.9887793
 101.7342979 108.2984169  69.8460827 101.5827833 101.5160039  71.2519319
 101.8886710 100.6557403  70.9645235 102.3080438 102.1077659  71.0518313
  87.8752189 111.9190726  69.6400917  87.6776589 111.3260087  68.9151984
  87.3198853 111.6142936  70.3576856  95.8548912 111.8113832  71.7595511
  95.9097522 110.8587669  71.6837987  95.0440115 111.9673271  72.2436809
  93.7941272 110.4290892  69.5185889  92.9809138 110.7285063  69.9251082
  94.2900267 110.0346581  70.2360372  99.3915484 110.8932717  78.3500783
  99.7464872 111.1204190  79.2095249 100.0387615 111.2251093  77.7278039
  93.2855347 108.0009248  75.1347124  93.9254726 107.8598007  74.4370088
  92.4532878 107.7143761  74.7585726  94.0615651 117.3011678  71.2482117
  94.8556250 116.8061998  71.0464692  93.3507343 116.7729541  70.8849822
  90.3698415 111.4454760  67.3241869  89.4396003 111.3839215  67.5411832
  90.4655887 110.9230712  66.5278511  90.2883964 107.9709573  69.9120111
  90.5490781 108.8854906  69.8029272  91.1101136 107.5034015  70.0616724
  91.7608889 109.3847330  77.0818936  92.4331942 109.1764692  76.4331585
  90.9338675 109.1869416  76.6424168  97.6634461 106.0109271  79.0984597
  97.0162376 106.7099220  79.0049073  98.4335476 106.4445415  79.4660845
  97.8398595 113.8490036  77.1581416  98.7690655 114.0001195  76.9850384
  97.4189625 113.9374056  76.3030063  92.1636386 112.6589933  77.8421373
  92.0256184 111.9270172  78.4432912  93.0741310 112.5698833  77.5605561
  94.7918687 112.3709892  77.3305052  95.5018305 111.7303084  77.2891671
  94.7487995 112.6222787  78.2531233  93.5047621 109.3575110  79.1500692
  92.9684978 108.9065848  79.8022288  92.9164329 109.4921019  78.4071156
  92.9149880 108.8163761  61.7127156  92.0379346 108.6952562  61.3489402
  93.3907633 108.0249840  61.4606044  84.4352020 113.6040921  71.8068663
  85.1223060 113.2902651  71.2189678  84.2800149 114.5082286  71.5335914
  89.2386742 108.4931118  76.2353686  89.1544931 107.8856787  75.5004096
  88.4169448 108.9840136  76.2363183  99.4110456 106.9784681  71.6023882
  99.9079155 106.2254643  71.2824952  98.6397437 107.0148998  71.0367091
  95.9945425 109.1202064  71.3295566  95.6243212 108.5673105  72.0176472
  96.4904517 108.5160198  70.7770566 101.8529451 103.9454275  73.7503240
 100.9392531 104.1758501  73.9185447 102.2822552 104.0292719  74.6017273
 101.6235909 112.1344167  76.2503134 100.9707359 112.3820074  75.5955587
 102.0016289 111.3208305  75.9165612  97.6723482 112.8763978  82.7369172
  96.9964119 112.7758107  83.4071547  98.4951116 112.7203191  83.2005169
  89.4202341 119.1135914  75.3581687  90.0055778 118.3679602  75.4909591
  89.2227180 119.4239871  76.2418351  84.0119996 111.6841514  74.0786130
  84.0504096 111.1505105  74.8723248  83.5060289 111.1576720  73.4597107
  91.3910758 106.5306055  77.5748672  91.4552085 107.3920886  77.1626070
  91.3277879 105.9180057  76.8421031  90.8663031 108.6029187  81.2221706
  91.4935070 108.2206265  81.8359231  90.0090950 108.3843389  81.5877399
  87.6428574 110.4105617  67.1540061  87.9382015 109.5016295  67.1007115
  86.7416609 110.3893356  66.8321064  91.1722821 108.4861613  73.1367610
  90.4509406 109.0997581  72.9975083  91.9616076 109.0219378  73.0584256
  93.9749134 105.8216040  79.4108262  94.4983536 106.0678336  80.1734571
  93.7561467 106.6536074  78.9911399  89.3716415 108.0919714  67.2779386
  89.0429121 107.2117093  67.0954492  89.7255786 108.0367383  68.1655776
  92.4858238 108.3792684  67.6454864  92.8254311 108.9078605  66.9233472
  92.9330359 108.7173090  68.4213431  95.1801679 106.7629735  77.0957932
  94.8398500 105.9637548  77.4978612  94.4740685 107.0631446  76.5234765
  95.8318151 103.8479047  75.5485255  96.6544220 103.3739525  75.4264146
  96.0756215 104.6269531  76.0483941  94.4726386 106.8767306  65.8448157
  95.1934748 107.2548558  65.3411874  93.8491690 107.5956182  65.9483135
  98.6157508 107.5812455  66.7806489  98.8321123 108.4637092  66.4795317
  98.1351576 107.1898668  66.0512131  93.3556730 110.5398168  73.3577234
  93.2101310 110.8538471  74.2501515  92.8781933 111.1583068  72.8048132
  95.2153113 107.5300716  73.4058123  95.2014681 106.6341809  73.0690421
  95.9325541 107.5371380  74.0396409  97.0679243 107.9638056  75.4511251
  96.8097021 108.8855127  75.4495581  96.5364284 107.5668491  76.1411715
  87.8302392 113.0803512  76.2964895  87.2855860 113.8563320  76.4285169
  88.7081742 113.4274317  76.1384016  94.6190009 106.4115096  68.6745693
  94.7405920 105.4831742  68.8736581  94.3292051 106.4253782  67.7624009
  97.4881199 104.0970007  71.8112413  97.5102896 104.1609340  70.8564393
  97.9049258 103.2574515  72.0052919  88.6168414 112.2073408  79.1895052
  87.8750150 112.3556044  79.7759682  88.2961158 112.4681674  78.3261801
  89.0625027 120.0938837  71.2205446  89.8883047 119.7942609  70.8404090
  88.7119079 119.3246460  71.6695235  87.2633633 118.0125164  72.1794380
  86.4265541 117.5847338  71.9978381  87.2357278 118.2057607  73.1165171
  94.1031088 107.9247093  82.8835626  94.1519244 108.8009216  82.5013396
  94.6453602 107.3824486  82.3107269 101.9987571 111.3011611  80.7928798
 102.8997434 111.1618076  80.5012796 102.0735546 111.4666066  81.7326976
  96.3330377 108.6778466  79.6381985  95.4633686 108.9712032  79.3664573
  96.5689857 109.2618911  80.3589248  91.3472701 114.0234406  67.7722650
  91.1018742 113.1196736  67.9702860  91.5168615 114.0251557  66.8302128
  99.0369410 104.8958083  77.1547405  99.5551354 105.6319110  76.8293894
  98.6824543 105.2022076  77.9894164  90.6168348 109.7562764  65.2708811
  89.9237593 109.8307119  64.6148847  90.3720100 108.9923108  65.7930328
  99.2882005 101.3158365  72.6748302  99.5683758 100.6481554  73.3008728
 100.0732611 101.5087461  72.1622966 103.1590863 109.7375999  76.4219877
 104.1108286 109.8374097  76.4432101 102.9894313 108.9454268  76.9317961
 101.1805242 106.8231583  76.6079278 100.5855175 107.1036595  75.9125766
 100.8954939 107.3125483  77.3796019  97.4762272 111.8278172  61.5789381
  98.4221376 111.6984380  61.6477799  97.0976517 111.0892834  62.0558809
 105.7873429 109.7493162  75.5820460 105.2712478 108.9651619  75.3950389
 106.6713378 109.4211879  75.7466979 103.4484156 103.4934178  71.5416272
 103.2508977 103.1849266  72.4259604 104.0583862 104.2195817  71.6714202
  95.6605189 109.7528148  61.5144266  94.7536644 109.4561261  61.5906979
  95.9381170 109.4557966  60.6478552  86.5783129 111.0734512  71.9643312
  86.2585913 110.2199820  71.6717686  86.0316557 111.2883090  72.7201279
  90.3563037 113.7896953  75.6812819  90.5749046 114.7214061  75.7000852
  90.7688810 113.4304927  76.4667623  97.2767254 104.2965038  67.6688507
  96.4667983 103.9512123  68.0443753  97.9651671 103.9872582  68.2576119
  99.2057803 103.3743085  69.2912804  99.7588841 103.7938538  69.9502827
  99.4427889 102.4478833  69.3335760  95.2290902 109.3630159  85.0715568
  95.1287629 110.3124515  85.0027659  95.0112444 109.0348397  84.1991638
  94.4303973 106.6115084  61.6556245  95.2923137 106.9369982  61.9152062
  94.6154318 105.8246579  61.1429311  86.4471389 114.6937423  73.9336434
  85.7534861 114.2791376  73.4206388  87.1944380 114.7357960  73.3369853
 102.5836610 105.4843610  68.7991468 102.0035279 106.1428414  68.4169520
 102.3172543 104.6620955  68.3878885 101.0340176 104.8848668  71.0012788
 101.5339955 104.9965202  70.1927107 101.6775784 104.5809721  71.6413597
  95.0922172 112.7927297  83.8880629  94.6089254 113.5927657  84.0944518
  95.1783111 112.8035242  82.9348073  88.3608132 114.6255677  71.8102449
  88.3378820 114.7243364  70.8584332  88.6708768 115.4720828  72.1319615
  91.0195510 116.6831832  75.9249063  91.9738763 116.6515774  75.8578995
  90.8208033 116.2222456  76.7399289  91.6094892 115.2532948  78.4919861
  92.4287781 115.7477027  78.5154698  91.8831699 114.3364916  78.4637428
 101.3661488 107.6443700  67.8547816 100.4787343 107.9293351  67.6368011
 101.7815477 107.4837464  67.0075093 104.7176024 107.6690221  71.5702155
 105.4936414 108.1586674  71.8426772 103.9924158 108.0948276  72.0274025
 107.1548583 108.3817841  72.6276096 107.7493073 108.1413577  71.9169404
 107.2275166 107.6624971  73.2549632 105.1507318 108.9487968  68.8948226
 104.8944252 108.5484604  69.7256434 104.5260186 109.6631762  68.7698365
  86.8629806 109.5871082  79.1912058  87.5088669 109.0770036  79.6799283
  86.6546957 110.3239764  79.7655483  95.3833416 103.8511127  64.9435954
  95.3712086 104.7952967  65.1004225  96.2756838 103.6681272  64.6495415
  99.1985536 100.4453903  69.1981891  98.4317932  99.8912390  69.3438573
  99.6096241 100.5175772  70.0596042  91.2027297 106.7338699  83.2887072
  92.0658758 106.3775504  83.4990397  90.6292708 106.3952594  83.9762476
  35.1719394  -1.9340746  60.8194780  35.8097804  -2.0533998  60.1158120
  35.0540237  -0.9859902  60.8782732  31.9809100  -1.9813318  60.7556304
  31.6427611  -2.0972253  59.8676839  32.8498868  -2.3822153  60.7357310
  27.8395916  -0.1277841  56.7453195  27.2760781  -0.2187904  55.9769483
  27.7248311  -0.9477937  57.2255688  32.4628883  -0.8278466  66.7142510
  32.4517524  -1.2225668  65.8423014  32.6249522  -1.5612393  67.3076281
  25.3860348   1.3673350  59.5837416  26.1781639   1.0264175  59.1683715
  25.6256998   1.4768325  60.5039569  33.4195474   3.5393126  52.0567660
  32.7683454   4.1247207  51.6701674  34.2139837   4.0699321  52.1162698
  27.3451101   0.6282264  52.4554795  28.1181977   0.0811251  52.3167670
  27.6976500   1.4926513  52.6669256  29.1836144   1.9558646  65.6621694
  28.8926010   2.8604277  65.5468360  29.8193128   1.9975173  66.3765763
  30.1092351  -0.6664506  62.2523053  30.7055923  -0.8908483  61.5380016
  30.1667322  -1.4079760  62.8548501  34.7260662  -4.2089292  57.8947988
  35.5123751  -4.6269869  57.5438405  34.9899366  -3.3043200  58.0629636
  34.8970739   1.2283558  52.5936644  34.2616572   1.3018185  53.3057549
  34.5668146   1.8177157  51.9155724  40.1269089  -4.2714059  58.7980966
  40.8594261  -4.8414842  59.0318796  39.3708445  -4.6592458  59.2387472
  29.4013668  -1.3096964  52.2897619  29.2849926  -1.9852061  52.9578704
  29.5115928  -1.7964590  51.4729772  31.7445209  -1.8486817  55.9944309
  31.3803416  -2.3756196  56.7057230  32.6012325  -2.2388348  55.8210794
  34.1426029   1.6420061  62.6571488  33.8426752   2.5445100  62.5487295
  33.7977089   1.3752245  63.5092640  37.5423173  -5.8397398  60.3368925
  36.6340050  -5.9081990  60.0427686  37.4910769  -5.3625453  61.1650750
  29.1246809   8.4064382  55.6242455  29.0470839   9.3572207  55.7030936
  28.5208453   8.0610254  56.2817382  39.4084819  -7.6380960  62.1146799
  38.7659200  -7.3448427  61.4686593  38.9039748  -7.7528040  62.9199995
  37.0624983  -3.8917787  52.8032658  37.9742839  -3.6590400  52.6280356
  36.5534630  -3.3080743  52.2407737  29.8710411  -1.6122299  67.8421789
  30.6125095  -1.0737256  67.5656613  29.1647396  -0.9856011  67.9993341
  35.3465751   0.5306841  66.4393951  35.7549107   0.0889252  65.6948583
  34.6243012  -0.0440531  66.6928144  35.6694565   1.0908032  60.1946239
  35.0403428   1.2553746  59.4922307  35.2820227   1.5049641  60.9657204
  39.5483797   2.0262469  57.5490603  38.8634835   2.4061371  56.9987637
  39.6327647   2.6357796  58.2822551  36.8034729  -0.3277572  64.1485947
  37.0151624   0.3154188  63.4720328  36.7564477  -1.1615255  63.6807877
  31.2222527   0.8282440  57.4596325  31.6860873   1.1070143  56.6700947
  30.9579325  -0.0734116  57.2769415  28.1146608   0.3753921  60.3976088
  28.6847965   0.8041190  59.7593572  28.7054720   0.0936506  61.0960274
  37.9180557   2.5494384  62.3208304  38.7398000   2.1474571  62.0390986
  37.9142960   2.4462618  63.2724420  31.6837160   2.0978427  64.4769015
  31.7481593   2.5598834  65.3127186  30.9748084   1.4675792  64.6051324
  46.0086550  -1.1066868  58.6693276  45.2550258  -1.6759470  58.5137280
  46.1434091  -1.1404203  59.6163910  31.3985178   3.7646535  54.3447995
  31.2630853   4.6098070  54.7732843  31.9394990   3.9665812  53.5813929
  24.8514575   1.2821973  54.9175920  25.3639096   2.0765223  55.0681485
  25.5037288   0.5848263  54.8509521  26.6609460   4.3987729  56.9998673
  26.8376088   5.3205694  56.8119657  27.4566293   4.0846148  57.4293053
  33.0253654   4.3870101  68.4748337  32.5817508   3.6006480  68.1569242
  33.6870868   4.5749252  67.8092228  27.7840775   5.9165903  63.0009016
  28.3348201   5.7882966  62.2286009  26.9452251   6.2160792  62.6503908
  35.1234892   4.6672901  66.5029738  35.1053368   5.4881782  66.0110007
  36.0454812   4.5426976  66.7279879  31.5807946   2.1817031  67.3453247
  32.1136283   1.4205319  67.1152555  31.0522028   1.8890682  68.0877401
  34.7127924  -2.7214292  51.3819324  34.1974548  -1.9509688  51.6207711
  34.4405233  -3.3949156  52.0052385  39.6862198   0.0318062  53.3172497
  38.9091641  -0.3070778  52.8727659  40.3653679   0.0370686  52.6427462
  34.5014227  -4.8487200  53.2079105  34.1964363  -4.5341051  54.0589248
  35.4544669  -4.7705780  53.2506438  32.9460659   1.3103023  54.8572059
  32.4182021   0.5755783  54.5445296  32.4448162   2.0877699  54.6112027
  37.9253505  -0.4947956  59.9739105  37.2677180   0.1951305  60.0619234
  38.7293904  -0.1051524  60.3173091  36.7358964  -2.1403584  58.0243047
  37.2490846  -1.5073592  58.5264756  37.3860188  -2.7402388  57.6586407
  31.0913259  -0.8716767  47.8607032  30.1840321  -1.1027513  48.0598181
  31.5884291  -1.6679147  48.0481013  33.9981338   7.8380741  50.7803718
  33.3243037   8.1412437  51.3888676  34.3847160   8.6409821  50.4309175
  33.2139795  -4.6654128  60.2701387  32.2962356  -4.4439181  60.1123075
  33.6299938  -4.5907818  59.4113095  33.9974843  -3.2662712  55.4004068
  34.7446662  -2.7541315  55.0911190  34.2666432  -3.5878660  56.2608461
  32.2701493  -0.7704172  52.3831022  31.3612712  -1.0545139  52.4803492
  32.2996577  -0.3505093  51.5234329  37.5020760   2.8402418  56.1522189
  37.0483087   1.9993328  56.2087380  36.8714727   3.4763816  56.4896970
  36.4453680  -6.2305596  57.3822857  35.7076437  -6.7428210  57.7133099
  36.6980453  -6.6705215  56.5706134  35.9453699   4.6778914  57.0872008
  36.2376674   5.2383972  56.3684373  36.4552320   4.9707475  57.8425167
  31.9677581   0.7704572  49.7219100  31.5297011   0.0540431  49.2624738
  32.7088021   0.9980687  49.1604192  30.9087325   5.4559266  58.1765461
  30.8663503   5.6820112  57.2473993  31.8250023   5.2222640  58.3251262
  34.3552958  -4.0756667  65.0746090  34.7102346  -3.8485194  65.9340556
  35.0025090  -3.7438290  64.4523345  40.0850695  -0.9538231  55.7795419
  39.9468594  -0.7636635  54.8516608  39.7286914  -0.1918848  56.2363470
  40.1120075   1.1138296  60.7906690  40.5456582   1.0213585  61.6389744
  40.8251656   1.0895796  60.1526706  29.0253125   2.3322295  57.9727423
  29.8193724   1.8372615  57.7709998  28.3144818   1.8040158  57.6095129
  33.8447970   4.7140390  62.3239791  33.8984992   5.2831326  63.0917507
  32.9762751   4.8842275  61.9593828  40.9735625   1.1561997  63.3239576
  41.1671515   2.0607807  63.5698851  40.8736243   0.6969416  64.1578161
  36.0350733   1.3068739  68.8980456  35.8836240   1.0779291  67.9810540
  36.0255413   2.2639341  68.9111801  32.8036070  -1.1199348  63.8826723
  33.7328130  -0.9688188  63.7095690  32.3827100  -1.0315327  63.0275369
  31.6024401   2.9051317  61.6525261  31.4635487   2.5370101  62.5251199
  30.8138998   3.4198956  61.4809218  32.1972553   8.0060413  52.9950797
  32.3724309   7.5348456  53.8096420  31.5105341   8.6326179  53.2232058
  33.1529617   2.2832919  59.0414098  32.8179449   2.2433689  59.9371748
  32.6533562   1.6177635  58.5684509  36.0888808  -0.3711046  49.3151158
  35.4717979  -1.0964218  49.2184211  35.6205297   0.3898314  48.9718232
  29.7556161  -2.5979491  64.0550359  30.4655780  -3.2386299  64.0136978
  29.7125469  -2.3466597  64.9776540  37.7442940   4.3387862  66.9756938
  37.6855486   3.6547082  66.3087521  38.1462458   5.0806852  66.5237564
  26.7633639  11.1549776  59.7690657  27.0030237  11.7868300  60.4469676
  25.9202835  10.8037816  60.0556016  37.7460347   2.3027446  65.2070918
  36.8587126   1.9653368  65.3297317  38.3158898   1.5710477  65.4439683
  31.2761501   6.9628898  62.1732161  31.2031672   7.7683870  62.6851466
  30.8338894   7.1620864  61.3480183  31.0651280   6.2000668  55.6834983
  30.2818802   6.7422348  55.7773207  31.7644025   6.7174648  56.0829224
  42.2277688  -2.2864337  59.9687480  42.2167564  -1.4039621  59.5981413
  41.3595067  -2.6392786  59.7742017  33.7360184   6.8615732  64.3290320
  34.4488156   7.4963197  64.2566221  33.2450213   6.9579598  63.5130322
  35.4577711   0.7666985  55.9007612  34.5233990   0.8868447  55.7312316
  35.6354379  -0.1360548  55.6367621  38.8450262  -3.3915696  56.4357646
  39.3110714  -2.5587704  56.3617948  39.2957763  -3.8570714  57.1402904
  28.7872098   4.6110176  65.1495891  29.4881557   5.2446659  65.3025285
  28.3167213   4.9524907  64.3891530  36.9126493   2.9528125  53.4343798
  37.1886337   2.8384720  54.3437672  36.0430992   2.5545610  53.3955971
  36.5873384  -2.8345217  62.9748441  35.9344834  -2.5869309  62.3200894
  36.9653763  -3.6481079  62.6410918  33.5480557   7.2014476  57.0776611
  33.7302952   6.3836132  57.5404364  34.3713543   7.4182169  56.6401501
  33.8822723   6.1282661  54.3391660  34.4110489   5.6175116  53.7261822
  34.1450942   5.8125192  55.2037193  32.6360957  -2.0925406  69.4614478
  31.9601594  -2.1931276  70.1316853  33.4588590  -2.2486192  69.9250475
  24.3839816   4.1446531  62.0826993  24.9693252   3.3990219  62.2154898
  24.1864654   4.4550487  62.9663657  27.2378471   7.1797778  57.0989436
  26.5688846   7.6643906  56.6153476  27.0991341   7.4266999  58.0132814
  31.3783739   9.2141522  63.6972094  31.9302047   9.3773143  64.4621179
  31.7189933   9.8045959  63.0252119  36.2294614   4.0402779  69.5520749
  36.7734518   4.6532737  69.0575703  35.6481459   4.5982358  70.0687762
  34.5152127   7.1623497  60.6835776  34.3903266   6.3613237  60.1746722
  35.1731218   7.6569691  60.1949746  36.5787035   4.9632517  62.3115326
  35.6317371   4.8437868  62.2393653  36.9269808   4.0755015  62.3941588
  33.5833468   4.7585233  58.5119679  33.4358431   3.8301941  58.6927249
  34.4086962   4.7805324  58.0276754  37.1867590   5.5813792  59.5984551
  38.1114138   5.3756654  59.4609002  37.0182894   5.3330193  60.5073893
  36.9762906   6.0999460  54.9546643  37.1499784   5.5345882  54.2020495
  37.4691798   6.9000355  54.7726133  42.8302298  -1.1364117  56.5736943
  43.2733444  -1.8856792  56.1756066  41.9528808  -1.1453981  56.1910675
  37.9638079   5.4166224  52.0543541  38.6588984   6.0372917  52.2730856
  38.3061229   4.5661575  52.3295919  39.8629502   2.8665930  53.5830872
  40.3880826   3.2053202  52.8580192  39.7751855   1.9312945  53.3994006
  31.5249551   6.7800003  65.7120748  31.8336677   6.5349150  66.5843448
  32.3225033   6.9846642  65.2239619  31.5470163   8.9337913  57.9426125
  31.1075153   8.4414292  58.6358982  32.2978280   8.3910881  57.7018200
  24.0262502   5.1249454  57.9450753  24.8520522   4.8253226  57.5649397
  23.6756554   4.3557076  58.3940542  28.9944035   4.4775922  60.0148427
  28.3724044   3.8146627  59.7150655  29.6648902   4.5037054  59.3322074
  39.5523408   3.4998833  68.8882070  38.7618952   3.4822972  68.3486569
  39.3156763   4.0387127  69.6431106  39.6721283   0.3491300  66.2014798
  39.7219288   0.1841307  67.1430321  39.5635207  -0.5181441  65.8112679
  28.5557542   3.0279845  53.4906887  28.7045662   3.7115310  52.8373560
  29.3623985   3.0084935  54.0056343  36.9625046  -3.6677772  67.5174105
  37.8634908  -3.8071308  67.2258103  37.0373020  -3.5023318  68.4572282
  41.1739480   2.7688241  66.4456820  40.8824288   3.1318222  67.2820281
  40.5611611   2.0555249  66.2670152  42.3735162   0.3341121  58.9659390
  43.2082054   0.7730925  59.1296950  42.5094291  -0.1420226  58.1467636
  39.4226668  -2.1079144  64.9136878  39.8980790  -1.9151498  64.1055729
  38.4992234  -2.0519958  64.6680262  32.0552947   5.5227976  50.9618635
  31.4826914   6.1418163  50.5089107  32.6285741   6.0727337  51.4958557
  38.1228337  -5.2313384  63.1465183  39.0745760  -5.1315287  63.1677408
  37.9531788  -6.0235116  63.6563268  35.2750207   5.8065126  52.0927217
  36.2080880   5.7410688  52.2960092  35.1873420   6.6421393  51.6341750
  37.9038224   5.1230996  49.0531165  37.8251855   4.7890860  49.9466922
  38.7247891   5.6152764  49.0522637  40.6016415  -2.0107264  62.2607483
  40.5692735  -2.9491264  62.4467167  41.2117039  -1.9323228  61.5273308
  32.4399746  -3.1411212  48.3034687  33.3858851  -3.2705003  48.3723105
  32.0613991  -3.8796550  48.7804115  40.7510904  -5.2196221  62.3065766
  40.2349952  -6.0037764  62.1195695  41.6350852  -5.5477504  62.4712286
  46.4192965  -0.9491258  61.4013520  47.1496353  -1.2105970  61.9621223
  45.8099910  -1.6862536  61.4415588  44.5008262  -2.8083395  61.9987971
  43.7741426  -2.9427430  61.3904463  44.0855549  -2.5006566  62.8044689
  32.3238438   0.9106535  69.7635344  33.2441448   1.0885134  69.9575391
  32.2888021  -0.0337420  69.6115043  30.0559646  -2.1762086  70.6125936
  29.5726728  -1.3761726  70.8189825  30.1420585  -2.1654141  69.6593380
  25.9832984   1.7142449  62.6494370  26.9376237   1.6826391  62.5824301
  25.7845507   1.2533072  63.4644596  26.5732366   0.2843565  65.2165167
  27.3925255   0.7787643  65.2400005  26.8469174  -0.6324467  65.1882735
  36.3298962  -7.3245683  54.5793123  35.4424817  -7.0396032  54.3613318
  36.7452951  -7.4851920  53.7320400  39.6813498  -7.2999162  58.2947462
  40.4573888  -6.8102710  58.5672079  38.9561632  -6.8741108  58.7519332
  42.1186057  -6.5871543  59.3521403  42.7130548  -6.8275807  58.6414711
  42.1912641  -7.3064412  59.9794939  24.3383213   7.2562068  59.6664568
  24.2037681   6.4962469  59.1002566  23.9215275   7.9802968  59.1993356
  35.4742176   2.4398992  48.6741143  36.1778026   2.6448994  49.2898798
  34.7504824   3.0075754  48.9390226  36.3039986  -1.8091147  54.7943413
  36.2475187  -1.3522596  53.9551045  36.8568328  -2.5700463  54.6166256
  40.1144792  -6.0201415  55.6193533  39.8581726  -6.4204780  56.4501740
  39.4897660  -5.3057621  55.4943672  44.4257130  -3.2805342  58.1264824
  43.8656688  -3.2112153  58.8996386  43.8200633  -3.4564357  57.4064320
  27.4952338   8.1531385  59.8783010  27.3784723   9.0976818  59.7761700
  26.6744785   7.8504947  60.2668809  37.3828873   2.8781521  50.7239603
  38.2174477   2.4462719  50.5417078  37.2213216   2.7063535  51.6516497
  37.0374765  -0.6186366  52.0895942  36.9823569  -0.7842094  51.1484386
  36.4120820   0.0889667  52.2458132  34.3520672   1.6862546  71.4149505
  35.2211832   1.8603198  71.0536140  33.8727424   2.5056963  71.2925234
  28.5206853   8.8059647  63.0938939  29.4234099   8.8383257  63.4105434
  28.2944223   7.8760098  63.1085274  30.2760455   7.5590634  59.7549017
  29.3256086   7.5592495  59.6413390  30.5792941   6.8123368  59.2385052
  46.0113148  13.3951172  60.8194780  46.6491558  13.2757919  60.1158120
  45.8933991  14.3432016  60.8782732  42.8202854  13.3478600  60.7556304
  42.4821366  13.2319665  59.8676839  43.6892623  12.9469765  60.7357310
  38.6789670  15.2014076  56.7453195  38.1154535  15.1104013  55.9769483
  38.5642065  14.3813981  57.2255688  43.3022637  14.5013452  66.7142510
  43.2911278  14.1066250  65.8423014  43.4643277  13.7679524  67.3076281
  36.2254102  16.6965268  59.5837416  37.0175394  16.3556093  59.1683715
  36.4650752  16.8060243  60.5039569  44.2589229  18.8685044  52.0567660
  43.6077209  19.4539125  51.6701674  45.0533592  19.3991239  52.1162698
  38.1844856  15.9574181  52.4554795  38.9575732  15.4103168  52.3167670
  38.5370255  16.8218431  52.6669256  40.0229899  17.2850564  65.6621694
  39.7319765  18.1896194  65.5468360  40.6586883  17.3267091  66.3765763
  40.9486105  14.6627412  62.2523053  41.5449678  14.4383434  61.5380016
  41.0061077  13.9212158  62.8548501  40.5211134  12.1166847  50.0873244
  40.7736654  11.5948369  49.3256707  39.5835693  11.9532993  50.1899928
  45.5654417  11.1202626  57.8947988  46.3517506  10.7022049  57.5438405
  45.8293121  12.0248718  58.0629636  45.7364494  16.5575476  52.5936644
  45.1010327  16.6310103  53.3057549  45.4061900  17.1469075  51.9155724
  50.9662844  11.0577859  58.7980966  51.6988016  10.4877076  59.0318796
  50.2102199  10.6699459  59.2387472  40.2407423  14.0194953  52.2897619
  40.1243681  13.3439857  52.9578704  40.3509682  13.5327327  51.4729772
  42.5838963  13.4805100  55.9944309  42.2197171  12.9535721  56.7057230
  43.4406079  13.0903570  55.8210794  48.4888264   4.7699433  63.2575575
  48.1571589   5.6394844  63.0336790  47.8933877   4.4535717  63.9369605
  42.2244450   8.5095000  50.9905657  42.3918853   9.3775237  51.3576128
  42.0341620   8.6722282  50.0666946  44.9819784  16.9711979  62.6571488
  44.6820507  17.8737018  62.5487295  44.6370843  16.7044162  63.5092640
  38.4332265  13.4225776  58.6908192  37.5082762  13.2901990  58.8985884
  38.6816678  14.2019995  59.1878134  48.3816927   9.4894519  60.3368925
  47.4733805   9.4209928  60.0427686  48.3304523   9.9666464  61.1650750
  42.2033671  10.9652658  51.9752324  42.0833297  11.4109708  52.8137804
  41.5086260  11.3137975  51.4165862  35.7941076  13.0659049  59.5251981
  35.9233457  13.3193528  60.4391393  35.1138527  13.6586757  59.2056636
  39.9640563  23.7356299  55.6242455  39.8864593  24.6864125  55.7030936
  39.3602207  23.3902172  56.2817382  42.4557793  10.9084165  68.2803822
  41.6791127  11.4678085  68.2706687  43.0948356  11.3940948  68.8018692
  50.2478574   7.6910958  62.1146799  49.6052954   7.9843491  61.4686593
  49.7433502   7.5763878  62.9199995  47.9018737  11.4374131  52.8032658
  48.8136594  11.6701518  52.6280356  47.3928385  12.0211175  52.2407737
  40.7104165  13.7169618  67.8421789  41.4518850  14.2554662  67.5656613
  40.0041151  14.3435907  67.9993341  46.1859505  15.8598759  66.4393951
  46.5942861  15.4181169  65.6948583  45.4636767  15.2851386  66.6928144
  42.5390575  10.7971365  63.8127508  43.3851770  11.2210779  63.9562157
  42.4789213  10.1404990  64.5066071  46.5088320  16.4199949  60.1946239
  45.8797182  16.5845663  59.4922307  46.1213982  16.8341559  60.9657204
  50.3877552  17.3554387  57.5490603  49.7028590  17.7353289  56.9987637
  50.4721401  17.9649714  58.2822551  45.6890021   8.4575734  65.4708681
  45.4450952   9.2117794  64.9342957  45.9649951   8.8361081  66.3055928
  47.6428483  15.0014346  64.1485947  47.8545379  15.6446106  63.4720328
  47.5958232  14.1676663  63.6807877  45.2454712   7.6132167  61.0522519
  44.3839191   7.9113420  61.3439256  45.2717147   7.8302566  60.1203552
  42.0616282  16.1574357  57.4596325  42.5254627  16.4362060  56.6700947
  41.7973080  15.2557802  57.2769415  38.9540363  15.7045839  60.3976088
  39.5241720  16.1333107  59.7593572  39.5448475  15.4228424  61.0960274
  40.9985168  12.2797510  54.2685890  41.7009211  12.7318553  54.7359816
  40.6665796  11.6381329  54.8965783  39.4465529  10.8709266  68.6437099
  38.8164190  11.5525547  68.8772496  39.3401617  10.7592348  67.6990237
  34.7410502  10.5381062  59.5703023  33.9509556  10.7938591  59.0943134
  35.2321749  11.3529400  59.6755064  48.7574311  17.8786302  62.3208304
  49.5791755  17.4766489  62.0390986  48.7536714  17.7754536  63.2724420
  36.6925247  10.9025642  56.5286500  35.8956410  11.0144336  57.0469996
  36.4650839  11.2412294  55.6627391  42.5230915  17.4270345  64.4769015
  42.5875347  17.8890752  65.3127186  41.8141839  16.7967710  64.6051324
  33.0248205  10.7911553  62.0018014  33.2756243  11.6758563  62.2675590
  33.5607753  10.6116154  61.2293106  56.8480304  14.2225050  58.6693276
  56.0944013  13.6532448  58.5137280  56.9827845  14.1887715  59.6163910
  42.2378932  19.0938452  54.3447995  42.1024607  19.9389988  54.7732843
  42.7788745  19.2957730  53.5813929  38.7246272   5.1730032  71.0062350
  38.3313218   4.6196231  71.6809994  39.5412412   5.4840611  71.3968868
  35.6908330  16.6113890  54.9175920  36.2032850  17.4057141  55.0681485
  36.3431043  15.9140181  54.8509521  37.5003214  19.7279647  56.9998673
  37.6769843  20.6497611  56.8119657  38.2960048  19.4138066  57.4293053
  41.6414233   6.5887911  68.5982607  42.3823946   7.1895064  68.5187069
  41.8732156   5.8465549  68.0400649  36.7855571  11.7744279  66.8760836
  36.6709086  10.8729536  67.1767935  35.9300089  12.0207975  66.5245653
  43.8647409  19.7162019  68.4748337  43.4211263  18.9298397  68.1569242
  44.5264622  19.9041169  67.8092228  38.6234530  21.2457820  63.0009016
  39.1741955  21.1174884  62.2286009  37.7846006  21.5452710  62.6503908
  45.9628647  19.9964819  66.5029738  45.9447122  20.8173700  66.0110007
  46.8848567  19.8718894  66.7279879  42.4201701  17.5108948  67.3453247
  42.9530038  16.7497236  67.1152555  41.8915782  17.2182600  68.0877401
  45.5871396   2.6169014  62.8746888  45.2435665   3.5070656  62.7985999
  45.9550359   2.4270672  62.0116473  33.6557247  14.9402545  55.6935491
  34.4932469  15.3499553  55.4769198  33.8335514  14.0001987  55.6635684
  45.5521679  12.6077625  51.3819324  45.0368302  13.3782230  51.6207711
  45.2798987  11.9342762  52.0052385  43.1368790   7.4527326  56.4404562
  42.2810386   7.0634177  56.2610201  43.5495741   7.5319287  55.5804347
  44.6667936   4.9873669  60.8396122  44.1632732   4.9503805  60.0263927
  44.9598543   5.8966412  60.8992778  40.9110822   5.0712399  59.8462303
  41.7763819   4.8755208  59.4868193  40.9788331   4.8422751  60.7731660
  50.5255953  15.3609980  53.3172497  49.7485396  15.0221140  52.8727659
  51.2047434  15.3662603  52.6427462  45.3407982  10.4804717  53.2079105
  45.0358117  10.7950867  54.0589248  46.2938424  10.5586137  53.2506438
  43.7854414  16.6394941  54.8572059  43.2575775  15.9047700  54.5445296
  43.2841916  17.4169617  54.6112027  48.7647260  14.8343961  59.9739105
  48.1070934  15.5243223  60.0619234  49.5687659  15.2240393  60.3173091
  38.5173141   7.3014607  57.2178670  39.0916893   7.0789789  56.4851863
  39.1044124   7.3703302  57.9707272  47.5752718  13.1888334  58.0243047
  48.0884600  13.8218326  58.5264756  48.2253942  12.5889529  57.6586407
  38.8442728   9.3319068  51.2374555  38.0080041   9.6693755  51.5583830
  38.7047498   9.1968048  50.3001692  40.8195809   4.1755856  55.9453740
  40.1660221   3.8604873  55.3210354  40.7776283   3.5531596  56.6713563
  41.9307014  14.4575151  47.8607032  41.0234076  14.2264404  48.0598181
  42.4278046  13.6612770  48.0481013  44.8375093  23.1672658  50.7803718
  44.1636791  23.4704355  51.3888676  45.2240915  23.9701739  50.4309175
  44.0533549  10.6637790  60.2701387  43.1356111  10.8852737  60.1123075
  44.4693693  10.7384100  59.4113095  44.8368597  12.0629205  55.4004068
  45.5840416  12.5750602  55.0911190  45.1060187  11.7413258  56.2608461
  43.1095247  14.5587746  52.3831022  42.2006467  14.2746779  52.4803492
  43.1390331  14.9786824  51.5234329  48.3414515  18.1694335  56.1522189
  47.8876842  17.3285245  56.2087380  47.7108481  18.8055734  56.4896970
  47.2847434   9.0986321  57.3822857  46.5470191   8.5863708  57.7133099
  47.5374208   8.6586703  56.5706134  46.7847454  20.0070832  57.0872008
  47.0770428  20.5675889  56.3684373  47.2946074  20.2999393  57.8425167
  47.3859062   1.8762573  57.9764626  47.6917938   1.0159937  57.6890541
  48.1111666   2.4680194  57.7763620  33.6783418  12.2793260  56.3646224
  33.4807817  11.6862621  55.6397291  33.1230082  11.9745470  57.0822163
  41.6580141  12.1716367  58.4840817  41.7128751  11.2190203  58.4083294
  40.8471343  12.3275806  58.9682116  42.8071335  16.0996490  49.7219100
  42.3690765  15.3832349  49.2624738  43.5481776  16.3272604  49.1604192
  39.5972501  10.7893426  56.2431196  38.7840367  11.0887597  56.6496388
  40.0931495  10.3949115  56.9605678  41.7481079  20.7851183  58.1765461
  41.7057258  21.0112029  57.2473993  42.6643778  20.5514558  58.3251262
  45.1946713  11.2535251  65.0746090  45.5496101  11.4806724  65.9340556
  45.8418844  11.5853628  64.4523345  50.9244450  14.3753687  55.7795419
  50.7862348  14.5655283  54.8516608  50.5680669  15.1373069  56.2363470
  39.0886576   8.3611782  61.8592431  39.7285955   8.2200541  61.1615394
  38.2564107   8.0746295  61.4831033  50.9513829  16.4430214  60.7906690
  51.3850336  16.3505503  61.6389744  51.6645410  16.4187714  60.1526706
  39.8646880  17.6614212  57.9727423  40.6587478  17.1664532  57.7709998
  39.1538572  17.1332075  57.6095129  44.6841724  20.0432308  62.3239791
  44.7378747  20.6123244  63.0917507  43.8156506  20.2134193  61.9593828
  36.1729643  11.8057294  54.0487176  35.2427231  11.7441749  54.2657138
  36.2687115  11.2833247  53.2523817  36.0915192   8.3312107  56.6365418
  36.3522010   9.2457440  56.5274578  36.9132365   7.8636549  56.7862031
  37.5640118   9.7449864  63.8064242  38.2363171   9.5367226  63.1576891
  36.7369904   9.5471950  63.3669475  51.8129379  16.4853914  63.3239576
  52.0065269  17.3899725  63.5698851  51.7129997  16.0261333  64.1578161
  43.4665690   6.3711805  65.8229903  42.8193605   7.0701755  65.7294380
  44.2366705   6.8047949  66.1906151  46.8744488  16.6360657  68.8980456
  46.7229994  16.4071209  67.9810540  46.8649167  17.5931258  68.9111801
  43.6429824  14.2092570  63.8826723  44.5721884  14.3603729  63.7095690
  43.2220854  14.2976591  63.0275369  42.4418156  18.2343234  61.6525261
  42.3029242  17.8662019  62.5251199  41.6532752  18.7490874  61.4809218
  43.0366308  23.3352331  52.9950797  43.2118064  22.8640374  53.8096420
  42.3499096  23.9618097  53.2232058  43.9923371  17.6124837  59.0414098
  43.6573204  17.5725607  59.9371748  43.4927317  16.9469553  58.5684509
  37.9667615  13.0192467  64.5666679  37.8287413  12.2872706  65.1678219
  38.8772538  12.9301367  64.2850867  46.9282563  14.9580871  49.3151158
  46.3111733  14.2327699  49.2184211  46.4599051  15.7190232  48.9718232
  40.5949916  12.7312426  64.0550359  41.3049534  12.0905618  64.0136978
  40.5519224  12.9825321  64.9776540  48.5836694  19.6679780  66.9756938
  48.5249240  18.9839000  66.3087521  48.9856213  20.4098770  66.5237564
  39.3078850   9.7177644  65.8745999  38.7716207   9.2668383  66.5267595
  38.7195558   9.8523553  65.1316463  37.6027393  26.4841693  59.7690657
  37.8423991  27.1160218  60.4469676  36.7596590  26.1329733  60.0556016
  38.7181109   9.1766296  48.4372462  37.8410575   9.0555096  48.0734709
  39.1938862   8.3852374  48.1851351  48.5854102  17.6319364  65.2070918
  47.6980880  17.2945285  65.3297317  49.1552653  16.9002395  65.4439683
  30.2383249  13.9643455  58.5313969  30.9254289  13.6505185  57.9434985
  30.0831377  14.8684820  58.2581221  35.0417971   8.8533652  62.9598993
  34.9576160   8.2459321  62.2249403  34.2200677   9.3442670  62.9608489
  42.1155255  22.2920816  62.1732161  42.0425426  23.0975787  62.6851466
  41.6732648  22.4912782  61.3480183  41.9045035  21.5292586  55.6834983
  41.1212557  22.0714266  55.7773207  42.6037780  22.0466566  56.0829224
  45.2141685   7.3387215  58.3269188  45.7110384   6.5857178  58.0070258
  44.4428666   7.3751532  57.7612397  53.0671442  13.0427581  59.9687480
  53.0561318  13.9252296  59.5981413  52.1988822  12.6899132  59.7742017
  44.5753939  22.1907650  64.3290320  45.2881911  22.8255115  64.2566221
  44.0843967  22.2871516  63.5130322  46.2971465  16.0958903  55.9007612
  45.3627744  16.2160365  55.7312316  46.4748134  15.1931369  55.6367621
  41.7976653   9.4804598  58.0540873  41.4274441   8.9275639  58.7421778
  42.2935746   8.8762732  57.5015873  49.6844017  11.9376222  56.4357646
  50.1504469  12.7704213  56.3617948  50.1351517  11.4721203  57.1402904
  39.6265852  19.9402093  65.1495891  40.3275312  20.5738576  65.3025285
  39.1560967  20.2816825  64.3891530  47.7520248  18.2820043  53.4343798
  48.0280092  18.1676638  54.3437672  46.8824747  17.8837528  53.3955971
  47.6560680   4.3056809  60.4748547  46.7423759   4.5361036  60.6430754
  48.0853781   4.3895253  61.3262579  47.4267138  12.4946701  62.9748441
  46.7738588  12.7422608  62.3200894  47.8047518  11.6810839  62.6410918
  44.3874312  22.5306394  57.0776611  44.5696706  21.7128050  57.5404364
  45.2107298  22.7474086  56.6401501  44.7216477  21.4574579  54.3391660
  45.2504244  20.9467034  53.7261822  44.9844697  21.1417109  55.2037193
  43.4754711  13.2366512  69.4614478  42.7995348  13.1360641  70.1316853
  44.2982345  13.0805726  69.9250475  35.2233570  19.4738448  62.0826993
  35.8087007  18.7282136  62.2154898  35.0258409  19.7842405  62.9663657
  38.0772225  22.5089696  57.0989436  37.4082601  22.9935823  56.6153476
  37.9385095  22.7558916  58.0132814  29.8151225  12.0444049  60.8031437
  29.8535324  11.5107639  61.5968555  29.3091518  11.5179254  60.1842414
  42.2177494  24.5433439  63.6972094  42.7695802  24.7065061  64.4621179
  42.5583687  25.1337877  63.0252119  37.1941987   6.8908589  64.2993979
  37.2583314   7.7523420  63.8871377  37.1309107   6.2782591  63.5666337
  36.6694260   8.9631722  67.9467013  37.2966298   8.5808799  68.5604537
  35.8122179   8.7445924  68.3122706  47.0688368  19.3694697  69.5520749
  47.6128272  19.9824655  69.0575703  46.4875213  19.9274275  70.0687762
  33.4459802  10.7708151  53.8785368  33.7413244   9.8618829  53.8252422
  32.5447838  10.7495890  53.5566370  45.3545881  22.4915415  60.6835776
  45.2297021  21.6905155  60.1746722  46.0124972  22.9861608  60.1949746
  36.9754049   8.8464147  59.8612917  36.2540635   9.4600115  59.7220390
  37.7647305   9.3821912  59.7829562  47.4180790  20.2924435  62.3115326
  46.4711125  20.1729786  62.2393653  47.7663563  19.4046933  62.3941588
  39.7780363   6.1818574  66.1353568  40.3014765   6.4280870  66.8979878
  39.5592696   7.0138609  65.7156706  35.1747644   8.4522248  54.0024693
  34.8460350   7.5719627  53.8199799  35.5287015   8.3969917  54.8901082
  44.4227223  20.0877151  58.5119679  44.2752185  19.1593859  58.6927249
  45.2480716  20.1097242  58.0276754  38.2889467   8.7395218  54.3700171
  38.6285540   9.2681139  53.6478779  38.7361588   9.0775624  55.1458737
  48.0261345  20.9105710  59.5984551  48.9507892  20.7048571  59.4609002
  47.8576648  20.6622111  60.5073893  40.9832908   7.1232269  63.8203239
  40.6429728   6.3240082  64.2223919  40.2771914   7.4233980  63.2480072
  41.6349380   4.2081581  62.2730562  42.4575449   3.7342060  62.1509452
  41.8787443   4.9872065  62.7729248  40.2757614   7.2369840  52.5693464
  40.9965977   7.6151093  52.0657180  39.6522918   7.9558717  52.6728441
  44.4188737   7.9414989  53.5051796  44.6352352   8.8239627  53.2040624
  43.9382804   7.5501202  52.7757438  39.1587959  10.9000702  60.0822540
  39.0132539  11.2141005  60.9746822  38.6813162  11.5185602  59.5293439
  41.0184341   7.8903250  60.1303430  41.0045910   6.9944343  59.7935728
  41.7356770   7.8973914  60.7641716  42.8710472   8.3240590  62.1756557
  42.6128250   9.2457661  62.1740888  42.3395513   7.9271025  62.8657022
  47.8156661  21.4291377  54.9546643  47.9893538  20.8637800  54.2020495
  48.3085552  22.2292272  54.7726133  33.6333621  13.4406046  63.0210202
  33.0887089  14.2165854  63.1530476  34.5112971  13.7876851  62.8629323
  40.4221237   6.7717630  55.3991000  40.5437149   5.8434276  55.5981888
  40.1323280   6.7856316  54.4869316  43.2912428   4.4572541  58.5357720
  43.3134125   4.5211874  57.5809700  43.7080487   3.6177049  58.7298226
  53.6696052  14.1927800  56.5736943  54.1127198  13.4435125  56.1756066
  52.7922562  14.1837937  56.1910675  48.8031833  20.7458142  52.0543541
  49.4982738  21.3664834  52.2730856  49.1454984  19.8953493  52.3295919
  34.4199643  12.5675943  65.9140358  33.6781379  12.7158578  66.5004989
  34.0992387  12.8284208  65.0507108  50.7023257  18.1957847  53.5830872
  51.2274581  18.5345120  52.8580192  50.6145609  17.2604863  53.3994006
  42.3643305  22.1091921  65.7120748  42.6730432  21.8641068  66.5843448
  43.1618787  22.3138559  65.2239619  42.3863917  24.2629831  57.9426125
  41.9468908  23.7706209  58.6358982  43.1372034  23.7202798  57.7018200
  34.8656256  20.4541371  57.9450753  35.6914276  20.1545143  57.5649397
  34.5150308  19.6848994  58.3940542  39.8337789  19.8067840  60.0148427
  39.2117799  19.1438545  59.7150655  40.5042656  19.8328972  59.3322074
  33.0664861  18.3727698  58.9039687  32.2296770  17.9449872  58.7223688
  33.0388507  18.5660141  59.8410478  39.9062317   8.2849628  69.6080933
  39.9550472   9.1611750  69.2258702  40.4484831   7.7427021  69.0352576
  50.3917163  18.8290751  68.8882070  49.6012706  18.8114890  68.3486569
  50.1550517  19.3679045  69.6431106  50.5115038  15.6783217  66.2014798
  50.5613043  15.5133225  67.1430321  50.4028961  14.8110476  65.8112679
  39.3951296  18.3571763  53.4906887  39.5439417  19.0407227  52.8373560
  40.2017740  18.3376853  54.0056343  47.8018800  11.6614145  67.5174105
  48.7028663  11.5220610  67.2258103  47.8766775  11.8268600  68.4572282
  42.1361605   9.0381000  66.3627291  41.2664915   9.3314566  66.0909880
  42.3721086   9.6221445  67.0834555  52.0133234  18.0980159  66.4456820
  51.7218043  18.4610139  67.2820281  51.4005366  17.3847167  66.2670152
  53.2128917  15.6633039  58.9659390  54.0475808  16.1022843  59.1296950
  53.3488046  15.1871692  58.1467636  50.2620423  13.2212773  64.9136878
  50.7374544  13.4140420  64.1055729  49.3385988  13.2771959  64.6680262
  37.1503929  14.3836941  54.4967956  36.9049971  13.4799271  54.6948166
  37.3199844  14.3854091  53.5547434  44.8400639   5.2560617  63.8792712
  45.3582583   5.9921644  63.5539200  44.4855772   5.5624610  64.7139471
  36.4199577  10.1165298  51.9954118  35.7268822  10.1909653  51.3394154
  36.1751329   9.3525642  52.5175635  45.0913233   1.6760900  59.3993608
  45.3714987   1.0084089  60.0254035  45.8763840   1.8689995  58.8868272
  42.8946702  20.8519893  50.9618635  42.3220669  21.4710081  50.5089107
  43.4679496  21.4019255  51.4958557  48.9622092  10.0978534  63.1465183
  49.9139515  10.1976631  63.1677408  48.7925542   9.3056802  63.6563268
  46.9836471   7.1834117  63.3324584  46.3886403   7.4639129  62.6371073
  46.6986168   7.6728018  64.1041326  46.1143962  21.1357044  52.0927217
  47.0474635  21.0702605  52.2960092  46.0267174  21.9713310  51.6341750
  48.7431978  20.4522914  49.0531165  48.6645610  20.1182777  49.9466922
  49.5641645  20.9444682  49.0522637  51.4410170  13.3184653  62.2607483
  51.4086490  12.3800654  62.4467167  52.0510793  13.3968690  61.5273308
  43.2793500  12.1880706  48.3034687  44.2252605  12.0586914  48.3723105
  42.9007745  11.4495368  48.7804115  51.5904658  10.1095697  62.3065766
  51.0743707   9.3254153  62.1195695  52.4744607   9.7814413  62.4712286
  49.2515385   3.8536712  58.2661579  49.0540206   3.5451800  59.1504911
  49.8615090   4.5798351  58.3959509  57.2586719  14.3800660  61.4013520
  57.9890108  14.1185948  61.9621223  56.6493665  13.6429382  61.4415588
  55.3402016  12.5208523  61.9987971  54.6135180  12.3864488  61.3904463
  54.9249303  12.8285351  62.8044689  43.1632193  16.2398452  69.7635344
  44.0835202  16.4177051  69.9575391  43.1281776  15.2954498  69.6115043
  41.4636418  10.1130683  48.2389572  40.5567873   9.8163795  48.3152286
  41.7412399   9.8160501  47.3723859  32.3814358  11.4337046  58.6888619
  32.0617142  10.5802354  58.3962993  31.8347786  11.6485624  59.4446586
  36.1594265  14.1499487  62.4058125  36.3780275  15.0816595  62.4246159
  36.5720039  13.7907461  63.1912929  43.0798483   4.6567572  54.3933814
  42.2699212   4.3114657  54.7689060  43.7682900   4.3475116  54.9821425
  45.0089032   3.7345619  56.0158110  45.5620070   4.1541073  56.6748133
  45.2459118   2.8081367  56.0581066  41.0322131   9.7232693  71.7960874
  40.9318858  10.6727050  71.7272965  40.8143673   9.3950932  70.9236944
  40.2335202   6.9717618  48.3801552  41.0954366   7.2972516  48.6397369
  40.4185546   6.1849114  47.8674617  32.2502618  15.0539957  60.6581740
  31.5566089  14.6393910  60.1451695  32.9975609  15.0960494  60.0615159
  48.3867839   5.8446144  55.5236775  47.8066508   6.5030948  55.1414827
  48.1203771   5.0223489  55.1124192  46.8371405   5.2451202  57.7258095
  47.3371183   5.3567736  56.9172414  47.4807013   4.9412255  58.3658903
  40.8953401  13.1529832  70.6125936  40.4120483  13.9530192  70.8189825
  40.9814340  13.1637776  69.6593380  34.1639360  14.9858211  58.5347755
  34.1410049  15.0845899  57.5829638  34.4739997  15.8323362  58.8564921
  36.8226738  17.0434366  62.6494370  37.7769992  17.0118309  62.5824301
  36.6239262  16.5824990  63.4644596  37.4126120  15.6135482  65.2165167
  38.2319009  16.1079561  65.2400005  37.6862928  14.6967450  65.1882735
  47.1692717   8.0046235  54.5793123  46.2818572   8.2895885  54.3613318
  47.5846706   7.8439998  53.7320400  50.5207253   8.0292756  58.2947462
  51.2967643   8.5189208  58.5672079  49.7955387   8.4550810  58.7519332
  52.9579811   8.7420375  59.3521403  53.5524302   8.5016111  58.6414711
  53.0306395   8.0227505  59.9794939  35.1776967  22.5853986  59.6664568
  35.0431435  21.8254387  59.1002566  34.7609029  23.3094886  59.1993356
  46.3135930  17.7690909  48.6741143  47.0171780  17.9740912  49.2898798
  45.5898579  18.3367671  48.9390226  47.1433740  13.5200771  54.7943413
  47.0868942  13.9769322  53.9551045  47.6962083  12.7591455  54.6166256
  50.9538546   9.3090502  55.6193533  50.6975481   8.9087138  56.4501740
  50.3291414  10.0234296  55.4943672  55.2650884  12.0486576  58.1264824
  54.7050442  12.1179765  58.8996386  54.6594388  11.8727560  57.4064320
  38.3346093  23.4823303  59.8783010  38.2178477  24.4268735  59.7761700
  37.5138539  23.1796864  60.2668809  48.2222628  18.2073438  50.7239603
  49.0568231  17.7754637  50.5417078  48.0606970  18.0355452  51.6516497
  47.8768520  14.7105552  52.0895942  47.8217323  14.5449823  51.1484386
  47.2514575  15.4181585  52.2458132  32.6661035   9.9473616  65.9157364
  33.3119898   9.4372570  66.4044590  32.4578186  10.6842298  66.4900790
  45.1914427  17.0154464  71.4149505  46.0605587  17.1895116  71.0536140
  44.7121178  17.8348880  71.2925234  41.1864645   4.2113661  51.6681261
  41.1743315   5.1555501  51.8249531  42.0788067   4.0283806  51.3740722
  39.3600607  24.1351565  63.0938939  40.2627854  24.1675175  63.4105434
  39.1337977  23.2052016  63.1085274  41.1154209  22.8882551  59.7549017
  40.1649840  22.8884413  59.6413390  41.4186695  22.1415286  59.2385052
  45.0016765   0.8056437  55.9227197  44.2349160   0.2514924  56.0683880
  45.4127470   0.8778306  56.7841349  37.0058526   7.0941233  70.0132379
  37.8689987   6.7378038  70.2235703  36.4323936   6.7555128  70.7007783
  56.8506903  28.7243090  60.8194780  57.4885313  28.6049837  60.1158120
  56.7327746  29.6723934  60.8782732  53.6596609  28.6770518  60.7556304
  53.3215120  28.5611582  59.8676839  54.5286377  28.2761683  60.7357310
  54.1416392  29.8305369  66.7142510  54.1305033  29.4358168  65.8423014
  54.3037031  29.0971442  67.3076281  47.0647857  32.0257186  59.5837416
  47.8569148  31.6848010  59.1683715  47.3044507  32.1352161  60.5039569
  55.0982983  34.1976962  52.0567660  54.4470963  34.7831042  51.6701674
  55.8927346  34.7283157  52.1162698  50.8623653  32.6142481  65.6621694
  50.5713519  33.5188112  65.5468360  51.4980637  32.6559009  66.3765763
  51.7879860  29.9919330  62.2523053  52.3843432  29.7675352  61.5380016
  51.8454831  29.2504075  62.8548501  51.3604888  27.4458765  50.0873244
  51.6130409  26.9240286  49.3256707  50.4229447  27.2824911  50.1899928
  56.4048171  26.4494543  57.8947988  57.1911260  26.0313967  57.5438405
  56.6686875  27.3540636  58.0629636  56.5758248  31.8867394  52.5936644
  55.9404081  31.9602020  53.3057549  56.2455655  32.4760993  51.9155724
  61.8056598  26.3869777  58.7980966  62.5381770  25.8168993  59.0318796
  61.0495954  25.9991377  59.2387472  51.0801177  29.3486871  52.2897619
  50.9637435  28.6731774  52.9578704  51.1903437  28.8619245  51.4729772
  53.4232718  28.8097018  55.9944309  53.0590925  28.2827639  56.7057230
  54.2799834  28.4195487  55.8210794  59.3282019  20.0991351  63.2575575
  58.9965343  20.9686762  63.0336790  58.7327632  19.7827635  63.9369605
  53.0638205  23.8386918  50.9905657  53.2312607  24.7067154  51.3576128
  52.8735374  24.0014200  50.0666946  55.8213538  32.3003897  62.6571488
  55.5214261  33.2028936  62.5487295  55.4764598  32.0336080  63.5092640
  49.2726020  28.7517694  58.6908192  48.3476516  28.6193908  58.8985884
  49.5210433  29.5311913  59.1878134  59.2210682  24.8186437  60.3368925
  58.3127559  24.7501845  60.0427686  59.1698278  25.2958382  61.1650750
  53.0427426  26.2944575  51.9752324  52.9227051  26.7401626  52.8137804
  52.3480014  26.6429893  51.4165862  46.6334831  28.3950967  59.5251981
  46.7627212  28.6485446  60.4391393  45.9532282  28.9878675  59.2056636
  53.2951548  26.2376083  68.2803822  52.5184882  26.7970003  68.2706687
  53.9342111  26.7232866  68.8018692  61.0872328  23.0202875  62.1146799
  60.4446709  23.3135408  61.4686593  60.5827257  22.9055796  62.9199995
  58.7412492  26.7666049  52.8032658  59.6530348  26.9993435  52.6280356
  58.2322139  27.3503093  52.2407737  51.5497920  29.0461536  67.8421789
  52.2912604  29.5846580  67.5656613  50.8434905  29.6727825  67.9993341
  57.0253260  31.1890676  66.4393951  57.4336616  30.7473087  65.6948583
  56.3030521  30.6143304  66.6928144  53.3784330  26.1263283  63.8127508
  54.2245525  26.5502697  63.9562157  53.3182967  25.4696907  64.5066071
  57.3482074  31.7491867  60.1946239  56.7190937  31.9137581  59.4922307
  56.9607736  32.1633477  60.9657204  61.2271306  32.6846305  57.5490603
  60.5422344  33.0645206  56.9987637  61.3115155  33.2941631  58.2822551
  56.5283775  23.7867651  65.4708681  56.2844707  24.5409712  64.9342957
  56.8043706  24.1652999  66.3055928  58.4822238  30.3306264  64.1485947
  58.6939133  30.9738024  63.4720328  58.4351986  29.4968580  63.6807877
  56.0848467  22.9424084  61.0522519  55.2232946  23.2405338  61.3439256
  56.1110901  23.1594483  60.1203552  52.9010036  31.4866275  57.4596325
  53.3648382  31.7653978  56.6700947  52.6366834  30.5849720  57.2769415
  49.7934117  31.0337757  60.3976088  50.3635474  31.4625025  59.7593572
  50.3842229  30.7520341  61.0960274  51.8378922  27.6089427  54.2685890
  52.5402966  28.0610471  54.7359816  51.5059551  26.9673246  54.8965783
  50.2859284  26.2001184  68.6437099  49.6557944  26.8817465  68.8772496
  50.1795372  26.0884266  67.6990237  45.5804256  25.8672980  59.5703023
  44.7903310  26.1230509  59.0943134  46.0715504  26.6821318  59.6755064
  59.5968066  33.2078219  62.3208304  60.4185509  32.8058407  62.0390986
  59.5930469  33.1046453  63.2724420  47.5319002  26.2317559  56.5286500
  46.7350165  26.3436254  57.0469996  47.3044594  26.5704212  55.6627391
  53.3624669  32.7562263  64.4769015  53.4269102  33.2182670  65.3127186
  52.6535593  32.1259627  64.6051324  43.8641959  26.1203471  62.0018014
  44.1149998  27.0050480  62.2675590  44.4001508  25.9408072  61.2293106
  67.6874059  29.5516968  58.6693276  66.9337767  28.9824366  58.5137280
  67.8221600  29.5179632  59.6163910  49.5640026  20.5021950  71.0062350
  49.1706972  19.9488148  71.6809994  50.3806167  20.8132528  71.3968868
  52.4807987  21.9179829  68.5982607  53.2217701  22.5186982  68.5187069
  52.7125910  21.1757467  68.0400649  47.6249325  27.1036196  66.8760836
  47.5102841  26.2021453  67.1767935  46.7693843  27.3499893  66.5245653
  54.7041163  35.0453937  68.4748337  54.2605017  34.2590315  68.1569242
  55.3658377  35.2333087  67.8092228  56.8022401  35.3256736  66.5029738
  56.7840877  36.1465618  66.0110007  57.7242321  35.2010812  66.7279879
  53.2595455  32.8400866  67.3453247  53.7923792  32.0789154  67.1152555
  52.7309537  32.5474518  68.0877401  56.4265150  17.9460932  62.8746888
  56.0829420  18.8362574  62.7985999  56.7944113  17.7562590  62.0116473
  44.4951001  30.2694462  55.6935491  45.3326223  30.6791471  55.4769198
  44.6729269  29.3293905  55.6635684  56.3915433  27.9369543  51.3819324
  55.8762057  28.7074148  51.6207711  56.1192742  27.2634679  52.0052385
  53.9762544  22.7819244  56.4404562  53.1204140  22.3926094  56.2610201
  54.3889496  22.8611205  55.5804347  55.5061691  20.3165587  60.8396122
  55.0026486  20.2795722  60.0263927  55.7992298  21.2258330  60.8992778
  51.7504577  20.4004317  59.8462303  52.6157573  20.2047125  59.4868193
  51.8182086  20.1714669  60.7731660  61.3649707  30.6901898  53.3172497
  60.5879150  30.3513057  52.8727659  62.0441188  30.6954521  52.6427462
  56.1801736  25.8096635  53.2079105  55.8751872  26.1242784  54.0589248
  57.1332178  25.8878055  53.2506438  54.6248168  31.9686858  54.8572059
  54.0969530  31.2339618  54.5445296  54.1235671  32.7461535  54.6112027
  59.6041014  30.1635879  59.9739105  58.9464689  30.8535140  60.0619234
  60.4081413  30.5532311  60.3173091  49.3566896  22.6306525  57.2178670
  49.9310648  22.4081706  56.4851863  49.9437878  22.6995219  57.9707272
  58.4146473  28.5180252  58.0243047  58.9278355  29.1510243  58.5264756
  59.0647697  27.9181447  57.6586407  49.6836483  24.6610986  51.2374555
  48.8473795  24.9985672  51.5583830  49.5441252  24.5259966  50.3001692
  51.6589563  19.5047774  55.9453740  51.0053976  19.1896791  55.3210354
  51.6170038  18.8823514  56.6713563  52.7700768  29.7867069  47.8607032
  51.8627830  29.5556322  48.0598181  53.2671800  28.9904688  48.0481013
  54.8927304  25.9929707  60.2701387  53.9749865  26.2144654  60.1123075
  55.3087447  26.0676018  59.4113095  55.6762352  27.3921123  55.4004068
  56.4234171  27.9042520  55.0911190  55.9453941  27.0705176  56.2608461
  53.9489002  29.8879664  52.3831022  53.0400221  29.6038696  52.4803492
  53.9784086  30.3078742  51.5234329  59.1808269  33.4986253  56.1522189
  58.7270596  32.6577163  56.2087380  58.5502236  34.1347651  56.4896970
  58.1241189  24.4278239  57.3822857  57.3863946  23.9155625  57.7133099
  58.3767962  23.9878621  56.5706134  58.2252816  17.2054491  57.9764626
  58.5311693  16.3451855  57.6890541  58.9505421  17.7972111  57.7763620
  44.5177172  27.6085178  56.3646224  44.3201572  27.0154538  55.6397291
  43.9623836  27.3037388  57.0822163  52.4973896  27.5008284  58.4840817
  52.5522506  26.5482121  58.4083294  51.6865098  27.6567723  58.9682116
  53.6465090  31.4288407  49.7219100  53.2084519  30.7124266  49.2624738
  54.3875530  31.6564522  49.1604192  50.4366256  26.1185344  56.2431196
  49.6234121  26.4179514  56.6496388  50.9325250  25.7241033  56.9605678
  56.0340467  26.5827168  65.0746090  56.3889855  26.8098642  65.9340556
  56.6812599  26.9145545  64.4523345  61.7638204  29.7045604  55.7795419
  61.6256103  29.8947200  54.8516608  61.4074423  30.4664987  56.2363470
  49.9280330  23.6903699  61.8592431  50.5679710  23.5492459  61.1615394
  49.0957861  23.4038213  61.4831033  61.7907584  31.7722131  60.7906690
  62.2244091  31.6797420  61.6389744  62.5039165  31.7479632  60.1526706
  55.5235479  35.3724225  62.3239791  55.5772501  35.9415162  63.0917507
  54.6550260  35.5426110  61.9593828  47.0123398  27.1349212  54.0487176
  46.0820986  27.0733667  54.2657138  47.1080870  26.6125164  53.2523817
  46.9308947  23.6604024  56.6365418  47.1915764  24.5749358  56.5274578
  47.7526119  23.1928467  56.7862031  48.4033872  25.0741782  63.8064242
  49.0756926  24.8659144  63.1576891  47.5763659  24.8763868  63.3669475
  62.6523134  31.8145832  63.3239576  62.8459024  32.7191642  63.5698851
  62.5523752  31.3553251  64.1578161  54.3059444  21.7003723  65.8229903
  53.6587359  22.3993672  65.7294380  55.0760460  22.1339866  66.1906151
  57.7138242  31.9652575  68.8980456  57.5623749  31.7363126  67.9810540
  57.7042922  32.9223176  68.9111801  54.4823579  29.5384487  63.8826723
  55.4115639  29.6895647  63.7095690  54.0614609  29.6268508  63.0275369
  53.2811910  33.5635152  61.6525261  53.1422996  33.1953936  62.5251199
  52.4926507  34.0782791  61.4809218  54.8317126  32.9416755  59.0414098
  54.4966958  32.9017525  59.9371748  54.3321071  32.2761470  58.5684509
  48.8061369  28.3484385  64.5666679  48.6681167  27.6164623  65.1678219
  49.7166293  28.2593285  64.2850867  57.7676317  30.2872789  49.3151158
  57.1505488  29.5619617  49.2184211  57.2992806  31.0482149  48.9718232
  51.4343670  28.0604344  64.0550359  52.1443289  27.4197536  64.0136978
  51.3912978  28.3117239  64.9776540  59.4230449  34.9971697  66.9756938
  59.3642995  34.3130917  66.3087521  59.8249967  35.7390687  66.5237564
  50.1472604  25.0469562  65.8745999  49.6109961  24.5960300  66.5267595
  49.5589313  25.1815471  65.1316463  49.5574863  24.5058213  48.4372462
  48.6804329  24.3847014  48.0734709  50.0332616  23.7144292  48.1851351
  59.4247856  32.9611281  65.2070918  58.5374635  32.6237203  65.3297317
  59.9946407  32.2294312  65.4439683  41.0777003  29.2935373  58.5313969
  41.7648043  28.9797103  57.9434985  40.9225132  30.1976738  58.2581221
  45.8811725  24.1825569  62.9598993  45.7969914  23.5751239  62.2249403
  45.0594432  24.6734588  62.9608489  56.0535439  22.6679133  58.3269188
  56.5504139  21.9149095  58.0070258  55.2822421  22.7043450  57.7612397
  63.9065197  28.3719499  59.9687480  63.8955073  29.2544214  59.5981413
  63.0382576  28.0191049  59.7742017  55.4147693  37.5199568  64.3290320
  56.1275665  38.1547032  64.2566221  54.9237722  37.6163434  63.5130322
  57.1365220  31.4250820  55.9007612  56.2021499  31.5452283  55.7312316
  57.3141888  30.5223287  55.6367621  52.6370408  24.8096516  58.0540873
  52.2668196  24.2567556  58.7421778  53.1329500  24.2054649  57.5015873
  60.5237771  27.2668140  56.4357646  60.9898223  28.0996131  56.3617948
  60.9745272  26.8013121  57.1402904  50.4659607  35.2694011  65.1495891
  51.1669066  35.9030494  65.3025285  49.9954722  35.6108743  64.3891530
  58.5914002  33.6111961  53.4343798  58.8673846  33.4968555  54.3437672
  57.7218501  33.2129446  53.3955971  58.4954434  19.6348727  60.4748547
  57.5817514  19.8652953  60.6430754  58.9247535  19.7187171  61.3262579
  58.2660893  27.8238618  62.9748441  57.6132343  28.0714526  62.3200894
  58.6441272  27.0102757  62.6410918  54.3148466  28.5658430  69.4614478
  53.6389103  28.4652559  70.1316853  55.1376099  28.4097643  69.9250475
  46.0627325  34.8030366  62.0826993  46.6480761  34.0574054  62.2154898
  45.8652163  35.1134323  62.9663657  40.6544979  27.3735966  60.8031437
  40.6929079  26.8399557  61.5968555  40.1485272  26.8471172  60.1842414
  48.0335742  22.2200507  64.2993979  48.0977068  23.0815338  63.8871377
  47.9702862  21.6074508  63.5666337  47.5088014  24.2923639  67.9467013
  48.1360053  23.9100717  68.5604537  46.6515933  24.0737841  68.3122706
  57.9082123  34.6986615  69.5520749  58.4522027  35.3116573  69.0575703
  57.3268968  35.2566193  70.0687762  44.2853557  26.1000068  53.8785368
  44.5806998  25.1910747  53.8252422  43.3841593  26.0787808  53.5566370
  56.1939636  37.8207333  60.6835776  56.0690775  37.0197072  60.1746722
  56.8518727  38.3153526  60.1949746  47.8147804  24.1756065  59.8612917
  47.0934390  24.7892033  59.7220390  48.6041060  24.7113830  59.7829562
  58.2574544  35.6216353  62.3115326  57.3104880  35.5021704  62.2393653
  58.6057317  34.7338851  62.3941588  50.6174117  21.5110492  66.1353568
  51.1408519  21.7572788  66.8979878  50.3986451  22.3430526  65.7156706
  46.0141399  23.7814166  54.0024693  45.6854105  22.9011545  53.8199799
  46.3680769  23.7261835  54.8901082  55.2620977  35.4169069  58.5119679
  55.1145940  34.4885776  58.6927249  56.0874471  35.4389160  58.0276754
  49.1283222  24.0687136  54.3700171  49.4679294  24.5973057  53.6478779
  49.5755342  24.4067542  55.1458737  58.8655099  36.2397628  59.5984551
  59.7901647  36.0340489  59.4609002  58.6970403  35.9914029  60.5073893
  51.8226662  22.4524187  63.8203239  51.4823483  21.6532000  64.2223919
  51.1165669  22.7525897  63.2480072  52.4743134  19.5373499  62.2730562
  53.2969204  19.0633977  62.1509452  52.7181198  20.3163983  62.7729248
  51.1151369  22.5661757  52.5693464  51.8359731  22.9443010  52.0657180
  50.4916673  23.2850634  52.6728441  55.2582492  23.2706906  53.5051796
  55.4746106  24.1531544  53.2040624  54.7776559  22.8793120  52.7757438
  49.9981713  26.2292620  60.0822540  49.8526294  26.5432923  60.9746822
  49.5206917  26.8477520  59.5293439  51.8578096  23.2195168  60.1303430
  51.8439665  22.3236261  59.7935728  52.5750524  23.2265831  60.7641716
  53.7104227  23.6532508  62.1756557  53.4522004  24.5749579  62.1740888
  53.1789267  23.2562942  62.8657022  44.4727375  28.7697964  63.0210202
  43.9280843  29.5457772  63.1530476  45.3506725  29.1168769  62.8629323
  51.2614992  22.1009548  55.3991000  51.3830903  21.1726194  55.5981888
  50.9717034  22.1148234  54.4869316  54.1306182  19.7864458  58.5357720
  54.1527879  19.8503791  57.5809700  54.5474241  18.9468967  58.7298226
  64.5089807  29.5219718  56.5736943  64.9520953  28.7727043  56.1756066
  63.6316317  29.5129854  56.1910675  45.2593397  27.8967860  65.9140358
  44.5175133  28.0450496  66.5004989  44.9386141  28.1576126  65.0507108
  61.5417011  33.5249765  53.5830872  62.0668335  33.8637038  52.8580192
  61.4539364  32.5896780  53.3994006  53.2037060  37.4383839  65.7120748
  53.5124186  37.1932985  66.5843448  54.0012542  37.6430477  65.2239619
  43.9058616  33.7019616  58.9039687  43.0690524  33.2741790  58.7223688
  43.8782261  33.8952059  59.8410478  50.7456071  23.6141545  69.6080933
  50.7944227  24.4903668  69.2258702  51.2878586  23.0718938  69.0352576
  61.2310917  34.1582669  68.8882070  60.4406461  34.1406807  68.3486569
  60.9944272  34.6970962  69.6431106  61.3508792  31.0075135  66.2014798
  61.4006797  30.8425142  67.1430321  61.2422715  30.1402394  65.8112679
  58.6412555  26.9906063  67.5174105  59.5422417  26.8512528  67.2258103
  58.7160529  27.1560518  68.4572282  52.9755360  24.3672918  66.3627291
  52.1058669  24.6606484  66.0909880  53.2114840  24.9513363  67.0834555
  62.8526989  33.4272076  66.4456820  62.5611797  33.7902057  67.2820281
  62.2399120  32.7139085  66.2670152  64.0522671  30.9924956  58.9659390
  64.8869563  31.4314760  59.1296950  64.1881800  30.5163609  58.1467636
  61.1014177  28.5504691  64.9136878  61.5768299  28.7432337  64.1055729
  60.1779743  28.6063877  64.6680262  55.6794394  20.5852535  63.8792712
  56.1976338  21.3213562  63.5539200  55.3249526  20.8916528  64.7139471
  47.2593331  25.4457216  51.9954118  46.5662576  25.5201571  51.3394154
  47.0145083  24.6817559  52.5175635  55.9306988  17.0052817  59.3993608
  56.2108742  16.3376006  60.0254035  56.7157595  17.1981913  58.8868272
  59.8015846  25.4270451  63.1465183  60.7533269  25.5268549  63.1677408
  59.6319297  24.6348720  63.6563268  57.8230226  22.5126034  63.3324584
  57.2280158  22.7931047  62.6371073  57.5379922  23.0019935  64.1041326
  59.5825733  35.7814832  49.0531165  59.5039364  35.4474695  49.9466922
  60.4035400  36.2736599  49.0522637  62.2803924  28.6476571  62.2607483
  62.2480244  27.7092572  62.4467167  62.8904548  28.7260608  61.5273308
  54.1187255  27.5172624  48.3034687  55.0646360  27.3878832  48.3723105
  53.7401500  26.7787286  48.7804115  62.4298412  25.4387614  62.3065766
  61.9137461  24.6546071  62.1195695  63.3138361  25.1106331  62.4712286
  60.0909139  19.1828630  58.2661579  59.8933961  18.8743718  59.1504911
  60.7008845  19.9090269  58.3959509  68.0980474  29.7092578  61.4013520
  68.8283862  29.4477866  61.9621223  67.4887419  28.9721300  61.4415588
  66.1795771  27.8500440  61.9987971  65.4528935  27.7156405  61.3904463
  65.7643058  28.1577269  62.8044689  54.0025947  31.5690370  69.7635344
  54.9228957  31.7468969  69.9575391  53.9675530  30.6246415  69.6115043
  52.3030172  25.4422600  48.2389572  51.3961627  25.1455713  48.3152286
  52.5806153  25.1452418  47.3723859  43.2208112  26.7628964  58.6888619
  42.9010897  25.9094272  58.3962993  42.6741541  26.9777542  59.4446586
  46.9988020  29.4791405  62.4058125  47.2174030  30.4108512  62.4246159
  47.4113794  29.1199379  63.1912929  53.9192238  19.9859490  54.3933814
  53.1092966  19.6406575  54.7689060  54.6076655  19.6767034  54.9821425
  55.8482786  19.0637537  56.0158110  56.4013825  19.4832990  56.6748133
  56.0852872  18.1373285  56.0581066  51.8715885  25.0524610  71.7960874
  51.7712612  26.0018967  71.7272965  51.6537427  24.7242849  70.9236944
  51.0728957  22.3009535  48.3801552  51.9348121  22.6264434  48.6397369
  51.2579301  21.5141031  47.8674617  43.0896372  30.3831875  60.6581740
  42.3959844  29.9685828  60.1451695  43.8369363  30.4252412  60.0615159
  59.2261593  21.1738062  55.5236775  58.6460262  21.8322866  55.1414827
  58.9597526  20.3515407  55.1124192  57.6765159  20.5743120  57.7258095
  58.1764938  20.6859654  56.9172414  58.3200767  20.2704172  58.3658903
  51.7347155  28.4821749  70.6125936  51.2514237  29.2822109  70.8189825
  51.8208094  28.4929694  69.6593380  45.0033115  30.3150129  58.5347755
  44.9803803  30.4137816  57.5829638  45.3133751  31.1615280  58.8564921
  47.6620493  32.3726284  62.6494370  48.6163746  32.3410226  62.5824301
  47.4633016  31.9116908  63.4644596  48.2519875  30.9427400  65.2165167
  49.0712764  31.4371479  65.2400005  48.5256683  30.0259368  65.1882735
  58.0086471  23.3338152  54.5793123  57.1212326  23.6187803  54.3613318
  58.4240460  23.1731916  53.7320400  61.3601007  23.3584673  58.2947462
  62.1361397  23.8481126  58.5672079  60.6349141  23.7842727  58.7519332
  63.7973566  24.0712292  59.3521403  64.3918057  23.8308028  58.6414711
  63.8700150  23.3519423  59.9794939  57.1529685  33.0982827  48.6741143
  57.8565535  33.3032829  49.2898798  56.4292333  33.6659589  48.9390226
  57.9827495  28.8492688  54.7943413  57.9262696  29.3061240  53.9551045
  58.5355837  28.0883373  54.6166256  61.7932301  24.6382420  55.6193533
  61.5369235  24.2379056  56.4501740  61.1685169  25.3526214  55.4943672
  66.1044639  27.3778493  58.1264824  65.5444197  27.4471683  58.8996386
  65.4988142  27.2019478  57.4064320  59.0616382  33.5365356  50.7239603
  59.8961986  33.1046555  50.5417078  58.9000725  33.3647370  51.6516497
  58.7162274  30.0397469  52.0895942  58.6611078  29.8741741  51.1484386
  58.0908329  30.7473502  52.2458132  43.5054789  25.2765534  65.9157364
  44.1513653  24.7664488  66.4044590  43.2971940  26.0134215  66.4900790
  56.0308181  32.3446381  71.4149505  56.8999341  32.5187034  71.0536140
  55.5514933  33.1640798  71.2925234  52.0258400  19.5405578  51.6681261
  52.0137069  20.4847418  51.8249531  52.9181822  19.3575724  51.3740722
  55.8410519  16.1348355  55.9227197  55.0742915  15.5806842  56.0683880
  56.2521224  16.2070224  56.7841349  47.8452280  22.4233151  70.0132379
  48.7083742  22.0669956  70.2235703  47.2717691  22.0847046  70.7007783
  72.6450353  41.7161694  58.7980966  73.3775525  41.1460911  59.0318796
  71.8889708  41.3283295  59.2387472  70.1675773  35.4283268  63.2575575
  69.8359098  36.2978679  63.0336790  69.5721386  35.1119552  63.9369605
  63.9031959  39.1678836  50.9905657  64.0706362  40.0359072  51.3576128
  63.7129128  39.3306117  50.0666946  66.6607293  47.6295814  62.6571488
  66.3608016  48.5320853  62.5487295  66.3158352  47.3627998  63.5092640
  70.0604436  40.1478355  60.3368925  69.1521314  40.0793763  60.0427686
  70.0092032  40.6250300  61.1650750  64.1345302  41.5668000  68.2803822
  63.3578636  42.1261920  68.2706687  64.7735865  42.0524783  68.8018692
  71.9266083  38.3494793  62.1146799  71.2840463  38.6427326  61.4686593
  71.4221011  38.2347713  62.9199995  69.5806246  42.0957966  52.8032658
  70.4924103  42.3285353  52.6280356  69.0715894  42.6795010  52.2407737
  67.8647014  46.5182594  66.4393951  68.2730370  46.0765005  65.6948583
  67.1424276  45.9435222  66.6928144  67.3677529  39.1159569  65.4708681
  67.1238461  39.8701630  64.9342957  67.6437460  39.4944917  66.3055928
  69.3215992  45.6598182  64.1485947  69.5332888  46.3029941  63.4720328
  69.2745741  44.8260498  63.6807877  66.9242221  38.2716002  61.0522519
  66.0626700  38.5697256  61.3439256  66.9504656  38.4886401  60.1203552
  78.5267813  44.8808885  58.6693276  77.7731522  44.3116284  58.5137280
  78.6615354  44.8471550  59.6163910  60.4033781  35.8313868  71.0062350
  60.0100727  35.2780066  71.6809994  61.2199921  36.1424446  71.3968868
  63.3201742  37.2471747  68.5982607  64.0611455  37.8478900  68.5187069
  63.5519665  36.5049384  68.0400649  67.2658905  33.2752850  62.8746888
  66.9223174  34.1654491  62.7985999  67.6337867  33.0854507  62.0116473
  67.2309188  43.2661461  51.3819324  66.7155811  44.0366065  51.6207711
  66.9586496  42.5926597  52.0052385  66.3455445  35.6457505  60.8396122
  65.8420241  35.6087640  60.0263927  66.6386052  36.5550247  60.8992778
  62.5898331  35.7296234  59.8462303  63.4551328  35.5339043  59.4868193
  62.6575840  35.5006586  60.7731660  67.0195491  41.1388553  53.2079105
  66.7145626  41.4534702  54.0589248  67.9725933  41.2169973  53.2506438
  68.9634943  39.7570157  57.3822857  68.2257700  39.2447543  57.7133099
  69.2161717  39.3170538  56.5706134  69.0646571  32.5346409  57.9764626
  69.3705447  31.6743772  57.6890541  69.7899175  33.1264029  57.7763620
  72.6301338  47.1014049  60.7906690  73.0637845  47.0089338  61.6389744
  73.3432919  47.0771549  60.1526706  66.3629233  50.7016143  62.3239791
  66.4166256  51.2707079  63.0917507  65.4944015  50.8718028  61.9593828
  73.4916888  47.1437750  63.3239576  73.6852778  48.0483560  63.5698851
  73.3917506  46.6845169  64.1578161  65.1453199  37.0295640  65.8229903
  64.4981114  37.7285590  65.7294380  65.9154214  37.4631784  66.1906151
  60.3968618  39.8350131  48.4372462  59.5198084  39.7138932  48.0734709
  60.8726371  39.0436209  48.1851351  66.8929194  37.9971051  58.3269188
  67.3897893  37.2441013  58.0070258  66.1216175  38.0335367  57.7612397
  74.7458951  43.7011416  59.9687480  74.7348827  44.5836132  59.5981413
  73.8776331  43.3482967  59.7742017  71.3631526  42.5960057  56.4357646
  71.8291978  43.4288049  56.3617948  71.8139026  42.1305039  57.1402904
  69.3348189  34.9640644  60.4748547  68.4211268  35.1944871  60.6430754
  69.7641290  35.0479088  61.3262579  69.1054647  43.1530536  62.9748441
  68.4526097  43.4006444  62.3200894  69.4835027  42.3394674  62.6410918
  65.1542220  43.8950347  69.4614478  64.4782857  43.7944477  70.1316853
  65.9769854  43.7389561  69.9250475  58.8729496  37.5492424  64.2993979
  58.9370823  38.4107255  63.8871377  58.8096616  36.9366426  63.5666337
  58.3481769  39.6215557  67.9467013  58.9753807  39.2392634  68.5604537
  57.4909688  39.4029759  68.3122706  61.4567872  36.8402409  66.1353568
  61.9802274  37.0864706  66.8979878  61.2380205  37.6722444  65.7156706
  63.3136889  34.8665417  62.2730562  64.1362958  34.3925895  62.1509452
  63.5574952  35.6455900  62.7729248  66.0976246  38.5998824  53.5051796
  66.3139861  39.4823462  53.2040624  65.6170313  38.2085038  52.7757438
  64.9699937  35.1156376  58.5357720  64.9921634  35.1795709  57.5809700
  65.3867996  34.2760885  58.7298226  75.3483561  44.8511636  56.5736943
  75.7914707  44.1018961  56.1756066  74.4710071  44.8421772  56.1910675
  61.5849826  38.9433463  69.6080933  61.6337981  39.8195586  69.2258702
  62.1272340  38.4010856  69.0352576  72.1902547  46.3367053  66.2014798
  72.2400552  46.1717060  67.1430321  72.0816470  45.4694312  65.8112679
  69.4806309  42.3197981  67.5174105  70.3816172  42.1804446  67.2258103
  69.5554284  42.4852435  68.4572282  74.8916426  46.3216874  58.9659390
  75.7263317  46.7606678  59.1296950  75.0275555  45.8455527  58.1467636
  71.9407932  43.8796609  64.9136878  72.4162053  44.0724255  64.1055729
  71.0173497  43.9355795  64.6680262  66.5188148  35.9144452  63.8792712
  67.0370092  36.6505479  63.5539200  66.1643281  36.2208446  64.7139471
  66.7700742  32.3344735  59.3993608  67.0502496  31.6667924  60.0254035
  67.5551349  32.5273830  58.8868272  70.6409601  40.7562369  63.1465183
  71.5927024  40.8560467  63.1677408  70.4713051  39.9640637  63.6563268
  68.6623980  37.8417952  63.3324584  68.0673912  38.1222965  62.6371073
  68.3773677  38.3311853  64.1041326  70.4219487  51.1106749  49.0531165
  70.3433119  50.7766613  49.9466922  71.2429154  51.6028517  49.0522637
  73.1197678  43.9768489  62.2607483  73.0873999  43.0384489  62.4467167
  73.7298302  44.0552525  61.5273308  73.2692167  40.7679532  62.3065766
  72.7531216  39.9837989  62.1195695  74.1532116  40.4398249  62.4712286
  70.9302894  34.5120548  58.2661579  70.7327715  34.2035636  59.1504911
  71.5402599  35.2382186  58.3959509  78.9374228  45.0384495  61.4013520
  79.6677617  44.7769784  61.9621223  78.3281174  44.3013217  61.4415588
  77.0189525  43.1792358  61.9987971  76.2922689  43.0448323  61.3904463
  76.6036812  43.4869187  62.8044689  64.7585992  35.3151408  54.3933814
  63.9486721  34.9698493  54.7689060  65.4470409  35.0058951  54.9821425
  66.6876541  34.3929454  56.0158110  67.2407579  34.8124908  56.6748133
  66.9246627  33.4665203  56.0581066  62.7109640  40.3816528  71.7960874
  62.6106367  41.3310885  71.7272965  62.4931182  40.0534767  70.9236944
  61.9122711  37.6301453  48.3801552  62.7741875  37.9556351  48.6397369
  62.0973055  36.8432949  47.8674617  70.0655348  36.5029980  55.5236775
  69.4854017  37.1614784  55.1414827  69.7991280  35.6807324  55.1124192
  68.5158914  35.9035037  57.7258095  69.0158692  36.0151572  56.9172414
  69.1594522  35.5996090  58.3658903  62.5740910  43.8113667  70.6125936
  62.0907992  44.6114027  70.8189825  62.6601849  43.8221612  69.6593380
  68.8480226  38.6630070  54.5793123  67.9606081  38.9479721  54.3613318
  69.2634215  38.5023833  53.7320400  72.1994762  38.6876591  58.2947462
  72.9755152  39.1773043  58.5672079  71.4742896  39.1134645  58.7519332
  74.6367320  39.4004210  59.3521403  75.2311811  39.1599946  58.6414711
  74.7093904  38.6811341  59.9794939  72.6326055  39.9674338  55.6193533
  72.3762990  39.5670973  56.4501740  72.0078923  40.6818132  55.4943672
  76.9438393  42.7070411  58.1264824  76.3837951  42.7763600  58.8996386
  76.3381897  42.5311396  57.4064320  69.9010136  48.8657274  50.7239603
  70.7355740  48.4338472  50.5417078  69.7394479  48.6939288  51.6516497
  69.5556029  45.3689387  52.0895942  69.5004832  45.2033659  51.1484386
  68.9302084  46.0765420  52.2458132  54.3448544  40.6057452  65.9157364
  54.9907407  40.0956406  66.4044590  54.1365695  41.3426133  66.4900790
  62.8652154  34.8697496  51.6681261  62.8530824  35.8139336  51.8249531
  63.7575576  34.6867642  51.3740722  66.6804274  31.4640273  55.9227197
  65.9136669  30.9098759  56.0683880  67.0914979  31.5362142  56.7841349
  58.6846035  37.7525069  70.0132379  59.5477496  37.3961873  70.2235703
  58.1111445  37.4138963  70.7007783  82.9058815  63.3430140  57.5490603
  82.2209853  63.7229042  56.9987637  82.9902664  63.9525467  58.2822551
  89.3661568  60.2100803  58.6693276  88.6125276  59.6408201  58.5137280
  89.5009109  60.1763468  59.6163910  78.1052659  48.6044767  62.8746888
  77.7616929  49.4946409  62.7985999  78.4731622  48.4146425  62.0116473
  77.1849200  50.9749422  60.8396122  76.6813995  50.9379558  60.0263927
  77.4779807  51.8842165  60.8992778  83.0437216  61.3485733  53.3172497
  82.2666659  61.0096893  52.8727659  83.7228697  61.3538356  52.6427462
  81.2828523  60.8219714  59.9739105  80.6252198  61.5118976  60.0619234
  82.0868922  61.2116146  60.3173091  79.9040325  47.8638326  57.9764626
  80.2099202  47.0035690  57.6890541  80.6292930  48.4555947  57.7763620
  83.4425713  60.3629440  55.7795419  83.3043612  60.5531036  54.8516608
  83.0861932  61.1248822  56.2363470  83.4695093  62.4305967  60.7906690
  83.9031600  62.3381256  61.6389744  84.1826674  62.4063467  60.1526706
  77.2022988  66.0308061  62.3239791  77.2560010  66.5998997  63.0917507
  76.3337769  66.2009946  61.9593828  84.3310642  62.4729667  63.3239576
  84.5246533  63.3775478  63.5698851  84.2311261  62.0137086  64.1578161
  79.4463826  60.9456624  49.3151158  78.8292997  60.2203452  49.2184211
  78.9780315  61.7065985  48.9718232  85.5852706  59.0303334  59.9687480
  85.5742582  59.9128049  59.5981413  84.7170085  58.6774885  59.7742017
  82.2025280  57.9251975  56.4357646  82.6685732  58.7579966  56.3617948
  82.6532781  57.4596956  57.1402904  74.7358757  70.5309192  63.6972094
  75.2877065  70.6940814  64.4621179  75.0764951  71.1213630  63.0252119
  77.8727145  68.4791168  60.6835776  77.7478284  67.6780908  60.1746722
  78.5306236  68.9737361  60.1949746  80.5442608  66.8981463  59.5984551
  81.4689156  66.6924324  59.4609002  80.3757912  66.6497864  60.5073893
  74.1530643  50.1957334  62.2730562  74.9756713  49.7217813  62.1509452
  74.3968707  50.9747818  62.7729248  86.1877316  60.1803553  56.5736943
  86.6308462  59.4310879  56.1756066  85.3103826  60.1713690  56.1910675
  85.7310180  61.6508792  58.9659390  86.5657072  62.0898596  59.1296950
  85.8669309  61.1747445  58.1467636  77.6094497  47.6636653  59.3993608
  77.8896251  46.9959842  60.0254035  78.3945104  47.8565748  58.8868272
  81.2613242  66.4398667  49.0531165  81.1826873  66.1058531  49.9466922
  82.0822909  66.9320435  49.0522637  83.9591433  59.3060406  62.2607483
  83.9267753  58.3676407  62.4467167  84.5692057  59.3844443  61.5273308
  81.7696648  49.8412465  58.2661579  81.5721470  49.5327553  59.1504911
  82.3796354  50.5674104  58.3959509  89.7767983  60.3676413  61.4013520
  90.5071371  60.1061701  61.9621223  89.1674928  59.6305135  61.4415588
  87.8583280  58.5084276  61.9987971  87.1316444  58.3740241  61.3904463
  87.4430567  58.8161104  62.8044689  80.9049102  51.8321897  55.5236775
  80.3247771  52.4906701  55.1414827  80.6385035  51.0099242  55.1124192
  79.3552668  51.2326955  57.7258095  79.8552447  51.3443490  56.9172414
  79.9988276  50.9288008  58.3658903  85.4761075  54.7296128  59.3521403
  86.0705566  54.4891864  58.6414711  85.5487659  54.0103258  59.9794939
  83.4719810  55.2966255  55.6193533  83.2156744  54.8962891  56.4501740
  82.8472678  56.0110049  55.4943672  87.7832148  58.0362329  58.1264824
  87.2231706  58.1055518  58.8996386  87.1775651  57.8603313  57.4064320
  89.3688166  74.7118843  60.8194780  90.0066576  74.5925590  60.1158120
  89.2509009  75.6599687  60.8782732  86.1777872  74.6646271  60.7556304
  85.8396384  74.5487335  59.8676839  87.0467641  74.2637436  60.7357310
  82.0364688  76.5181747  56.7453195  81.4729553  76.4271684  55.9769483
  81.9217083  75.6981652  57.2255688  86.6597655  75.8181122  66.7142510
  86.6486296  75.4233921  65.8423014  86.8218295  75.0847195  67.3076281
  79.5829120  78.0132939  59.5837416  80.3750412  77.6723763  59.1683715
  79.8225770  78.1227914  60.5039569  87.6164247  80.1852715  52.0567660
  86.9652227  80.7706795  51.6701674  88.4108610  80.7158910  52.1162698
  81.5419874  77.2741852  52.4554795  82.3150750  76.7270839  52.3167670
  81.8945273  78.1386101  52.6669256  83.3804916  78.6018234  65.6621694
  83.0894782  79.5063865  65.5468360  84.0161901  78.6434762  66.3765763
  84.3061123  75.9795083  62.2523053  84.9024696  75.7551105  61.5380016
  84.3636095  75.2379828  62.8548501  83.8786152  73.4334518  50.0873244
  84.1311672  72.9116039  49.3256707  82.9410711  73.2700664  50.1899928
  88.9229435  72.4370296  57.8947988  89.7092524  72.0189720  57.5438405
  89.1868139  73.3416389  58.0629636  89.0939512  77.8743147  52.5936644
  88.4585345  77.9477773  53.3057549  88.7636918  78.4636746  51.9155724
  94.3237862  72.3745530  58.7980966  95.0563034  71.8044746  59.0318796
  93.5677217  71.9867130  59.2387472  85.9413981  74.7972771  55.9944309
  85.5772189  74.2703392  56.7057230  86.7981097  74.4071240  55.8210794
  91.8463282  66.0867104  63.2575575  91.5146607  66.9562515  63.0336790
  91.2508895  65.7703388  63.9369605  85.5819468  69.8262671  50.9905657
  85.7493871  70.6942907  51.3576128  85.3916637  69.9889953  50.0666946
  88.3394802  78.2879650  62.6571488  88.0395525  79.1904689  62.5487295
  87.9945861  78.0211833  63.5092640  81.7907283  74.7393447  58.6908192
  80.8657780  74.6069661  58.8985884  82.0391696  75.5187666  59.1878134
  91.7391945  70.8062190  60.3368925  90.8308823  70.7377598  60.0427686
  91.6879541  71.2834135  61.1650750  85.5608689  72.2820328  51.9752324
  85.4408314  72.7277379  52.8137804  84.8661278  72.6305646  51.4165862
  79.1516094  74.3826720  59.5251981  79.2808475  74.6361199  60.4391393
  78.4713545  74.9754428  59.2056636  83.3215581  85.0523970  55.6242455
  83.2439611  86.0031795  55.7030936  82.7177225  84.7069843  56.2817382
  85.8132811  72.2251836  68.2803822  85.0366145  72.7845756  68.2706687
  86.4523374  72.7108619  68.8018692  93.6053592  69.0078628  62.1146799
  92.9627972  69.3011162  61.4686593  93.1008520  68.8931549  62.9199995
  91.2593755  72.7541802  52.8032658  92.1711612  72.9869188  52.6280356
  90.7503403  73.3378846  52.2407737  84.0679183  75.0337289  67.8421789
  84.8093868  75.5722333  67.5656613  83.3616169  75.6603578  67.9993341
  89.5434523  77.1766429  66.4393951  89.9517879  76.7348840  65.6948583
  88.8211785  76.6019057  66.6928144  85.8965593  72.1139036  63.8127508
  86.7426788  72.5378450  63.9562157  85.8364231  71.4572660  64.5066071
  89.8663338  77.7367620  60.1946239  89.2372200  77.9013334  59.4922307
  89.4789000  78.1509230  60.9657204  93.7452570  78.6722058  57.5490603
  93.0603608  79.0520959  56.9987637  93.8296419  79.2817385  58.2822551
  89.0465038  69.7743405  65.4708681  88.8025970  70.5285465  64.9342957
  89.3224969  70.1528752  66.3055928  91.0003501  76.3182017  64.1485947
  91.2120396  76.9613777  63.4720328  90.9533249  75.4844333  63.6807877
  88.6029730  68.9299838  61.0522519  87.7414209  69.2281091  61.3439256
  88.6292165  69.1470236  60.1203552  85.4191300  77.4742028  57.4596325
  85.8829645  77.7529731  56.6700947  85.1548098  76.5725473  57.2769415
  82.3115381  77.0213510  60.3976088  82.8816738  77.4500778  59.7593572
  82.9023493  76.7396094  61.0960274  84.3560186  73.5965180  54.2685890
  85.0584229  74.0486224  54.7359816  84.0240814  72.9548999  54.8965783
  82.8040547  72.1876937  68.6437099  82.1739208  72.8693218  68.8772496
  82.6976635  72.0760019  67.6990237  78.0985520  71.8548733  59.5703023
  77.3084574  72.1106262  59.0943134  78.5896767  72.6697071  59.6755064
  92.1149329  79.1953972  62.3208304  92.9366773  78.7934160  62.0390986
  92.1111732  79.0922206  63.2724420  80.0500265  72.2193312  56.5286500
  79.2531428  72.3312007  57.0469996  79.8225857  72.5579965  55.6627391
  85.8805933  78.7438016  64.4769015  85.9450365  79.2058423  65.3127186
  85.1716857  78.1135381  64.6051324  76.3823223  72.1079224  62.0018014
  76.6331261  72.9926233  62.2675590  76.9182771  71.9283825  61.2293106
 100.2055322  75.5392721  58.6693276  99.4519031  74.9700119  58.5137280
 100.3402863  75.5055385  59.6163910  85.5953950  80.4106123  54.3447995
  85.4599625  81.2557659  54.7732843  86.1363763  80.6125401  53.5813929
  80.8578232  81.0447317  56.9998673  81.0344861  81.9665282  56.8119657
  81.6535066  80.7305737  57.4293053  80.1430589  73.0911949  66.8760836
  80.0284104  72.1897207  67.1767935  79.2875107  73.3375646  66.5245653
  87.2222427  81.0329690  68.4748337  86.7786281  80.2466068  68.1569242
  87.8839640  81.2208840  67.8092228  81.9809548  82.5625491  63.0009016
  82.5316973  82.4342555  62.2286009  81.1421024  82.8620380  62.6503908
  89.3203665  81.3132490  66.5029738  89.3022140  82.1341371  66.0110007
  90.2423585  81.1886565  66.7279879  85.7776719  78.8276619  67.3453247
  86.3105056  78.0664907  67.1152555  85.2490800  78.5350271  68.0877401
  88.9446414  63.9336685  62.8746888  88.6010683  64.8238327  62.7985999
  89.3125376  63.7438343  62.0116473  88.9096697  73.9245296  51.3819324
  88.3943320  74.6949901  51.6207711  88.6374005  73.2510432  52.0052385
  86.4943808  68.7694997  56.4404562  85.6385404  68.3801847  56.2610201
  86.9070759  68.8486958  55.5804347  88.0242954  66.3041340  60.8396122
  87.5207750  66.2671475  60.0263927  88.3173561  67.2134083  60.8992778
  84.2685840  66.3880070  59.8462303  85.1338837  66.1922879  59.4868193
  84.3363349  66.1590422  60.7731660  93.8830971  76.6777651  53.3172497
  93.1060413  76.3388810  52.8727659  94.5622452  76.6830274  52.6427462
  88.6983000  71.7972388  53.2079105  88.3933135  72.1118537  54.0589248
  89.6513442  71.8753808  53.2506438  87.1429432  77.9562611  54.8572059
  86.6150793  77.2215371  54.5445296  86.6416934  78.7337288  54.6112027
  92.1222278  76.1511632  59.9739105  91.4645952  76.8410893  60.0619234
  92.9262677  76.5408064  60.3173091  90.9327736  74.5056005  58.0243047
  91.4459618  75.1385997  58.5264756  91.5828960  73.9057200  57.6586407
  85.2882032  75.7742822  47.8607032  84.3809094  75.5432075  48.0598181
  85.7853064  74.9780441  48.0481013  88.1950111  84.4840329  50.7803718
  87.5211809  84.7872026  51.3888676  88.5815933  85.2869409  50.4309175
  87.4108567  71.9805460  60.2701387  86.4931129  72.2020407  60.1123075
  87.8268711  72.0551771  59.4113095  88.1943615  73.3796876  55.4004068
  88.9415434  73.8918273  55.0911190  88.4635205  73.0580929  56.2608461
  86.4670265  75.8755417  52.3831022  85.5581484  75.5914449  52.4803492
  86.4965349  76.2954495  51.5234329  91.6989533  79.4862006  56.1522189
  91.2451860  78.6452916  56.2087380  91.0683499  80.1223404  56.4896970
  90.6422452  70.4153992  57.3822857  89.9045209  69.9031378  57.7133099
  90.8949226  69.9754374  56.5706134  90.1422472  81.3238503  57.0872008
  90.4345446  81.8843560  56.3684373  90.6521092  81.6167064  57.8425167
  90.7434080  63.1930244  57.9764626  91.0492956  62.3327608  57.6890541
  91.4686684  63.7847864  57.7763620  85.0155159  73.4884037  58.4840817
  85.0703769  72.5357874  58.4083294  84.2046361  73.6443476  58.9682116
  86.1646353  77.4164160  49.7219100  85.7265783  76.7000019  49.2624738
  86.9056794  77.6440275  49.1604192  82.9547519  72.1061097  56.2431196
  82.1415385  72.4055268  56.6496388  83.4506513  71.7116786  56.9605678
  85.1056097  82.1018854  58.1765461  85.0632276  82.3279700  57.2473993
  86.0218796  81.8682228  58.3251262  88.5521731  72.5702921  65.0746090
  88.9071119  72.7974395  65.9340556  89.1993862  72.9021298  64.4523345
  94.2819468  75.6921357  55.7795419  94.1437366  75.8822953  54.8516608
  93.9255687  76.4540740  56.2363470  82.4461594  69.6779452  61.8592431
  83.0860973  69.5368212  61.1615394  81.6139124  69.3913966  61.4831033
  94.3088847  77.7597884  60.7906690  94.7425354  77.6673173  61.6389744
  95.0220428  77.7355385  60.1526706  83.2221898  78.9781883  57.9727423
  84.0162496  78.4832203  57.7709998  82.5113590  78.4499746  57.6095129
  88.0416742  81.3599978  62.3239791  88.0953765  81.9290915  63.0917507
  87.1731524  81.5301863  61.9593828  95.1704397  77.8021585  63.3239576
  95.3640287  78.7067395  63.5698851  95.0705015  77.3429004  64.1578161
  90.2319506  77.9528328  68.8980456  90.0805012  77.7238879  67.9810540
  90.2224185  78.9098929  68.9111801  87.0004842  75.5260240  63.8826723
  87.9296902  75.6771400  63.7095690  86.5795872  75.6144261  63.0275369
  85.7993174  79.5510905  61.6525261  85.6604260  79.1829689  62.5251199
  85.0107770  80.0658544  61.4809218  86.3941326  84.6520001  52.9950797
  86.5693081  84.1808045  53.8096420  85.7074114  85.2785768  53.2232058
  87.3498389  78.9292508  59.0414098  87.0148222  78.8893278  59.9371748
  86.8502335  78.2637224  58.5684509  81.3242633  74.3360138  64.5666679
  81.1862431  73.6040376  65.1678219  82.2347556  74.2469038  64.2850867
  90.2857581  76.2748542  49.3151158  89.6686751  75.5495370  49.2184211
  89.8174069  77.0357902  48.9718232  83.9524934  74.0480097  64.0550359
  84.6624552  73.4073289  64.0136978  83.9094242  74.2992992  64.9776540
  91.9411712  80.9847450  66.9756938  91.8824258  80.3006670  66.3087521
  92.3431231  81.7266440  66.5237564  80.9602411  87.8009364  59.7690657
  81.1999009  88.4327888  60.4469676  80.1171608  87.4497404  60.0556016
  82.0756127  70.4933966  48.4372462  81.1985593  70.3722767  48.0734709
  82.5513880  69.7020045  48.1851351  91.9429120  78.9487034  65.2070918
  91.0555898  78.6112956  65.3297317  92.5127671  78.2170065  65.4439683
  78.3992989  70.1701323  62.9598993  78.3151178  69.5626992  62.2249403
  77.5775695  70.6610341  62.9608489  85.4730273  83.6088487  62.1732161
  85.4000444  84.4143458  62.6851466  85.0307666  83.8080452  61.3480183
  85.2620053  82.8460257  55.6834983  84.4787574  83.3881937  55.7773207
  85.9612798  83.3634236  56.0829224  88.5716703  68.6554886  58.3269188
  89.0685402  67.9024848  58.0070258  87.8003684  68.6919203  57.7612397
  96.4246460  74.3595252  59.9687480  96.4136336  75.2419967  59.5981413
  95.5563840  74.0066802  59.7742017  87.9328956  83.5075321  64.3290320
  88.6456929  84.1422785  64.2566221  87.4418985  83.6039187  63.5130322
  89.6546483  77.4126573  55.9007612  88.7202762  77.5328036  55.7312316
  89.8323152  76.5099040  55.6367621  85.1551671  70.7972269  58.0540873
  84.7849459  70.2443309  58.7421778  85.6510764  70.1930403  57.5015873
  93.0419035  73.2543893  56.4357646  93.5079487  74.0871884  56.3617948
  93.4926535  72.7888874  57.1402904  82.9840870  81.2569764  65.1495891
  83.6850330  81.8906247  65.3025285  82.5135985  81.5984496  64.3891530
  91.1095266  79.5987714  53.4343798  91.3855110  79.4844308  54.3437672
  90.2399765  79.2005199  53.3955971  91.0135697  65.6224480  60.4748547
  90.0998777  65.8528706  60.6430754  91.4428799  65.7062924  61.3262579
  90.7842156  73.8114372  62.9748441  90.1313606  74.0590279  62.3200894
  91.1622536  72.9978510  62.6410918  87.7449330  83.8474065  57.0776611
  87.9271724  83.0295721  57.5404364  88.5682316  84.0641757  56.6401501
  88.0791495  82.7742250  54.3391660  88.6079262  82.2634704  53.7261822
  88.3419715  82.4584780  55.2037193  86.8329729  74.5534183  69.4614478
  86.1570366  74.4528312  70.1316853  87.6557363  74.3973396  69.9250475
  78.5808588  80.7906119  62.0826993  79.1662025  80.0449807  62.2154898
  78.3833427  81.1010076  62.9663657  81.4347243  83.8257367  57.0989436
  80.7657619  84.3103494  56.6153476  81.2960113  84.0726587  58.0132814
  85.5752512  85.8601110  63.6972094  86.1270820  86.0232732  64.4621179
  85.9158705  86.4505548  63.0252119  80.0269278  70.2799392  67.9467013
  80.6541316  69.8976470  68.5604537  79.1697196  70.0613594  68.3122706
  90.4263386  80.6862368  69.5520749  90.9703290  81.2992326  69.0575703
  89.8450231  81.2441946  70.0687762  88.7120899  83.8083086  60.6835776
  88.5872039  83.0072825  60.1746722  89.3699990  84.3029279  60.1949746
  80.3329067  70.1631818  59.8612917  79.6115653  70.7767786  59.7220390
  81.1222323  70.6989583  59.7829562  90.7755808  81.6092106  62.3115326
  89.8286143  81.4897457  62.2393653  91.1238581  80.7214604  62.3941588
  87.7802241  81.4044822  58.5119679  87.6327203  80.4761529  58.6927249
  88.6055734  81.4264913  58.0276754  91.3836363  82.2273381  59.5984551
  92.3082910  82.0216242  59.4609002  91.2151666  81.9789782  60.5073893
  84.9924398  65.5249252  62.2730562  85.8150467  65.0509730  62.1509452
  85.2362461  66.3039736  62.7729248  87.7763755  69.2582660  53.5051796
  87.9927370  70.1407297  53.2040624  87.2957822  68.8668873  52.7757438
  82.5162977  72.2168373  60.0822540  82.3707557  72.5308676  60.9746822
  82.0388180  72.8353273  59.5293439  84.3759359  69.2070921  60.1303430
  84.3620928  68.3112014  59.7935728  85.0931788  69.2141584  60.7641716
  86.2285490  69.6408261  62.1756557  85.9703268  70.5625332  62.1740888
  85.6970531  69.2438695  62.8657022  91.1731679  82.7459048  54.9546643
  91.3468556  82.1805471  54.2020495  91.6660570  83.5459943  54.7726133
  76.9908639  74.7573717  63.0210202  76.4462107  75.5333525  63.1530476
  77.8687989  75.1044522  62.8629323  86.6487446  65.7740211  58.5357720
  86.6709143  65.8379545  57.5809700  87.0655505  64.9344720  58.7298226
  97.0271070  75.5095471  56.5736943  97.4702216  74.7602796  56.1756066
  96.1497580  75.5005607  56.1910675  92.1606851  82.0625812  52.0543541
  92.8557756  82.6832505  52.2730856  92.5030002  81.2121164  52.3295919
  77.7774661  73.8843613  65.9140358  77.0356397  74.0326249  66.5004989
  77.4567405  74.1451879  65.0507108  94.0598275  79.5125518  53.5830872
  94.5849599  79.8512791  52.8580192  93.9720627  78.5772533  53.3994006
  85.7218323  83.4259592  65.7120748  86.0305450  83.1808738  66.5843448
  86.5193805  83.6306230  65.2239619  85.7438935  85.5797501  57.9426125
  85.3043926  85.0873880  58.6358982  86.4947052  85.0370469  57.7018200
  83.1912807  81.1235510  60.0148427  82.5692817  80.4606215  59.7150655
  83.8617674  81.1496642  59.3322074  93.7492181  80.1458422  68.8882070
  92.9587724  80.1282560  68.3486569  93.5125535  80.6846715  69.6431106
  93.8690056  76.9950888  66.2014798  93.9188061  76.8300895  67.1430321
  93.7603979  76.1278147  65.8112679  82.7526314  79.6739434  53.4906887
  82.9014435  80.3574898  52.8373560  83.5592758  79.6544524  54.0056343
  91.1593818  72.9781816  67.5174105  92.0603681  72.8388281  67.2258103
  91.2341793  73.1436271  68.4572282  95.3708252  79.4147829  66.4456820
  95.0793061  79.7777810  67.2820281  94.7580384  78.7014838  66.2670152
  96.5703935  76.9800709  58.9659390  97.4050826  77.4190513  59.1296950
  96.7063064  76.5039362  58.1467636  93.6195441  74.5380444  64.9136878
  94.0949562  74.7308090  64.1055729  92.6961006  74.5939630  64.6680262
  88.1975657  66.5728288  63.8792712  88.7157601  67.3089315  63.5539200
  87.8430790  66.8792281  64.7139471  88.4488251  62.9928570  59.3993608
  88.7290005  62.3251759  60.0254035  89.2338858  63.1857666  58.8868272
  86.2521720  82.1687564  50.9618635  85.6795687  82.7877751  50.5089107
  86.8254514  82.7186926  51.4958557  92.3197110  71.4146204  63.1465183
  93.2714533  71.5144302  63.1677408  92.1500560  70.6224473  63.6563268
  90.3411489  68.5001787  63.3324584  89.7461421  68.7806800  62.6371073
  90.0561186  68.9895688  64.1041326  89.4718980  82.4524714  52.0927217
  90.4049653  82.3870276  52.2960092  89.3842192  83.2880981  51.6341750
  92.1006996  81.7690585  49.0531165  92.0220628  81.4350448  49.9466922
  92.9216663  82.2612353  49.0522637  94.7985187  74.6352324  62.2607483
  94.7661508  73.6968325  62.4467167  95.4085811  74.7136361  61.5273308
  86.6368518  73.5048377  48.3034687  87.5827623  73.3754585  48.3723105
  86.2582763  72.7663039  48.7804115  94.9479676  71.4263367  62.3065766
  94.4318725  70.6421824  62.1195695  95.8319624  71.0982084  62.4712286
  92.6090403  65.1704383  58.2661579  92.4115224  64.8619471  59.1504911
  93.2190108  65.8966022  58.3959509 100.6161737  75.6968331  61.4013520
 101.3465126  75.4353619  61.9621223 100.0068683  74.9597053  61.4415588
  98.6977034  73.8376193  61.9987971  97.9710198  73.7032158  61.3904463
  98.2824321  74.1453022  62.8044689  86.5207211  77.5566123  69.7635344
  87.4410220  77.7344722  69.9575391  86.4856794  76.6122168  69.6115043
  84.8211435  71.4298353  48.2389572  83.9142891  71.1331466  48.3152286
  85.0987416  71.1328171  47.3723859  75.7389376  72.7504717  58.6888619
  75.4192160  71.8970025  58.3962993  75.1922804  72.9653295  59.4446586
  79.5169283  75.4667158  62.4058125  79.7355293  76.3984265  62.4246159
  79.9295057  75.1075132  63.1912929  86.4373501  65.9735243  54.3933814
  85.6274230  65.6282328  54.7689060  87.1257918  65.6642787  54.9821425
  88.3664049  65.0513290  56.0158110  88.9195088  65.4708743  56.6748133
  88.6034136  64.1249038  56.0581066  84.3897149  71.0400363  71.7960874
  84.2893876  71.9894720  71.7272965  84.1718691  70.7118602  70.9236944
  83.5910220  68.2885288  48.3801552  84.4529384  68.6140187  48.6397369
  83.7760564  67.5016784  47.8674617  75.6077636  76.3707628  60.6581740
  74.9141107  75.9561581  60.1451695  76.3550627  76.4128165  60.0615159
  91.7442857  67.1613815  55.5236775  91.1641526  67.8198619  55.1414827
  91.4778789  66.3391160  55.1124192  90.1946423  66.5618873  57.7258095
  90.6946201  66.6735407  56.9172414  90.8382031  66.2579925  58.3658903
  84.2528419  74.4697502  70.6125936  83.7695500  75.2697862  70.8189825
  84.3389358  74.4805447  69.6593380  80.1801756  78.3602037  62.6494370
  81.1345010  78.3285979  62.5824301  79.9814280  77.8992661  63.4644596
  80.7701138  76.9303153  65.2165167  81.5894027  77.4247232  65.2400005
  81.0437946  76.0135121  65.1882735  90.5267735  69.3213905  54.5793123
  89.6393590  69.6063556  54.3613318  90.9421724  69.1607669  53.7320400
  93.8782271  69.3460426  58.2947462  94.6542661  69.8356879  58.5672079
  93.1530405  69.7718481  58.7519332  96.3154829  70.0588046  59.3521403
  96.9099320  69.8183781  58.6414711  96.3881413  69.3395176  59.9794939
  78.5351985  83.9021656  59.6664568  78.4006453  83.1422057  59.1002566
  78.1184047  84.6262556  59.1993356  89.6710948  79.0858580  48.6741143
  90.3746798  79.2908582  49.2898798  88.9473597  79.6535342  48.9390226
  90.5008758  74.8368441  54.7943413  90.4443960  75.2936993  53.9551045
  91.0537101  74.0759126  54.6166256  94.3113564  70.6258173  55.6193533
  94.0550498  70.2254809  56.4501740  93.6866432  71.3401967  55.4943672
  98.6225902  73.3654246  58.1264824  98.0625460  73.4347436  58.8996386
  98.0169405  73.1895231  57.4064320  81.6921111  84.7990973  59.8783010
  81.5753495  85.7436406  59.7761700  80.8713557  84.4964535  60.2668809
  91.5797645  79.5241109  50.7239603  92.4143249  79.0922308  50.5417078
  91.4181988  79.3523123  51.6516497  91.2343538  76.0273223  52.0895942
  91.1792341  75.8617494  51.1484386  90.6089593  76.7349255  52.2458132
  76.0236053  71.2641287  65.9157364  76.6694916  70.7540241  66.4044590
  75.8153204  72.0009969  66.4900790  88.5489445  78.3322134  71.4149505
  89.4180604  78.5062787  71.0536140  88.0696196  79.1516551  71.2925234
  84.5439663  65.5281332  51.6681261  84.5318333  66.4723171  51.8249531
  85.4363085  65.3451477  51.3740722  82.7175625  85.4519235  63.0938939
  83.6202872  85.4842846  63.4105434  82.4912995  84.5219686  63.1085274
  84.4729227  84.2050222  59.7549017  83.5224858  84.2052084  59.6413390
  84.7761713  83.4582956  59.2385052  88.3591783  62.1224108  55.9227197
  87.5924178  61.5682595  56.0683880  88.7702488  62.1945977  56.7841349
 100.2081921  90.0410760  60.8194780 100.8460331  89.9217508  60.1158120
 100.0902763  90.9891604  60.8782732  97.0171627  89.9938188  60.7556304
  96.6790138  89.8779253  59.8676839  97.8861395  89.5929354  60.7357310
  92.8758443  91.8473665  56.7453195  92.3123308  91.7563602  55.9769483
  92.7610838  91.0273569  57.2255688  97.4991410  91.1473040  66.7142510
  97.4880051  90.7525838  65.8423014  97.6612049  90.4139113  67.3076281
  90.4222874  93.3424856  59.5837416  91.2144166  93.0015681  59.1683715
  90.6619525  93.4519831  60.5039569  98.4558001  95.5144633  52.0567660
  97.8045981  96.0998713  51.6701674  99.2502364  96.0450827  52.1162698
  92.3813628  92.6033770  52.4554795  93.1544504  92.0562757  52.3167670
  92.7339027  93.4678019  52.6669256  94.2198671  93.9310152  65.6621694
  93.9288537  94.8355783  65.5468360  94.8555655  93.9726680  66.3765763
  95.1454878  91.3087000  62.2523053  95.7418450  91.0843023  61.5380016
  95.2029849  90.5671746  62.8548501  94.7179906  88.7626436  50.0873244
  94.9705427  88.2407957  49.3256707  93.7804465  88.5992581  50.1899928
  99.7623189  87.7662214  57.8947988 100.5486278  87.3481637  57.5438405
 100.0261893  88.6708306  58.0629636  99.9333266  93.2035064  52.5936644
  99.2979099  93.2769691  53.3057549  99.6030673  93.7928663  51.9155724
 105.1631616  87.7037447  58.7980966 105.8956788  87.1336664  59.0318796
 104.4070972  87.3159048  59.2387472  94.4376195  90.6654542  52.2897619
  94.3212453  89.9899445  52.9578704  94.5478455  90.1786916  51.4729772
  96.7807736  90.1264689  55.9944309  96.4165943  89.5995310  56.7057230
  97.6374852  89.7363158  55.8210794 102.6857037  81.4159021  63.2575575
 102.3540361  82.2854432  63.0336790 102.0902650  81.0995305  63.9369605
  96.4213223  85.1554589  50.9905657  96.5887625  86.0234825  51.3576128
  96.2310392  85.3181870  50.0666946  99.1788556  93.6171567  62.6571488
  98.8789279  94.5196606  62.5487295  98.8339616  93.3503751  63.5092640
  92.6301038  90.0685364  58.6908192  91.7051534  89.9361578  58.8985884
  92.8785451  90.8479584  59.1878134 102.5785700  86.1354108  60.3368925
 101.6702577  86.0669516  60.0427686 102.5273296  86.6126053  61.1650750
  96.4002444  87.6112246  51.9752324  96.2802069  88.0569297  52.8137804
  95.7055032  87.9597564  51.4165862  89.9909849  89.7118638  59.5251981
  90.1202230  89.9653117  60.4391393  89.3107300  90.3046346  59.2056636
  94.1609336 100.3815888  55.6242455  94.0833366 101.3323713  55.7030936
  93.5570979 100.0361760  56.2817382  96.6526566  87.5543753  68.2803822
  95.8759900  88.1137673  68.2706687  97.2917129  88.0400536  68.8018692
 104.4447346  84.3370546  62.1146799 103.8021727  84.6303079  61.4686593
 103.9402275  84.2223466  62.9199995 102.0987510  88.0833719  52.8032658
 103.0105366  88.3161106  52.6280356 101.5897157  88.6670763  52.2407737
  94.9072938  90.3629207  67.8421789  95.6487622  90.9014251  67.5656613
  94.2009923  90.9895495  67.9993341 100.3828278  92.5058347  66.4393951
 100.7911634  92.0640758  65.6948583  99.6605539  91.9310975  66.6928144
  96.7359348  87.4430954  63.8127508  97.5820543  87.8670367  63.9562157
  96.6757985  86.7864578  64.5066071 100.7057092  93.0659538  60.1946239
 100.0765955  93.2305252  59.4922307 100.3182754  93.4801147  60.9657204
 104.5846324  94.0013976  57.5490603 103.8997362  94.3812877  56.9987637
 104.6690173  94.6109302  58.2822551  99.8858793  85.1035322  65.4708681
  99.6419725  85.8577383  64.9342957 100.1618723  85.4820670  66.3055928
 101.8397256  91.6473935  64.1485947 102.0514151  92.2905694  63.4720328
 101.7927004  90.8136251  63.6807877  99.4423485  84.2591755  61.0522519
  98.5807964  84.5573009  61.3439256  99.4685919  84.4762154  60.1203552
  96.2585054  92.8033946  57.4596325  96.7223400  93.0821649  56.6700947
  95.9941852  91.9017390  57.2769415  93.1509135  92.3505427  60.3976088
  93.7210492  92.7792696  59.7593572  93.7417247  92.0688012  61.0960274
  95.1953940  88.9257098  54.2685890  95.8977984  89.3778142  54.7359816
  94.8634569  88.2840917  54.8965783  93.6434302  87.5168855  68.6437099
  93.0132962  88.1985136  68.8772496  93.5370390  87.4051936  67.6990237
  88.9379274  87.1840651  59.5703023  88.1478328  87.4398179  59.0943134
  89.4290521  87.9988989  59.6755064 102.9543084  94.5245890  62.3208304
 103.7760527  94.1226077  62.0390986 102.9505487  94.4214124  63.2724420
  90.8894020  87.5485230  56.5286500  90.0925183  87.6603924  57.0469996
  90.6619612  87.8871882  55.6627391  96.7199687  94.0729933  64.4769015
  96.7844120  94.5350341  65.3127186  96.0110611  93.4427298  64.6051324
  87.2216977  87.4371141  62.0018014  87.4725016  88.3218151  62.2675590
  87.7576526  87.2575743  61.2293106 111.0449077  90.8684638  58.6693276
 110.2912785  90.2992037  58.5137280 111.1796618  90.8347303  59.6163910
  96.4347705  95.7398041  54.3447995  96.2993380  96.5849576  54.7732843
  96.9757517  95.9417318  53.5813929  92.9215044  81.8189621  71.0062350
  92.5281990  81.2655819  71.6809994  93.7381185  82.1300199  71.3968868
  89.8877102  93.2573479  54.9175920  90.4001623  94.0516729  55.0681485
  90.5399815  92.5599769  54.8509521  91.6971987  96.3739235  56.9998673
  91.8738615  97.2957200  56.8119657  92.4928820  96.0597654  57.4293053
  95.8383005  83.2347500  68.5982607  96.5792719  83.8354653  68.5187069
  96.0700928  82.4925137  68.0400649  90.9824343  88.4203867  66.8760836
  90.8677859  87.5189124  67.1767935  90.1268861  88.6667564  66.5245653
  98.0616181  96.3621607  68.4748337  97.6180035  95.5757986  68.1569242
  98.7233395  96.5500758  67.8092228  92.8203302  97.8917409  63.0009016
  93.3710727  97.7634472  62.2286009  91.9814778  98.1912298  62.6503908
 100.1597419  96.6424407  66.5029738 100.1415895  97.4633288  66.0110007
 101.0817339  96.5178482  66.7279879  96.6170473  94.1568537  67.3453247
  97.1498810  93.3956825  67.1152555  96.0884554  93.8642188  68.0877401
  99.7840168  79.2628603  62.8746888  99.4404438  80.1530244  62.7985999
 100.1519131  79.0730260  62.0116473  87.8526019  91.5862133  55.6935491
  88.6901241  91.9959141  55.4769198  88.0304287  90.6461575  55.6635684
  99.7490451  89.2537214  51.3819324  99.2337075  90.0241818  51.6207711
  99.4767760  88.5802350  52.0052385  97.3337562  84.0986915  56.4404562
  96.4779158  83.7093765  56.2610201  97.7464514  84.1778875  55.5804347
  98.8636709  81.6333258  60.8396122  98.3601504  81.5963393  60.0263927
  99.1567316  82.5426001  60.8992778  95.1079595  81.7171988  59.8462303
  95.9732591  81.5214796  59.4868193  95.1757104  81.4882339  60.7731660
 104.7224725  92.0069568  53.3172497 103.9454168  91.6680728  52.8727659
 105.4016206  92.0122192  52.6427462  99.5376754  87.1264306  53.2079105
  99.2326890  87.4410455  54.0589248 100.4907196  87.2045726  53.2506438
  97.9823186  93.2854529  54.8572059  97.4544548  92.5507289  54.5445296
  97.4810689  94.0629206  54.6112027 102.9616032  91.4803550  59.9739105
 102.3039707  92.1702811  60.0619234 103.7656431  91.8699982  60.3173091
  92.7141914  83.9474195  57.2178670  93.2885666  83.7249377  56.4851863
  93.3012896  84.0162890  57.9707272 101.7721491  89.8347922  58.0243047
 102.2853373  90.4677914  58.5264756 102.4222715  89.2349118  57.6586407
  93.0411501  85.9778656  51.2374555  92.2048813  86.3153343  51.5583830
  92.9016270  85.8427636  50.3001692  95.0164581  80.8215444  55.9453740
  94.3628994  80.5064462  55.3210354  94.9745056  80.1991185  56.6713563
  96.1275786  91.1034739  47.8607032  95.2202848  90.8723993  48.0598181
  96.6246818  90.3072359  48.0481013  99.0343865  99.8132247  50.7803718
  98.3605564 100.1163943  51.3888676  99.4209687 100.6161327  50.4309175
  98.2502322  87.3097378  60.2701387  97.3324883  87.5312325  60.1123075
  98.6662465  87.3843688  59.4113095  99.0337370  88.7088794  55.4004068
  99.7809188  89.2210191  55.0911190  99.3028959  88.3872846  56.2608461
  97.3064020  91.2047334  52.3831022  96.3975239  90.9206367  52.4803492
  97.3359104  91.6246413  51.5234329 102.5383287  94.8153924  56.1522189
 102.0845614  93.9744834  56.2087380 101.9077254  95.4515322  56.4896970
 101.4816207  85.7445910  57.3822857 100.7438963  85.2323296  57.7133099
 101.7342980  85.3046291  56.5706134 100.9816226  96.6530420  57.0872008
 101.2739201  97.2135478  56.3684373 101.4914847  96.9458981  57.8425167
 101.5827834  78.5222162  57.9764626 101.8886711  77.6619525  57.6890541
 102.3080439  79.1139782  57.7763620  87.8752190  88.9252848  56.3646224
  87.6776590  88.3322209  55.6397291  87.3198854  88.6205059  57.0822163
  95.8548914  88.8175955  58.4840817  95.9097524  87.8649791  58.4083294
  95.0440116  88.9735394  58.9682116  97.0040108  92.7456078  49.7219100
  96.5659537  92.0291937  49.2624738  97.7450548  92.9732193  49.1604192
  93.7941274  87.4353015  56.2431196  92.9809139  87.7347185  56.6496388
  94.2900268  87.0408703  56.9605678  95.9449852  97.4310772  58.1765461
  95.9026030  97.6571618  57.2473993  96.8612550  97.1974146  58.3251262
  99.3915485  87.8994839  65.0746090  99.7464873  88.1266312  65.9340556
 100.0387617  88.2313216  64.4523345 105.1213222  91.0213275  55.7795419
 104.9831121  91.2114871  54.8516608 104.7649441  91.7832658  56.2363470
  93.2855348  85.0071370  61.8592431  93.9254728  84.8660129  61.1615394
  92.4532879  84.7205884  61.4831033 105.1482602  93.0889802  60.7906690
 105.5819109  92.9965091  61.6389744 105.8614183  93.0647302  60.1526706
  94.0615652  94.3073801  57.9727423  94.8556251  93.8124121  57.7709998
  93.3507345  93.7791664  57.6095129  98.8810497  96.6891896  62.3239791
  98.9347519  97.2582832  63.0917507  98.0125278  96.8593781  61.9593828
  90.3698416  88.4516882  54.0487176  89.4396004  88.3901338  54.2657138
  90.4655888  87.9292835  53.2523817  90.2883965  84.9771695  56.6365418
  90.5490782  85.8917028  56.5274578  91.1101137  84.5096138  56.7862031
  91.7608890  86.3909452  63.8064242  92.4331944  86.1826814  63.1576891
  90.9338677  86.1931538  63.3669475 106.0098151  93.1313503  63.3239576
 106.2034042  94.0359313  63.5698851 105.9098770  92.6720922  64.1578161
  97.6634462  83.0171393  65.8229903  97.0162377  83.7161343  65.7294380
  98.4335478  83.4507537  66.1906151 101.0713260  93.2820245  68.8980456
 100.9198767  93.0530797  67.9810540 101.0617940  94.2390847  68.9111801
  97.8398597  90.8552158  63.8826723  98.7690657  91.0063318  63.7095690
  97.4189627  90.9436179  63.0275369  96.6386928  94.8802823  61.6525261
  96.4998014  94.5121607  62.5251199  95.8501525  95.3950462  61.4809218
  97.2335080  99.9811919  52.9950797  97.4086836  99.5099962  53.8096420
  96.5467868 100.6077685  53.2232058  98.1892143  94.2584425  59.0414098
  97.8541976  94.2185195  59.9371748  97.6896089  93.5929141  58.5684509
  92.1636387  89.6652055  64.5666679  92.0256185  88.9332294  65.1678219
  93.0741311  89.5760955  64.2850867 101.1251335  91.6040460  49.3151158
 100.5080506  90.8787288  49.2184211 100.6567824  92.3649820  48.9718232
  94.7918688  89.3772015  64.0550359  95.5018307  88.7365207  64.0136978
  94.7487996  89.6284909  64.9776540 102.7805467  96.3139368  66.9756938
 102.7218013  95.6298588  66.3087521 103.1824985  97.0558358  66.5237564
  93.5047622  86.3637233  65.8745999  92.9684979  85.9127971  66.5267595
  92.9164331  86.4983141  65.1316463  91.7996166 103.1301282  59.7690657
  92.0392764 103.7619806  60.4469676  90.9565362 102.7789322  60.0556016
  92.9149881  85.8225884  48.4372462  92.0379347  85.7014685  48.0734709
  93.3907634  85.0311962  48.1851351 102.7822874  94.2778952  65.2070918
 101.8949653  93.9404874  65.3297317 103.3521425  93.5461983  65.4439683
  84.4352021  90.6103044  58.5313969  85.1223061  90.2964774  57.9434985
  84.2800150  91.5144408  58.2581221  89.2386743  85.4993240  62.9598993
  89.1544932  84.8918910  62.2249403  88.4169450  85.9902259  62.9608489
  96.3124027  98.9380404  62.1732161  96.2394199  99.7435376  62.6851466
  95.8701421  99.1372370  61.3480183  96.1013807  98.1752174  55.6834983
  95.3181329  98.7173854  55.7773207  96.8006552  98.6926154  56.0829224
  99.4110457  83.9846804  58.3269188  99.9079157  83.2316766  58.0070258
  98.6397439  84.0211120  57.7612397 107.2640215  89.6887169  59.9687480
 107.2530091  90.5711885  59.5981413 106.3957594  89.3358720  59.7742017
  98.7722711  98.8367238  64.3290320  99.4850683  99.4714703  64.2566221
  98.2812740  98.9331104  63.5130322 100.4940238  92.7418491  55.9007612
  99.5596517  92.8619953  55.7312316 100.6716906  91.8390958  55.6367621
  95.9945426  86.1264187  58.0540873  95.6243213  85.5735227  58.7421778
  96.4904518  85.5222320  57.5015873 103.8812789  88.5835810  56.4357646
 104.3473241  89.4163802  56.3617948 104.3320290  88.1180792  57.1402904
  93.8234625  96.5861682  65.1495891  94.5244084  97.2198165  65.3025285
  93.3529739  96.9276413  64.3891530 101.9489020  94.9279632  53.4343798
 102.2248864  94.8136226  54.3437672 101.0793519  94.5297116  53.3955971
 101.8529452  80.9516397  60.4748547 100.9392532  81.1820624  60.6430754
 102.2822553  81.0354841  61.3262579 101.6235910  89.1406289  62.9748441
 100.9707361  89.3882197  62.3200894 102.0016290  88.3270427  62.6410918
  98.5843084  99.1765982  57.0776611  98.7665479  98.3587638  57.5404364
  99.4076070  99.3933675  56.6401501  98.9185250  98.1034168  54.3391660
  99.4473016  97.5926622  53.7261822  99.1813469  97.7876698  55.2037193
  97.6723483  89.8826100  69.4614478  96.9964121  89.7820230  70.1316853
  98.4951117  89.7265314  69.9250475  89.4202343  96.1198037  62.0826993
  90.0055779  95.3741725  62.2154898  89.2227181  96.4301994  62.9663657
  92.2740998  99.1549284  57.0989436  91.6051373  99.6395412  56.6153476
  92.1353867  99.4018505  58.0132814  84.0119997  88.6903637  60.8031437
  84.0504097  88.1567228  61.5968555  83.5060290  88.1638843  60.1842414
  96.4146266 101.1893028  63.6972094  96.9664574 101.3524649  64.4621179
  96.7552460 101.7797466  63.0252119  91.3910760  83.5368178  64.2993979
  91.4552086  84.3983008  63.8871377  91.3277880  82.9242179  63.5666337
  90.8663032  85.6091310  67.9467013  91.4935071  85.2268387  68.5604537
  90.0090951  85.3905512  68.3122706 101.2657141  96.0154285  69.5520749
 101.8097045  96.6284243  69.0575703 100.6843986  96.5733864  70.0687762
  87.6428575  87.4167739  53.8785368  87.9382016  86.5078418  53.8252422
  86.7416611  87.3955479  53.5566370  99.5514654  99.1375003  60.6835776
  99.4265793  98.3364743  60.1746722 100.2093745  99.6321197  60.1949746
  91.1722822  85.4923736  59.8612917  90.4509408  86.1059703  59.7220390
  91.9616078  86.0281501  59.7829562 101.6149562  96.9384023  62.3115326
 100.6679898  96.8189374  62.2393653 101.9632335  96.0506521  62.3941588
  93.9749135  82.8278162  66.1353568  94.4983537  83.0740459  66.8979878
  93.7561469  83.6598197  65.7156706  89.3716416  85.0981837  54.0024693
  89.0429123  84.2179216  53.8199799  89.7255787  85.0429506  54.8901082
  98.6195995  96.7336740  58.5119679  98.4720958  95.8053447  58.6927249
  99.4449489  96.7556830  58.0276754  92.4858240  85.3854807  54.3700171
  92.8254312  85.9140728  53.6478779  92.9330360  85.7235213  55.1458737
 102.2230117  97.5565298  59.5984551 103.1476665  97.3508160  59.4609002
 102.0545421  97.3081699  60.5073893  95.1801680  83.7691857  63.8203239
  94.8398501  82.9699670  64.2223919  94.4740687  84.0693568  63.2480072
  95.8318152  80.8541170  62.2730562  96.6544222  80.3801648  62.1509452
  96.0756216  81.6331654  62.7729248  94.4726387  83.8829428  52.5693464
  95.1934749  84.2610681  52.0657180  93.8491691  84.6018305  52.6728441
  98.6157510  84.5874577  53.5051796  98.8321124  85.4699215  53.2040624
  98.1351577  84.1960791  52.7757438  93.3556731  87.5460290  60.0822540
  93.2101312  87.8600593  60.9746822  92.8781935  88.1645191  59.5293439
  95.2153114  84.5362838  60.1303430  95.2014683  83.6403932  59.7935728
  95.9325542  84.5433502  60.7641716  97.0679245  84.9700179  62.1756557
  96.8097022  85.8917249  62.1740888  96.5364285  84.5730613  62.8657022
 102.0125433  98.0750966  54.9546643 102.1862311  97.5097388  54.2020495
 102.5054325  98.8751861  54.7726133  87.8302393  90.0865635  63.0210202
  87.2855861  90.8625443  63.1530476  88.7081743  90.4336439  62.8629323
  94.6190010  83.4177219  55.3991000  94.7405921  82.4893865  55.5981888
  94.3292052  83.4315905  54.4869316  97.4881200  81.1032129  58.5357720
  97.5102897  81.1671462  57.5809700  97.9049259  80.2636638  58.7298226
 107.8664825  90.8387389  56.5736943 108.3095971  90.0894714  56.1756066
 106.9891335  90.8297525  56.1910675 103.0000606  97.3917730  52.0543541
 103.6951510  98.0124423  52.2730856 103.3423756  96.5413081  52.3295919
  88.6168415  89.2135531  65.9140358  87.8750151  89.3618166  66.5004989
  88.2961159  89.4743797  65.0507108 104.8992029  94.8417436  53.5830872
 105.4243353  95.1804708  52.8580192 104.8114382  93.9064451  53.3994006
  96.5612078  98.7551509  65.7120748  96.8699204  98.5100656  66.5843448
  97.3587560  98.9598148  65.2239619  96.5832690 100.9089419  57.9426125
  96.1437680 100.4165798  58.6358982  97.3340807 100.3662387  57.7018200
  89.0625029  97.1000960  57.9450753  89.8883049  96.8004732  57.5649397
  88.7119081  96.3308582  58.3940542  94.0306562  96.4527428  60.0148427
  93.4086571  95.7898133  59.7150655  94.7011429  96.4788560  59.3322074
  87.2633634  95.0187286  58.9039687  86.4265542  94.5909461  58.7223688
  87.2357279  95.2119730  59.8410478  94.1031089  84.9309216  69.6080933
  94.1519245  85.8071339  69.2258702  94.6453604  84.3886609  69.0352576
 104.5885935  95.4750339  68.8882070 103.7981479  95.4574478  68.3486569
 104.3519290  96.0138633  69.6431106 104.7083810  92.3242806  66.2014798
 104.7581815  92.1592813  67.1430321 104.5997733  91.4570065  65.8112679
  93.5920069  95.0031351  53.4906887  93.7408189  95.6866816  52.8373560
  94.3986512  94.9836441  54.0056343 101.9987573  88.3073734  67.5174105
 102.8997435  88.1680199  67.2258103 102.0735547  88.4728189  68.4572282
  96.3330378  85.6840588  66.3627291  95.4633687  85.9774154  66.0909880
  96.5689858  86.2681033  67.0834555 106.2102007  94.7439747  66.4456820
 105.9186815  95.1069728  67.2820281 105.5974138  94.0306755  66.2670152
 107.4097689  92.3092627  58.9659390 108.2444581  92.7482431  59.1296950
 107.5456818  91.8331280  58.1467636 104.4589195  89.8672362  64.9136878
 104.9343317  90.0600008  64.1055729 103.5354761  89.9231548  64.6680262
  91.3472702  91.0296529  54.4967956  91.1018744  90.1258859  54.6948166
  91.5168616  91.0313679  53.5547434  99.0369412  81.9020205  63.8792712
  99.5551356  82.6381232  63.5539200  98.6824544  82.2084199  64.7139471
  90.6168349  86.7624887  51.9954118  89.9237594  86.8369242  51.3394154
  90.3720101  85.9985230  52.5175635  99.2882006  78.3220488  59.3993608
  99.5683760  77.6543677  60.0254035 100.0732613  78.5149584  58.8868272
  97.0915474  97.4979482  50.9618635  96.5189441  98.1169669  50.5089107
  97.6648268  98.0478843  51.4958557 103.1590864  86.7438122  63.1465183
 104.1108287  86.8436220  63.1677408 102.9894315  85.9516390  63.6563268
 101.1805244  83.8293705  63.3324584 100.5855176  84.1098718  62.6371073
 100.8954940  84.3187606  64.1041326 100.3112734  97.7816632  52.0927217
 101.2443407  97.7162194  52.2960092 100.2235947  98.6172899  51.6341750
 102.9400751  97.0982502  49.0531165 102.8614382  96.7642366  49.9466922
 103.7610418  97.5904270  49.0522637 105.6378942  89.9644242  62.2607483
 105.6055262  89.0260242  62.4467167 106.2479566  90.0428278  61.5273308
  97.4762273  88.8340295  48.3034687  98.4221378  88.7046503  48.3723105
  97.0976518  88.0954956  48.7804115 105.7873430  86.7555285  62.3065766
 105.2712479  85.9713742  62.1195695 106.6713379  86.4274002  62.4712286
 103.4484157  80.4996301  58.2661579 103.2508979  80.1911389  59.1504911
 104.0583863  81.2257939  58.3959509 111.4555492  91.0260248  61.4013520
 112.1858880  90.7645537  61.9621223 110.8462437  90.2888970  61.4415588
 109.5370789  89.1668111  61.9987971 108.8103953  89.0324076  61.3904463
 109.1218076  89.4744940  62.8044689  97.3600965  92.8858041  69.7635344
  98.2803975  93.0636640  69.9575391  97.3250548  91.9414086  69.6115043
  95.6605190  86.7590271  48.2389572  94.7536645  86.4623384  48.3152286
  95.9381171  86.4620089  47.3723859  86.5783130  88.0796634  58.6888619
  86.2585915  87.2261943  58.3962993  86.0316559  88.2945212  59.4446586
  90.3563038  90.7959075  62.4058125  90.5749048  91.7276183  62.4246159
  90.7688812  90.4367050  63.1912929  97.2767256  81.3027161  54.3933814
  96.4667984  80.9574246  54.7689060  97.9651673  80.9934704  54.9821425
  99.2057804  80.3805207  56.0158110  99.7588843  80.8000661  56.6748133
  99.4427890  79.4540956  56.0581066  95.2290903  86.3692281  71.7960874
  95.1287630  87.3186638  71.7272965  95.0112445  86.0410520  70.9236944
  94.4303975  83.6177206  48.3801552  95.2923139  83.9432104  48.6397369
  94.6154319  82.8308702  47.8674617  86.4471390  91.6999546  60.6581740
  85.7534862  91.2853499  60.1451695  87.1944381  91.7420082  60.0615159
 102.5836611  82.4905733  55.5236775 102.0035280  83.1490537  55.1414827
 102.3172544  81.6683077  55.1124192 101.0340177  81.8910790  57.7258095
 101.5339956  82.0027325  56.9172414 101.6775785  81.5871843  58.3658903
  95.0922173  89.7989420  70.6125936  94.6089255  90.5989780  70.8189825
  95.1783112  89.8097365  69.6593380  88.3608133  91.6317800  58.5347755
  88.3378821  91.7305487  57.5829638  88.6708769  92.4782950  58.8564921
  91.0195511  93.6893955  62.6494370  91.9738764  93.6577897  62.5824301
  90.8208034  93.2284578  63.4644596  91.6094893  92.2595071  65.2165167
  92.4287782  92.7539149  65.2400005  91.8831701  91.3427039  65.1882735
 101.3661489  84.6505823  54.5793123 100.4787344  84.9355474  54.3613318
 101.7815478  84.4899586  53.7320400 104.7176025  84.6752344  58.2947462
 105.4936415  85.1648796  58.5672079 103.9924159  85.1010398  58.7519332
 107.1548584  85.3879963  59.3521403 107.7493075  85.1475699  58.6414711
 107.2275168  84.6687094  59.9794939  89.3745740  99.2313574  59.6664568
  89.2400207  98.4713975  59.1002566  88.9577802  99.9554474  59.1993356
 100.5104703  94.4150498  48.6741143 101.2140553  94.6200500  49.2898798
  99.7867351  94.9827260  48.9390226 101.3402513  90.1660359  54.7943413
 101.2837714  90.6228910  53.9551045 101.8930855  89.4051044  54.6166256
 105.1507319  85.9550091  55.6193533 104.8944253  85.5546726  56.4501740
 104.5260187  86.6693885  55.4943672 109.4619657  88.6946164  58.1264824
 108.9019215  88.7639353  58.8996386 108.8563160  88.5187149  57.4064320
  92.5314865 100.1282891  59.8783010  92.4147250 101.0728324  59.7761700
  91.7107312  99.8256453  60.2668809 102.4191400  94.8533027  50.7239603
 103.2537004  94.4214225  50.5417078 102.2575743  94.6815041  51.6516497
 102.0737292  91.3565140  52.0895942 102.0186096  91.1909412  51.1484386
 101.4483347  92.0641173  52.2458132  86.8629807  86.5933205  65.9157364
  87.5088671  86.0832159  66.4044590  86.6546958  87.3301886  66.4900790
  99.3883199  93.6614052  71.4149505 100.2574359  93.8354704  71.0536140
  98.9089951  94.4808469  71.2925234  95.3833418  80.8573249  51.6681261
  95.3712087  81.8015089  51.8249531  96.2756839  80.6743395  51.3740722
  93.5569380 100.7811153  63.0938939  94.4596626 100.8134763  63.4105434
  93.3306750  99.8511604  63.1085274  95.3122982  99.5342140  59.7549017
  94.3618613  99.5344001  59.6413390  95.6155468  98.7874874  59.2385052
  99.1985537  77.4516026  55.9227197  98.4317933  76.8974513  56.0683880
  99.6096242  77.5237895  56.7841349  91.2027298  83.7400822  70.0132379
  92.0658760  83.3837626  70.2235703  90.6292709  83.4014716  70.7007783
 111.0475675 105.3702678  60.8194780 111.6854085 105.2509425  60.1158120
 110.9296518 106.3183522  60.8782732 107.8565381 105.3230106  60.7556304
 107.5183893 105.2071171  59.8676839 108.7255150 104.9221271  60.7357310
 103.7152197 107.1765583  56.7453195 103.1517062 107.0855519  55.9769483
 103.6004592 106.3565487  57.2255688 108.3385164 106.4764958  66.7142510
 108.3273805 106.0817756  65.8423014 108.5005804 105.7431030  67.3076281
 101.2616629 108.6716774  59.5837416 102.0537921 108.3307599  59.1683715
 101.5013279 108.7811749  60.5039569 103.2207383 107.9325687  52.4554795
 103.9938259 107.3854674  52.3167670 103.5732782 108.7969937  52.6669256
 105.0592425 109.2602070  65.6621694 104.7682291 110.1647700  65.5468360
 105.6949410 109.3018597  66.3765763 105.9848632 106.6378918  62.2523053
 106.5812205 106.4134941  61.5380016 106.0423604 105.8963664  62.8548501
 105.5573661 104.0918353  50.0873244 105.8099181 103.5699875  49.3256707
 104.6198220 103.9284499  50.1899928 110.6016944 103.0954132  57.8947988
 111.3880033 102.6773555  57.5438405 110.8655648 104.0000224  58.0629636
 105.2769949 105.9946459  52.2897619 105.1606208 105.3191363  52.9578704
 105.3872209 105.5078833  51.4729772 107.6201490 105.4556607  55.9944309
 107.2559698 104.9287228  56.7057230 108.4768606 105.0655076  55.8210794
 113.5250791  96.7450939  63.2575575 113.1934116  97.6146350  63.0336790
 112.9296404  96.4287223  63.9369605 107.2606977 100.4846506  50.9905657
 107.4281380 101.3526743  51.3576128 107.0704146 100.6473788  50.0666946
 103.4694792 105.3977282  58.6908192 102.5445289 105.2653496  58.8985884
 103.7179205 106.1771501  59.1878134 113.4179454 101.4646025  60.3368925
 112.5096332 101.3961434  60.0427686 113.3667050 101.9417970  61.1650750
 107.2396198 102.9404164  51.9752324 107.1195823 103.3861214  52.8137804
 106.5448787 103.2889481  51.4165862 100.8303603 105.0410556  59.5251981
 100.9595984 105.2945034  60.4391393 100.1501054 105.6338264  59.2056636
 107.4920320 102.8835671  68.2803822 106.7153654 103.4429591  68.2706687
 108.1310883 103.3692454  68.8018692 115.2841101  99.6662464  62.1146799
 114.6415481  99.9594997  61.4686593 114.7796029  99.5515384  62.9199995
 112.9381264 103.4125637  52.8032658 113.8499121 103.6453024  52.6280356
 112.4290911 103.9962681  52.2407737 105.7466692 105.6921124  67.8421789
 106.4881377 106.2306168  67.5656613 105.0403678 106.3187413  67.9993341
 107.5753102 102.7722872  63.8127508 108.4214297 103.1962285  63.9562157
 107.5151740 102.1156496  64.5066071 110.7252547 100.4327240  65.4708681
 110.4813479 101.1869300  64.9342957 111.0012478 100.8112587  66.3055928
 110.2817239  99.5883673  61.0522519 109.4201718  99.8864926  61.3439256
 110.3079674  99.8054072  60.1203552 107.0978809 108.1325863  57.4596325
 107.5617154 108.4113566  56.6700947 106.8335607 107.2309308  57.2769415
 103.9902890 107.6797345  60.3976088 104.5604247 108.1084613  59.7593572
 104.5811002 107.3979930  61.0960274 106.0347695 104.2549016  54.2685890
 106.7371738 104.7070059  54.7359816 105.7028323 103.6132835  54.8965783
 104.4828056 102.8460772  68.6437099 103.8526717 103.5277053  68.8772496
 104.3764144 102.7343854  67.6990237  99.7773029 102.5132568  59.5703023
  98.9872083 102.7690097  59.0943134 100.2684276 103.3280906  59.6755064
 101.7287774 102.8777148  56.5286500 100.9318937 102.9895842  57.0469996
 101.5013366 103.2163800  55.6627391  98.0610732 102.7663059  62.0018014
  98.3118770 103.6510069  62.2675590  98.5970280 102.5867660  61.2293106
 103.7608799  97.1481538  71.0062350 103.3675744  96.5947737  71.6809994
 104.5774939  97.4592117  71.3968868 100.7270857 108.5865396  54.9175920
 101.2395377 109.3808647  55.0681485 101.3793569 107.8891687  54.8509521
 106.6776760  98.5639417  68.5982607 107.4186473  99.1646571  68.5187069
 106.9094683  97.8217055  68.0400649 101.8218098 103.7495785  66.8760836
 101.7071613 102.8481042  67.1767935 100.9662616 103.9959481  66.5245653
 110.6233923  94.5920520  62.8746888 110.2798192  95.4822162  62.7985999
 110.9912885  94.4022178  62.0116473  98.6919773 106.9154051  55.6935491
  99.5294995 107.3251059  55.4769198  98.8698041 105.9753493  55.6635684
 110.5884206 104.5829131  51.3819324 110.0730829 105.3533736  51.6207711
 110.3161514 103.9094268  52.0052385 108.1731317  99.4278832  56.4404562
 107.3172913  99.0385683  56.2610201 108.5858268  99.5070793  55.5804347
 109.7030463  96.9625175  60.8396122 109.1995259  96.9255311  60.0263927
 109.9961070  97.8717918  60.8992778 105.9473349  97.0463905  59.8462303
 106.8126346  96.8506714  59.4868193 106.0150858  96.8174257  60.7731660
 110.3770509 102.4556224  53.2079105 110.0720644 102.7702373  54.0589248
 111.3300951 102.5337643  53.2506438 103.5535668  99.2766113  57.2178670
 104.1279420  99.0541295  56.4851863 104.1406651  99.3454808  57.9707272
 103.8805255 101.3070574  51.2374555 103.0442568 101.6445261  51.5583830
 103.7410025 101.1719554  50.3001692 105.8558336  96.1507362  55.9453740
 105.2022748  95.8356379  55.3210354 105.8138810  95.5283102  56.6713563
 106.9669541 106.4326657  47.8607032 106.0596602 106.2015911  48.0598181
 107.4640573 105.6364276  48.0481013 109.0896076 102.6389296  60.2701387
 108.1718638 102.8604243  60.1123075 109.5056220 102.7135606  59.4113095
 109.8731124 104.0380711  55.4004068 110.6202943 104.5502108  55.0911190
 110.1422714 103.7164764  56.2608461 108.1457774 106.5339252  52.3831022
 107.2368993 106.2498285  52.4803492 108.1752858 106.9538331  51.5234329
 112.3209961 101.0737828  57.3822857 111.5832718 100.5615214  57.7133099
 112.5736735 100.6338209  56.5706134 112.4221588  93.8514080  57.9764626
 112.7280465  92.9911443  57.6890541 113.1474193  94.4431700  57.7763620
  98.7145945 104.2544766  56.3646224  98.5170344 103.6614127  55.6397291
  98.1592609 103.9496976  57.0822163 106.6942668 104.1467873  58.4840817
 106.7491278 103.1941709  58.4083294 105.8833870 104.3027312  58.9682116
 104.6335028 102.7644932  56.2431196 103.8202894 103.0639103  56.6496388
 105.1294022 102.3700621  56.9605678 110.2309240 103.2286757  65.0746090
 110.5858628 103.4558230  65.9340556 110.8781371 103.5605134  64.4523345
 104.1249103 100.3363288  61.8592431 104.7648482 100.1952047  61.1615394
 103.2926633 100.0497801  61.4831033 104.9009407 109.6365718  57.9727423
 105.6950005 109.1416038  57.7709998 104.1901099 109.1083581  57.6095129
 101.2092170 103.7808800  54.0487176 100.2789758 103.7193255  54.2657138
 101.3049642 103.2584753  53.2523817 101.1277719 100.3063613  56.6365418
 101.3884537 101.2208946  56.5274578 101.9494892  99.8388055  56.7862031
 102.6002645 101.7201370  63.8064242 103.2725698 101.5118732  63.1576891
 101.7732431 101.5223456  63.3669475 108.5028217  98.3463311  65.8229903
 107.8556132  99.0453261  65.7294380 109.2729232  98.7799455  66.1906151
 108.6792351 106.1844076  63.8826723 109.6084411 106.3355235  63.7095690
 108.2583381 106.2728097  63.0275369 103.0030142 104.9943973  64.5666679
 102.8649940 104.2624212  65.1678219 103.9135065 104.9052873  64.2850867
 105.6312443 104.7063932  64.0550359 106.3412061 104.0657124  64.0136978
 105.5881751 104.9576827  64.9776540 104.3441377 101.6929150  65.8745999
 103.8078734 101.2419889  66.5267595 103.7558085 101.8275059  65.1316463
 103.7543636 101.1517802  48.4372462 102.8773102 101.0306602  48.0734709
 104.2301389 100.3603880  48.1851351  95.2745776 105.9394961  58.5313969
  95.9616815 105.6256691  57.9434985  95.1193904 106.8436326  58.2581221
 100.0780498 100.8285158  62.9598993  99.9938687 100.2210827  62.2249403
  99.2563204 101.3194176  62.9608489 110.2504212  99.3138721  58.3269188
 110.7472911  98.5608684  58.0070258 109.4791193  99.3503038  57.7612397
 106.8339180 101.4556104  58.0540873 106.4636968 100.9027145  58.7421778
 107.3298273 100.8514238  57.5015873 112.6923206  96.2808315  60.4748547
 111.7786286  96.5112542  60.6430754 113.1216308  96.3646759  61.3262579
 112.4629665 104.4698207  62.9748441 111.8101115 104.7174114  62.3200894
 112.8410045 103.6562345  62.6410918 108.5117238 105.2118018  69.4614478
 107.8357875 105.1112147  70.1316853 109.3344872 105.0557232  69.9250475
 100.2596097 111.4489954  62.0826993 100.8449534 110.7033642  62.2154898
 100.0620936 111.7593911  62.9663657  94.8513752 104.0195555  60.8031437
  94.8897851 103.4859145  61.5968555  94.3454045 103.4930760  60.1842414
 102.2304514  98.8660095  64.2993979 102.2945841  99.7274926  63.8871377
 102.1671634  98.2534097  63.5666337 101.7056787 100.9383228  67.9467013
 102.3328825 100.5560305  68.5604537 100.8484705 100.7197430  68.3122706
  98.4822329 102.7459657  53.8785368  98.7775770 101.8370335  53.8252422
  97.5810365 102.7247396  53.5566370 102.0116576 100.8215653  59.8612917
 101.2903162 101.4351621  59.7220390 102.8009832 101.3573418  59.7829562
 104.8142890  98.1570080  66.1353568 105.3377292  98.4032376  66.8979878
 104.5955223  98.9890115  65.7156706 100.2110171 100.4273754  54.0024693
  99.8822877  99.5471133  53.8199799 100.5649542 100.3721423  54.8901082
 103.3251994 100.7146724  54.3700171 103.6648067 101.2432646  53.6478779
 103.7724115 101.0527130  55.1458737 106.0195435  99.0983775  63.8203239
 105.6792255  98.2991588  64.2223919 105.3134441  99.3985486  63.2480072
 106.6711907  96.1833087  62.2730562 107.4937976  95.7093566  62.1509452
 106.9149970  96.9623571  62.7729248 105.3120141  99.2121346  52.5693464
 106.0328504  99.5902599  52.0657180 104.6885445  99.9310223  52.6728441
 109.4551264  99.9166495  53.5051796 109.6714879 100.7991133  53.2040624
 108.9745331  99.5252708  52.7757438 104.1950486 102.8752208  60.0822540
 104.0495066 103.1892511  60.9746822 103.7175689 103.4937108  59.5293439
 106.0546868  99.8654756  60.1303430 106.0408437  98.9695849  59.7935728
 106.7719297  99.8725420  60.7641716 107.9072999 100.2992096  62.1756557
 107.6490777 101.2209167  62.1740888 107.3758039  99.9022531  62.8657022
  98.6696148 105.4157552  63.0210202  98.1249616 106.1917360  63.1530476
  99.5475498 105.7628357  62.8629323 105.4583764  98.7469136  55.3991000
 105.5799676  97.8185783  55.5981888 105.1685807  98.7607822  54.4869316
 108.3274955  96.4324047  58.5357720 108.3496652  96.4963380  57.5809700
 108.7443014  95.5928555  58.7298226  99.4562170 104.5427449  65.9140358
  98.7143906 104.6910084  66.5004989  99.1354914 104.8035714  65.0507108
  99.9018783 112.4292877  57.9450753 100.7276803 112.1296649  57.5649397
  99.5512835 111.6600500  58.3940542  98.1027388 110.3479204  58.9039687
  97.2659297 109.9201378  58.7223688  98.0751034 110.5411647  59.8410478
 104.9424844 100.2601134  69.6080933 104.9912999 101.1363257  69.2258702
 105.4847358  99.7178527  69.0352576 112.8381327 103.6365651  67.5174105
 113.7391190 103.4972116  67.2258103 112.9129302 103.8020106  68.4572282
 107.1724132 101.0132506  66.3627291 106.3027442 101.3066072  66.0909880
 107.4083613 101.5972951  67.0834555 102.1866456 106.3588447  54.4967956
 101.9412498 105.4550777  54.6948166 102.3562371 106.3605597  53.5547434
 109.8763166  97.2312123  63.8792712 110.3945110  97.9673150  63.5539200
 109.5218299  97.5376116  64.7139471 101.4562104 102.0916804  51.9954118
 100.7631349 102.1661159  51.3394154 101.2113856 101.3277148  52.5175635
 110.1275760  93.6512406  59.3993608 110.4077514  92.9835595  60.0254035
 110.9126367  93.8441501  58.8868272 113.9984619 102.0730040  63.1465183
 114.9502042 102.1728137  63.1677408 113.8288069 101.2808308  63.6563268
 112.0198998  99.1585623  63.3324584 111.4248930  99.4390635  62.6371073
 111.7348695  99.6479524  64.1041326 108.3156027 104.1632212  48.3034687
 109.2615132 104.0338420  48.3723105 107.9370272 103.4246874  48.7804115
 116.6267185 102.0847203  62.3065766 116.1106234 101.3005659  62.1195695
 117.5107133 101.7565919  62.4712286 114.2877912  95.8288218  58.2661579
 114.0902733  95.5203306  59.1504911 114.8977617  96.5549857  58.3959509
 106.4998944 102.0882189  48.2389572 105.5930400 101.7915301  48.3152286
 106.7774925 101.7912007  47.3723859  97.4176885 103.4088552  58.6888619
  97.0979669 102.5553860  58.3962993  96.8710313 103.6237130  59.4446586
 101.1956792 106.1250993  62.4058125 101.4142802 107.0568101  62.4246159
 101.6082566 105.7658967  63.1912929 108.1161010  96.6319078  54.3933814
 107.3061739  96.2866163  54.7689060 108.8045427  96.3226622  54.9821425
 110.0451558  95.7097125  56.0158110 110.5982597  96.1292579  56.6748133
 110.2821645  94.7832873  56.0581066 106.0684658 101.6984199  71.7960874
 105.9681385 102.6478556  71.7272965 105.8506200 101.3702438  70.9236944
 105.2697729  98.9469124  48.3801552 106.1316893  99.2724022  48.6397369
 105.4548073  98.1600620  47.8674617  97.2865145 107.0291464  60.6581740
  96.5928616 106.6145416  60.1451695  98.0338136 107.0712000  60.0615159
 113.4230366  97.8197650  55.5236775 112.8429035  98.4782454  55.1414827
 113.1566298  96.9974995  55.1124192 111.8733932  97.2202708  57.7258095
 112.3733710  97.3319243  56.9172414 112.5169540  96.9163761  58.3658903
 105.9315928 105.1281338  70.6125936 105.4483009 105.9281698  70.8189825
 106.0176867 105.1389282  69.6593380  99.2001887 106.9609717  58.5347755
  99.1772575 107.0597405  57.5829638  99.5102524 107.8074868  58.8564921
 101.8589265 109.0185872  62.6494370 102.8132519 108.9869815  62.5824301
 101.6601789 108.5576496  63.4644596 102.4488647 107.5886988  65.2165167
 103.2681536 108.0831067  65.2400005 102.7225455 106.6718957  65.1882735
 112.2055244  99.9797741  54.5793123 111.3181099 100.2647391  54.3613318
 112.6209233  99.8191504  53.7320400 115.5569780 100.0044262  58.2947462
 116.3330170 100.4940714  58.5672079 114.8317914 100.4302316  58.7519332
 115.9901073 101.2842008  55.6193533 115.7338007 100.8838644  56.4501740
 115.3653941 101.9985802  55.4943672  97.7023562 101.9225122  65.9157364
  98.3482425 101.4124076  66.4044590  97.4940713 102.6593804  66.4900790
 106.2227172  96.1865167  51.6681261 106.2105842  97.1307007  51.8249531
 107.1150594  96.0035312  51.3740722 110.0379292  92.7807943  55.9227197
 109.2711687  92.2266430  56.0683880 110.4489997  92.8529812  56.7841349
 102.0421053  99.0692739  70.0132379 102.9052514  98.7129544  70.2235703
 101.4686463  98.7306634  70.7007783  38.6789671  -7.7923801  43.4698502
  38.1154536  -7.8833864  42.7014790  38.5642066  -8.6123897  43.9500994
  36.2254103  -6.2972609  46.3082722  37.0175395  -6.6381785  45.8929022
  36.4650753  -6.1877634  47.2284876  44.2589230  -4.1252833  38.7812967
  43.6077210  -3.5398753  38.3946981  45.0533593  -3.5946638  38.8408004
  38.1844857  -7.0363696  39.1800101  38.9575733  -7.5834709  39.0412977
  38.5370256  -6.1719447  39.3914563  40.0229900  -5.7087314  52.3867000
  39.7319766  -4.8041683  52.2713667  40.6586884  -5.6670786  53.1011070
  40.9486107  -8.3310465  48.9768360  41.5449679  -8.5554443  48.2625323
  41.0061078  -9.0725720  49.5793808  45.7364495  -6.4362401  39.3181951
  45.1010328  -6.3627775  40.0302856  45.4061902  -5.8468802  38.6401030
  40.2407424  -8.9742924  39.0142926  40.1243682  -9.6498021  39.6824010
  40.3509684  -9.4610550  38.1975079  44.9819785  -6.0225898  49.3816794
  44.6820508  -5.1200860  49.2732601  44.6370844  -6.2893715  50.2337947
  39.9640565   0.7418422  42.3487762  39.8864594   1.6926247  42.4276242
  39.3602208   0.3964295  43.0062688  40.7104167  -9.2768259  54.5667096
  41.4518851  -8.7383215  54.2901919  40.0041152  -8.6501970  54.7238648
  46.5088321  -6.5737928  46.9191546  45.8797183  -6.4092214  46.2167614
  46.1213983  -6.1596319  47.6902510  50.3877553  -5.6383490  44.2735910
  49.7028591  -5.2584589  43.7232943  50.4721402  -5.0288164  45.0067858
  42.0616283  -6.8363520  44.1841631  42.5254628  -6.5575817  43.3946254
  41.7973081  -7.7380075  44.0014722  38.9540364  -7.2892038  47.1221394
  39.5241721  -6.8604770  46.4838879  39.5448476  -7.5709454  47.8205580
  48.7574312  -5.1151576  49.0453611  49.5791756  -5.5171389  48.7636292
  48.7536715  -5.2183342  49.9969727  42.5230916  -5.5667533  51.2014321
  42.5875348  -5.1047125  52.0372493  41.8141840  -6.1970168  51.3296631
  42.2378934  -3.8999425  41.0693302  42.1024608  -3.0547889  41.4978149
  42.7788746  -3.6980147  40.3059235  35.6908331  -6.3823987  41.6421227
  36.2032852  -5.5880737  41.7926791  36.3431044  -7.0797697  41.5754828
  37.5003216  -3.2658231  43.7243980  37.6769844  -2.3440266  43.5364964
  38.2960049  -3.5799811  44.1538360  43.8647410  -3.2775859  55.1993644
  43.4211264  -4.0639480  54.8814548  44.5264624  -3.0896708  54.5337534
  38.6234531  -1.7480057  49.7254322  39.1741956  -1.8762994  48.9531316
  37.7846007  -1.4485168  49.3749215  45.9628648  -2.9973059  53.2275045
  45.9447123  -2.1764178  52.7355314  46.8848568  -3.1218983  53.4525186
  42.4201702  -5.4828929  54.0698553  42.9530039  -6.2440641  53.8397861
  41.8915783  -5.7755277  54.8122708  43.7854415  -6.3542937  41.5817365
  43.2575776  -7.0890177  41.2690603  43.2841918  -5.5768260  41.3357334
  44.8375094   0.1734781  37.5049025  44.1636793   0.4766478  38.1133982
  45.2240916   0.9763861  37.1554482  43.1095249  -8.4350131  39.1076328
  42.2006468  -8.7191099  39.2048798  43.1390332  -8.0151053  38.2479635
  48.3414516  -4.8243542  42.8767496  47.8876843  -5.6652632  42.9332686
  47.7108483  -4.1882144  43.2142276  46.7847455  -2.9867045  43.8117314
  47.0770430  -2.4261988  43.0929680  47.2946076  -2.6938484  44.5670473
  42.8071336  -6.8941388  36.4464407  42.3690766  -7.6105529  35.9870044
  43.5481777  -6.6665273  35.8849498  41.7481080  -2.2086694  44.9010767
  41.7057259  -1.9825848  43.9719299  42.6643779  -2.4423320  45.0496569
  39.8646881  -5.3323665  44.6972730  40.6587480  -5.8273345  44.4955305
  39.1538574  -5.8605802  44.3340436  44.6841726  -2.9505570  49.0485098
  44.7378748  -2.3814633  49.8162814  43.8156507  -2.7803685  48.6839135
  46.8744489  -6.3577220  55.6225763  46.7229995  -6.5866669  54.7055847
  46.8649168  -5.4006619  55.6357108  42.4418157  -4.7594643  48.3770567
  42.3029243  -5.1275859  49.2496505  41.6532753  -4.2447004  48.2054525
  43.0366309   0.3414453  39.7196104  43.2118065  -0.1297504  40.5341726
  42.3499097   0.9680219  39.9477364  43.9923372  -5.3813041  45.7659405
  43.6573205  -5.4212271  46.6617055  43.4927318  -6.0468325  45.2929815
  48.5836696  -3.3258098  53.7002245  48.5249242  -4.0098878  53.0332828
  48.9856214  -2.5839108  53.2482871  37.6027394   3.4903816  46.4935964
  37.8423993   4.1222340  47.1714982  36.7596591   3.1391856  46.7801323
  48.5854103  -5.3618514  51.9316225  47.6980882  -5.6992592  52.0542624
  49.1552654  -6.0935483  52.1684990  42.1155256  -0.7017062  48.8977468
  42.0425428   0.1037910  49.4096772  41.6732649  -0.5025096  48.0725489
  41.9045036  -1.4645292  42.4080289  41.1212558  -0.9223611  42.5018514
  42.6037781  -0.9471312  42.8074531  44.5753940  -0.8030228  51.0535627
  45.2881912  -0.1682763  50.9811528  44.0843968  -0.7066362  50.2375628
  39.6265853  -3.0535784  51.8741197  40.3275313  -2.4199301  52.0270592
  39.1560968  -2.7121053  51.1136837  47.7520249  -4.7117834  40.1589104
  48.0280093  -4.8261240  41.0682978  46.8824748  -5.1100349  40.1201277
  44.3874313  -0.4631483  43.8021918  44.5696708  -1.2809827  44.2649670
  45.2107299  -0.2463791  43.3646808  44.7216479  -1.5363298  41.0636966
  45.2504245  -2.0470844  40.4507129  44.9844698  -1.8520768  41.9282499
  35.2233571  -3.5199429  48.8072300  35.8087008  -4.2655741  48.9400204
  35.0258410  -3.2095472  49.6908964  38.0772227  -0.4848182  43.8234742
  37.4082602  -0.0002054  43.3398782  37.9385096  -0.2378961  44.7378121
  42.2177495   1.5495562  50.4217401  42.7695803   1.7127183  51.1866486
  42.5583689   2.1400000  49.7497426  47.0688370  -3.6243181  56.2766055
  47.6128273  -3.0113222  55.7821010  46.4875214  -3.0663602  56.7933068
  45.3545882  -0.5022463  47.4081083  45.2297022  -1.3032723  46.8992028
  46.0124974  -0.0076269  46.9195053  47.4180791  -2.7013442  49.0360633
  46.4711126  -2.8208091  48.9638960  47.7663564  -3.5890944  49.1186894
  44.4227224  -2.9060726  45.2364985  44.2752187  -3.8344019  45.4172555
  45.2480718  -2.8840636  44.7522060  48.0261346  -2.0832168  46.3229858
  48.9507893  -2.2889306  46.1854309  47.8576649  -2.3315766  47.2319199
  47.8156662  -1.5646500  41.6791949  47.9893540  -2.1300078  40.9265802
  48.3085553  -0.7645605  41.4971439  48.8031835  -2.2479736  38.7788848
  49.4982739  -1.6273043  38.9976162  49.1454985  -3.0984384  39.0541226
  50.7023258  -4.7980030  40.3076178  51.2274582  -4.4592757  39.5825499
  50.6145610  -5.7333015  40.1239313  42.3643306  -0.8845956  52.4366055
  42.6730433  -1.1296810  53.3088755  43.1618789  -0.6799318  51.9484925
  42.3863919   1.2691953  44.6671432  41.9468909   0.7768332  45.3604288
  43.1372036   0.7264921  44.4263507  34.8656258  -2.5396506  44.6696060
  35.6914277  -2.8392734  44.2894703  34.5150310  -3.3088884  45.1185848
  39.8337791  -3.1870038  46.7393733  39.2117800  -3.8499333  46.4395961
  40.5042658  -3.1608906  46.0567381  50.3917164  -4.1647127  55.6127376
  49.6012708  -4.1822988  55.0731876  50.1550518  -3.6258833  56.3676413
  39.3951298  -4.6366114  40.2152194  39.5439418  -3.9530650  39.5618867
  40.2017741  -4.6561024  40.7301650  52.0133236  -4.8957719  53.1702127
  51.7218044  -4.5327738  54.0065587  51.4005367  -5.6090710  52.9915459
  42.8946703  -2.1417984  37.6863941  42.3220670  -1.5227797  37.2334413
  43.4679497  -1.5918622  38.2203863  46.1143963  -1.8580834  38.8172524
  47.0474636  -1.9235272  39.0205399  46.0267176  -1.0224567  38.3587056
  48.7431980  -2.5414964  35.7776471  48.6645611  -2.8755100  36.6712229
  49.5641646  -2.0493196  35.7767943  43.1632194  -6.7539425  56.4880651
  44.0835204  -6.5760826  56.6820697  43.1281777  -7.6983380  56.3360350
  36.8226740  -5.9503511  49.3739676  37.7769993  -5.9819569  49.3069608
  36.6239263  -6.4112887  50.1889902  37.4126122  -7.3802395  51.9410474
  38.2319011  -6.8858316  51.9645311  37.6862929  -8.2970427  51.9128041
  35.1776968  -0.4083892  46.3909874  35.0431436  -1.1683491  45.8247872
  34.7609031   0.3157008  45.9238663  46.3135931  -5.2246968  35.3986449
  47.0171781  -5.0196966  36.0144105  45.5898580  -4.6570206  35.6635533
  38.3346094   0.4885425  46.6028317  38.2178478   1.4330858  46.5007007
  37.5138541   0.1858987  46.9914116  48.2222629  -4.7864439  37.4484910
  49.0568233  -5.2183240  37.2662384  48.0606972  -4.9582425  38.3761804
  45.1914428  -5.9783414  58.1394812  46.0605588  -5.8042761  57.7781447
  44.7121180  -5.1588997  58.0170541  39.3600608   1.1413687  49.8184245
  40.2627855   1.1737298  50.1350740  39.1337978   0.2114138  49.8330581
  41.1154210  -0.1055326  46.4794324  40.1649841  -0.1053465  46.3658696
  41.4186697  -0.8522592  45.9630358  56.8506904   5.7305212  47.5440086
  57.4885314   5.6111960  46.8403426  56.7327747   6.6786056  47.6028038
  53.6596610   5.6832640  47.4801611  53.3215122   5.5673705  46.5922146
  54.5286378   5.2823805  47.4602617  49.5183426   7.5368117  43.4698502
  48.9548291   7.4458054  42.7014790  49.4035821   6.7168021  43.9500994
  54.1416393   6.8367492  53.4387816  54.1305034   6.4420290  52.5668320
  54.3037033   6.1033565  54.0321588  47.0647858   9.0319308  46.3082722
  47.8569150   8.6910133  45.8929022  47.3044508   9.1414283  47.2284876
  55.0982985  11.2039084  38.7812967  54.4470964  11.7893165  38.3946981
  55.8927347  11.7345279  38.8408004  49.0238612   8.2928222  39.1800101
  49.7969488   7.7457209  39.0412977  49.3764011   9.1572471  39.3914563
  50.8623654   9.6204604  52.3867000  50.5713520  10.5250235  52.2713667
  51.4980639   9.6621131  53.1011070  51.7879861   6.9981452  48.9768360
  52.3843433   6.7737475  48.2625323  51.8454833   6.2566198  49.5793808
  51.3604890   4.4520888  36.8118551  51.6130410   3.9302409  36.0502014
  50.4229449   4.2887033  36.9145235  56.4048172   3.4556666  44.6193294
  57.1911262   3.0376089  44.2683711  56.6686877   4.3602758  44.7874943
  56.5758250   8.8929516  39.3181951  55.9404083   8.9664143  40.0302856
  56.2455656   9.4823115  38.6401030  61.8056599   3.3931899  45.5226273
  62.5381771   2.8231116  45.7564102  61.0495955   3.0053500  45.9632778
  51.0801178   6.3548994  39.0142926  50.9637436   5.6793897  39.6824010
  51.1903438   5.8681368  38.1975079  53.4232719   5.8159141  42.7189615
  53.0590926   5.2889762  43.4302537  54.2799835   5.4257610  42.5456101
  59.3282020  -2.8946527  49.9820881  58.9965345  -2.0251116  49.7582096
  58.7327633  -3.2110243  50.6614912  53.0638206   0.8449040  37.7150964
  53.2312609   1.7129277  38.0821435  52.8735375   1.0076322  36.7912253
  55.8213539   9.3066019  49.3816794  55.5214262  10.2091058  49.2732601
  55.4764599   9.0398203  50.2337947  49.2726021   5.7579816  45.4153499
  48.3476517   5.6256030  45.6231190  49.5210434   6.5374035  45.9123441
  59.2210683   1.8248560  47.0614231  58.3127560   1.7563968  46.7672992
  59.1698279   2.3020504  47.8896057  53.0427427   3.3006698  38.6997631
  52.9227052   3.7463749  39.5383111  52.3480015   3.6492016  38.1411169
  46.6334832   5.4013090  46.2497288  46.7627213   5.6547569  47.1636699
  45.9532283   5.9940798  45.9301943  50.8034319  16.0710340  42.3487762
  50.7258349  17.0218165  42.4276242  50.1995963  15.7256212  43.0062688
  53.2951549   3.2438205  55.0049129  52.5184883   3.8032125  54.9951993
  53.9342112   3.7294988  55.5263999  61.0872330   0.0264998  48.8392105
  60.4446710   0.3197531  48.1931900  60.5827258  -0.0882082  49.6445302
  58.7412493   3.7728171  39.5277965  59.6530349   4.0055558  39.3525662
  58.2322140   4.3565215  38.9653043  51.5497921   6.0523658  54.5667096
  52.2912606   6.5908702  54.2901919  50.8434907   6.6789947  54.7238648
  57.0253261   8.1952799  53.1639257  57.4336617   7.7535209  52.4193890
  56.3030522   7.6205426  53.4173450  53.3784331   3.1325406  50.5372814
  54.2245526   3.5564819  50.6807463  53.3182969   2.4759030  51.2311377
  57.3482076   8.7553990  46.9191546  56.7190938   8.9199704  46.2167614
  56.9607738   9.1695599  47.6902510  61.2271307   9.6908427  44.2735910
  60.5422346  10.0707329  43.7232943  61.3115157  10.3003754  45.0067858
  56.5283776   0.7929774  52.1953988  56.2844708   1.5471835  51.6588264
  56.8043707   1.1715122  53.0301235  58.4822239   7.3368386  50.8731253
  58.6939134   7.9800146  50.1965634  58.4351987   6.5030703  50.4053183
  56.0848468  -0.0513793  47.7767826  55.2232947   0.2467461  48.0684563
  56.1110903   0.1656606  46.8448858  52.9010037   8.4928398  44.1841631
  53.3648383   8.7716101  43.3946254  52.6366836   7.5911842  44.0014722
  49.7934118   8.0399879  47.1221394  50.3635476   8.4687148  46.4838879
  50.3842230   7.7582464  47.8205580  51.8378923   4.6151550  40.9931196
  52.5402967   5.0672594  41.4605123  51.5059552   3.9735369  41.6211089
  50.2859285   3.2063307  55.3682406  49.6557946   3.8879588  55.6017803
  50.1795373   3.0946388  54.4235544  45.5804257   2.8735103  46.2948330
  44.7903311   3.1292631  45.8188441  46.0715505   3.6883441  46.4000370
  59.5968067  10.2140342  49.0453611  60.4185511   9.8120529  48.7636292
  59.5930470  10.1108576  49.9969727  47.5319003   3.2379682  43.2531807
  46.7350166   3.3498376  43.7715302  47.3044595   3.5766334  42.3872697
  53.3624670   9.7624385  51.2014321  53.4269103  10.2244792  52.0372493
  52.6535594   9.1321750  51.3296631  43.8641960   3.1265593  48.7263321
  44.1149999   4.0112603  48.9920897  44.4001509   2.9470195  47.9538413
  67.6874060   6.5579090  45.3938582  66.9337768   5.9886488  45.2382587
  67.8221601   6.5241755  46.3409217  53.0772688  11.4292493  41.0693302
  52.9418363  12.2744028  41.4978149  53.6182501  11.6311770  40.3059235
  49.5640028  -2.4915927  57.7307657  49.1706973  -3.0449729  58.4055301
  50.3806168  -2.1805349  58.1214174  46.5302085   8.9467931  41.6421227
  47.0426606   9.7411181  41.7926791  47.1824798   8.2494221  41.5754828
  48.3396970  12.0633687  43.7243980  48.5163599  12.9851652  43.5364964
  49.1353804  11.7492106  44.1538360  52.4807989  -1.0758048  55.3227913
  53.2217702  -0.4750895  55.2432376  52.7125912  -1.8180411  54.7645956
  47.6249327   4.1098319  53.6006143  47.5102842   3.2083576  53.9013242
  46.7693844   4.3562016  53.2490960  54.7041164  12.0516059  55.1993644
  54.2605019  11.2652438  54.8814548  55.3658378  12.2395210  54.5337534
  49.4628286  13.5811861  49.7254322  50.0135711  13.4528924  48.9531316
  48.6239762  13.8806750  49.3749215  56.8022403  12.3318859  53.2275045
  56.7840878  13.1527740  52.7355314  57.7242323  12.2072934  53.4525186
  53.2595457   9.8462989  54.0698553  53.7923793   9.0851277  53.8397861
  52.7309538   9.5536640  54.8122708  44.4951002   7.2756585  42.4180797
  45.3326224   7.6853593  42.2014505  44.6729270   6.3356027  42.3880991
  56.3915434   4.9431666  38.1064630  55.8762058   5.7136270  38.3453018
  56.1192743   4.2696802  38.7297692  53.9762545  -0.2118634  43.1649869
  53.1204142  -0.6011783  42.9855507  54.3889497  -0.1326673  42.3049654
  55.5061692  -2.6772290  47.5641428  55.0026488  -2.7142155  46.7509234
  55.7992299  -1.7679548  47.6238085  51.7504578  -2.5933561  46.5707610
  52.6157575  -2.7890752  46.2113499  51.8182087  -2.8223209  47.4976967
  61.3649709   7.6964020  40.0417804  60.5879151   7.3575180  39.5972966
  62.0441189   7.7016643  39.3672769  56.1801738   2.8158758  39.9324411
  55.8751873   3.1304907  40.7834555  57.1332180   2.8940178  39.9751744
  54.6248169   8.9748981  41.5817365  54.0969531   8.2401741  41.2690603
  54.1235672   9.7523657  41.3357334  59.6041015   7.1698002  46.6984412
  58.9464690   7.8597263  46.7864540  60.4081415   7.5594433  47.0418398
  49.3566897  -0.3631353  43.9423977  49.9310649  -0.5856171  43.2097170
  49.9437879  -0.2942658  44.6952578  58.4146474   5.5242374  44.7488353
  58.9278356   6.1572366  45.2510063  59.0647698   4.9243570  44.3831713
  49.6836484   1.6673108  37.9619862  48.8473796   2.0047795  38.2829137
  49.5441254   1.5322088  37.0246999  51.6589565  -3.4890104  42.6699046
  51.0053977  -3.8041087  42.0455661  51.6170039  -4.1114363  43.3958869
  52.7700770   6.7929191  34.5852338  51.8627831   6.5618445  34.7843487
  53.2671802   5.9966811  34.7726320  55.6768848  15.5026699  37.5049025
  55.0030547  15.8058395  38.1133982  56.0634670  16.3055779  37.1554482
  54.8927305   2.9991830  46.9946694  53.9749866   3.2206777  46.8368382
  55.3087449   3.0738140  46.1358401  55.6762353   4.3983245  42.1249374
  56.4234172   4.9104643  41.8156496  55.9453942   4.0767298  42.9853768
  53.9489003   6.8941786  39.1076328  53.0400222   6.6100819  39.2048798
  53.9784087   7.3140865  38.2479635  59.1808270  10.5048376  42.8767496
  58.7270598   9.6639286  42.9332686  58.5502237  11.1409774  43.2142276
  58.1241190   1.4340362  44.1068163  57.3863947   0.9217748  44.4378406
  58.3767964   0.9940743  43.2951440  57.6241210  12.3424872  43.8117314
  57.9164184  12.9029929  43.0929680  58.1339830  12.6353433  44.5670473
  44.5177173   4.6147300  43.0891531  44.3201573   4.0216661  42.3642597
  43.9623837   4.3099510  43.8067469  52.4973897   4.5070407  45.2086124
  52.5522507   3.5544243  45.1328600  51.6865099   4.6629846  45.6927422
  53.6465091   8.4350530  36.4464407  53.2084521   7.7186389  35.9870044
  54.3875532   8.6626645  35.8849498  50.4366257   3.1247467  42.9676503
  49.6234123   3.4241637  43.3741695  50.9325251   2.7303155  43.6850985
  52.5874835  13.1205223  44.9010767  52.5451014  13.3466070  43.9719299
  53.5037534  12.8868598  45.0496569  56.0340469   3.5889291  51.7991397
  56.3889856   3.8160764  52.6585862  56.6812600   3.9207668  51.1768652
  61.7638206   6.7107727  42.5040726  61.6256104   6.9009323  41.5761915
  61.4074424   7.4727110  42.9608777  49.9280332   0.6965822  48.5837738
  50.5679711   0.5554581  47.8860701  49.0957862   0.4100335  48.2076340
  61.7907585   8.7784254  47.5151997  62.2244092   8.6859543  48.3635051
  62.5039166   8.7541754  46.8772013  50.7040636   9.9968252  44.6972730
  51.4981234   9.5018573  44.4955305  49.9932328   9.4686116  44.3340436
  55.5235480  12.3786348  49.0485098  55.5772502  12.9477284  49.8162814
  54.6550261  12.5488233  48.6839135  47.0123399   4.1411334  40.7732483
  46.0820987   4.0795790  40.9902445  47.1080871   3.6187287  39.9769124
  46.9308948   0.6666147  43.3610724  47.1915765   1.5811480  43.2519885
  47.7526120   0.1990590  43.5107337  48.4033873   2.0803904  50.5309549
  49.0756927   1.8721266  49.8822198  47.5763660   1.8825990  50.0914781
  62.6523135   8.8207955  50.0484882  62.8459025   9.7253765  50.2944157
  62.5523753   8.3615374  50.8823468  54.3059445  -1.2934155  52.5475210
  53.6587361  -0.5944205  52.4539686  55.0760461  -0.8598011  52.9151458
  57.7138243   8.9714697  55.6225763  57.5623750   8.7425249  54.7055847
  57.7042923   9.9285299  55.6357108  54.4823580   6.5446610  50.6072030
  55.4115640   6.6957770  50.4340997  54.0614610   6.6330631  49.7520676
  53.2811912  10.5697274  48.3770567  53.1422997  10.2016059  49.2496505
  52.4926508  11.0844914  48.2054525  53.8760064  15.6706371  39.7196104
  54.0511819  15.1994414  40.5341726  53.1892852  16.2972137  39.9477364
  54.8317127   9.9478877  45.7659405  54.4966959   9.9079647  46.6617055
  54.3321072   9.2823593  45.2929815  48.8061371   5.3546507  51.2911986
  48.6681169   4.6226746  51.8923525  49.7166294   5.2655407  51.0096174
  57.7676318   7.2934911  36.0396465  57.1505489   6.5681740  35.9429517
  57.2992807   8.0544272  35.6963539  51.4343671   5.0666467  50.7795666
  52.1443290   4.4259659  50.7382284  51.3912980   5.3179361  51.7021847
  59.4230450  12.0033820  53.7002245  59.3642996  11.3193040  53.0332828
  59.8249968  12.7452810  53.2482871  50.1472605   2.0531684  52.5991305
  49.6109962   1.6022423  53.2512902  49.5589314   2.1877593  51.8561770
  48.4421149  18.8195734  46.4935964  48.6817747  19.4514258  47.1714982
  47.5990345  18.4683774  46.7801323  49.5574864   1.5120336  35.1617769
  48.6804331   1.3909137  34.7980016  50.0332617   0.7206414  34.9096658
  59.4247857   9.9673404  51.9316225  58.5374636   9.6299326  52.0542624
  59.9946408   9.2356435  52.1684990  41.0777004   6.2997496  45.2559276
  41.7648044   5.9859226  44.6680291  40.9225133   7.2038860  44.9826527
  45.8811727   1.1887692  49.6844300  45.7969915   0.5813362  48.9494710
  45.0594433   1.6796710  49.6853796  52.9549011  14.6274856  48.8977468
  52.8819182  15.4329828  49.4096772  52.5126404  14.8266822  48.0725489
  52.7438790  13.8646626  42.4080289  51.9606312  14.4068306  42.5018514
  53.4431536  14.3820606  42.8074531  56.0535440  -0.3258744  45.0514495
  56.5504140  -1.0788782  44.7315565  55.2822422  -0.2894428  44.4857704
  63.9065198   5.3781621  46.6932786  63.8955074   6.2606337  46.3226719
  63.0382577   5.0253172  46.4987323  55.4147694  14.5261690  51.0535627
  56.1275666  15.1609155  50.9811528  54.9237723  14.6225556  50.2375628
  57.1365221   8.4312943  42.6252918  56.2021500   8.5514405  42.4557623
  57.3141890   7.5285410  42.3612928  52.6370409   1.8158639  44.7786179
  52.2668197   1.2629679  45.4667085  53.1329502   1.2116772  44.2261179
  60.5237773   4.2730262  43.1602952  60.9898225   5.1058254  43.0863255
  60.9745273   3.8075244  43.8648211  50.4659608  12.2756134  51.8741197
  51.1669067  12.9092617  52.0270592  49.9954723  12.6170865  51.1136837
  58.5914004  10.6174083  40.1589104  58.8673848  10.5030678  41.0682978
  57.7218502  10.2191568  40.1201277  58.2660894   4.8300741  49.6993748
  57.6132344   5.0776649  49.0446200  58.6441274   4.0164879  49.3656225
  55.2268068  14.8660434  43.8021918  55.4090462  14.0482090  44.2649670
  56.0501054  15.0828127  43.3646808  55.5610233  13.7928619  41.0636966
  56.0898000  13.2821074  40.4507129  55.8238453  13.4771150  41.9282499
  54.3148467   5.5720552  56.1859785  53.6389104   5.4714681  56.8562160
  55.1376101   5.4159766  56.6495782  46.0627326  11.8092489  48.8072300
  46.6480763  11.0636177  48.9400204  45.8652164  12.1196445  49.6908964
  48.9165981  14.8443736  43.8234742  48.2476356  15.3289864  43.3398782
  48.7778851  15.0912957  44.7378121  40.6544981   4.3798089  47.5276743
  40.6929080   3.8461680  48.3213861  40.1485273   3.8533294  46.9087720
  53.0571250  16.8787480  50.4217401  53.6089558  17.0419101  51.1866486
  53.3977443  17.4691917  49.7497426  48.0335743  -0.7737371  51.0239285
  48.0977069   0.0877460  50.6116683  47.9702863  -1.3863369  50.2911644
  47.5088015   1.2985762  54.6712320  48.1360054   0.9162839  55.2849844
  46.6515934   1.0799964  55.0368012  57.9082124  11.7048737  56.2766055
  58.4522028  12.3178695  55.7821010  57.3268969  12.2628316  56.7933068
  44.2853558   3.1062191  40.6030675  44.5806999   2.1972869  40.5497728
  43.3841594   3.0849930  40.2811677  56.1939637  14.8269455  47.4081083
  56.0690776  14.0259195  46.8992028  56.8518728  15.3215648  46.9195053
  47.8147805   1.1818188  46.5858223  47.0934391   1.7954155  46.4465696
  48.6041061   1.7175952  46.5074869  58.2574545  12.6278475  49.0360633
  57.3104881  12.5083826  48.9638960  58.6057318  11.7400973  49.1186894
  50.6174119  -1.4827386  52.8598875  51.1408521  -1.2365089  53.6225184
  50.3986452  -0.6507351  52.4402012  46.0141400   0.7876289  40.7270000
  45.6854106  -0.0926332  40.5445106  46.3680770   0.7323957  41.6146389
  55.2620979  12.4231191  45.2364985  55.1145941  11.4947899  45.4172555
  56.0874472  12.4451282  44.7522060  49.1283223   1.0749259  41.0945477
  49.4679295   1.6035180  40.3724086  49.5755343   1.4129665  41.8704044
  58.8655100  13.2459750  46.3229858  59.7901648  13.0402611  46.1854309
  58.6970404  12.9976151  47.2319199  51.8226664  -0.5413691  50.5448545
  51.4823484  -1.3405878  50.9469225  51.1165670  -0.2411980  49.9725379
  52.4743136  -3.4564378  48.9975868  53.2969205  -3.9303900  48.8754759
  52.7181199  -2.6773895  49.4974555  51.1151370  -0.4276120  39.2938770
  51.8359733  -0.0494867  38.7902487  50.4916674   0.2912757  39.3973748
  55.2582493   0.2769029  40.2297102  55.4746107   1.1593667  39.9285931
  54.7776560  -0.1144758  39.5002744  49.9981714   3.2354742  46.8067847
  49.8526295   3.5495045  47.6992129  49.5206918   3.8539643  46.2538746
  51.8578097   0.2257290  46.8548737  51.8439666  -0.6701616  46.5181035
  52.5750525   0.2327954  47.4887023  53.7104228   0.6594630  48.9001864
  53.4522006   1.5811701  48.8986194  53.1789268   0.2625065  49.5902328
  58.6550417  13.7645418  41.6791949  58.8287294  13.1991840  40.9265802
  59.1479308  14.5646312  41.4971439  44.4727376   5.7760087  49.7455508
  43.9280845   6.5519895  49.8775783  45.3506726   6.1230891  49.5874630
  51.2614993  -0.8928329  42.1236307  51.3830904  -1.8211683  42.3227194
  50.9717036  -0.8789643  41.2114622  54.1306184  -3.2073419  45.2603027
  54.1527880  -3.1434086  44.3055006  54.5474243  -4.0468910  45.4543533
  64.5089808   6.5281841  43.2982249  64.9520954   5.7789166  42.9001372
  63.6316318   6.5191977  42.9155981  59.6425589  13.0812182  38.7788848
  60.3376494  13.7018875  38.9976162  59.9848739  12.2307533  39.0541226
  45.2593398   4.9029983  52.6385665  44.5175134   5.0512618  53.2250296
  44.9386143   5.1638249  51.7752415  61.5417012  10.5311888  40.3076178
  62.0668336  10.8699160  39.5825499  61.4539365   9.5958903  40.1239313
  53.2037061  14.4445961  52.4366055  53.5124187  14.1995108  53.3088755
  54.0012543  14.6492600  51.9484925  53.2257673  16.5983871  44.6671432
  52.7862663  16.1060250  45.3604288  53.9765790  16.0556838  44.4263507
  45.7050012  12.7895412  44.6696060  46.5308032  12.4899184  44.2894703
  45.3544064  12.0203034  45.1185848  50.6731545  12.1421880  46.7393733
  50.0511554  11.4792585  46.4395961  51.3436412  12.1683012  46.0567381
  43.9058617  10.7081738  45.6284993  43.0690525  10.2803912  45.4468995
  43.8782262  10.9014181  46.5655785  50.7456073   0.6203668  56.3326239
  50.7944228   1.4965791  55.9504009  51.2878587   0.0781061  55.7597883
  61.2310918  11.1644791  55.6127376  60.4406462  11.1468930  55.0731876
  60.9944273  11.7033085  56.3676413  61.3508793   8.0137258  52.9260105
  61.4006798   7.8487265  53.8675628  61.2422717   7.1464517  52.5357986
  50.2345052  10.6925803  40.2152194  50.3833172  11.3761268  39.5618867
  51.0411496  10.6730893  40.7301650  58.6412556   3.9968186  54.2419412
  59.5422419   3.8574650  53.9503409  58.7160530   4.1622640  55.1817589
  52.9755361   1.3735040  53.0872598  52.1058671   1.6668606  52.8155187
  53.2114841   1.9575485  53.8079862  62.8526990  10.4334199  53.1702127
  62.5611799  10.7964180  54.0065587  62.2399122   9.7201207  52.9915459
  64.0522673   7.9987079  45.6904697  64.8869564   8.4376883  45.8542257
  64.1881801   7.5225732  44.8712943  61.1014178   5.5566814  51.6382185
  61.5768300   5.7494460  50.8301036  60.1779744   5.6126000  51.3925568
  47.9897685   6.7190981  41.2213263  47.7443727   5.8153311  41.4193473
  48.1593600   6.7208131  40.2792741  55.6794395  -2.4085343  50.6038018
  56.1976339  -1.6724316  50.2784507  55.3249528  -2.1021349  51.4384778
  47.2593333   2.4519338  38.7199424  46.5662578   2.5263693  38.0639460
  47.0145085   1.6879682  39.2420941  53.7340458  13.1873934  37.6863941
  53.1614425  13.8064121  37.2334413  54.3073251  13.7373295  38.2203863
  59.8015847   2.4332574  49.8710490  60.7533270   2.5330671  49.8922714
  59.6319298   1.6410842  50.3808574  57.8230227  -0.4811843  50.0569891
  57.2280159  -0.2006830  49.3616380  57.5379924   0.0082058  50.8286632
  56.9537717  13.4711084  38.8172524  57.8868391  13.4056645  39.0205399
  56.8660930  14.3067351  38.3587056  59.5825734  12.7876954  35.7776471
  59.5039366  12.4536818  36.6712229  60.4035401  13.2798722  35.7767943
  62.2803925   5.6538693  48.9852790  62.2480245   4.7154694  49.1712474
  62.8904549   5.7322730  48.2518615  54.1187256   4.5234746  35.0279994
  55.0646361   4.3940955  35.0968412  53.7401501   3.7849408  35.5049422
  62.4298414   2.4449737  49.0311073  61.9137462   1.6608194  48.8441002
  63.3138362   2.1168454  49.1957592  68.0980475   6.7154700  48.1258827
  68.8283864   6.4539988  48.6866530  67.4887421   5.9783422  48.1660895
  66.1795772   4.8562563  48.7233278  65.4528936   4.7218528  48.1149769
  65.7643059   5.1639392  49.5289996  54.0025949   8.5752493  56.4880651
  54.9228958   8.7531092  56.6820697  53.9675532   7.6308538  56.3360350
  52.3030173   2.4484723  34.9634879  51.3961629   2.1517836  35.0397593
  52.5806154   2.1514541  34.0969165  43.2208114   3.7691086  45.4133925
  42.9010898   2.9156394  45.1208299  42.6741542   3.9839664  46.1691893
  46.9988021   6.4853527  49.1303432  47.2174031   7.4170635  49.1491466
  47.4113795   6.1261502  49.9158236  53.9192239  -3.0078387  41.1179120
  53.1092967  -3.3531302  41.4934366  54.6076656  -3.3170844  41.7066732
  51.8715887   2.0586733  58.5206181  51.7712613   3.0081090  58.4518272
  51.6537429   1.7304972  57.6482251  51.0728958  -0.6928342  35.1046858
  51.9348122  -0.3673444  35.3642676  51.2579302  -1.4796846  34.5919924
  43.0896374   7.3893998  47.3827047  42.3959845   6.9747951  46.8697001
  43.8369365   7.4314534  46.7860466  59.2261594  -1.8199815  42.2482081
  58.6460263  -1.1615011  41.8660134  58.9597527  -2.6422471  41.8369499
  57.6765161  -2.4194758  44.4503402  58.1764939  -2.3078223  43.6417720
  58.3200769  -2.7233705  45.0904210  51.7347157   5.4883872  57.3371243
  51.2514238   6.2884232  57.5435132  51.8208096   5.4991817  56.3838687
  45.0033116   7.3212252  45.2593062  44.9803804   7.4199939  44.3074945
  45.3133753   8.1677402  45.5810228  47.6620494   9.3788407  49.3739676
  48.6163748   9.3472349  49.3069608  47.4633018   8.9179030  50.1889902
  48.2519876   7.9489523  51.9410474  49.0712765   8.4433601  51.9645311
  48.5256684   7.0321491  51.9128041  58.0086472   0.3400275  41.3038429
  57.1212327   0.6249926  41.0858624  58.4240461   0.1794038  40.4565706
  61.3601009   0.3646796  45.0192769  62.1361399   0.8543248  45.2917386
  60.6349143   0.7904850  45.4764638  63.7973567   1.0774415  46.0766709
  64.3918058   0.8370151  45.3660018  63.8700151   0.3581546  46.7040246
  46.0170723  14.9208026  46.3909874  45.8825191  14.1608427  45.8247872
  45.6002785  15.6448926  45.9238663  57.1529686  10.1044950  35.3986449
  57.8565536  10.3094952  36.0144105  56.4292335  10.6721711  35.6635533
  57.9827496   5.8554811  41.5188720  57.9262698   6.3123362  40.6796352
  58.5355839   5.0945495  41.3411562  61.7932302   1.6444543  42.3438839
  61.5369236   1.2441178  43.1747047  61.1685170   2.3588337  42.2188978
  66.1044640   4.3840616  44.8510131  65.5444198   4.4533805  45.6241693
  65.4988143   4.2081601  44.1309627  49.1739849  15.8177343  46.6028317
  49.0572233  16.7622776  46.5007007  48.3532295  15.5150905  46.9914116
  59.0616383  10.5427479  37.4484910  59.8961987  10.1108677  37.2662384
  58.9000726  10.3709492  38.3761804  58.7162275   7.0459592  38.8141249
  58.6611079   6.8803864  37.8729693  58.0908331   7.7535625  38.9703439
  43.5054790   2.2827656  52.6402671  44.1513654   1.7726610  53.1289896
  43.2971942   3.0196338  53.2146096  56.0308183   9.3508504  58.1394812
  56.8999342   9.5249156  57.7781447  55.5514934  10.1702921  58.0170541
  52.0258401  -3.4532299  38.3926567  52.0137071  -2.5090459  38.5494838
  52.9181823  -3.6362154  38.0986028  50.1994363  16.4705605  49.8184245
  51.1021610  16.5029215  50.1350740  49.9731733  15.5406056  49.8330581
  51.9547965  15.2236591  46.4794324  51.0043596  15.2238453  46.3658696
  52.2580451  14.4769326  45.9630358  47.8452281  -0.5704726  56.7377685
  48.7083743  -0.9267922  56.9481010  47.2717692  -0.9090832  57.4253090
  67.6900658  21.0597130  47.5440086  68.3279068  20.9403877  46.8403426
  67.5721501  22.0077974  47.6028038  64.4990365  21.0124558  47.4801611
  64.1608876  20.8965623  46.5922146  65.3680133  20.6115723  47.4602617
  60.3577180  22.8660034  43.4698502  59.7942045  22.7749971  42.7014790
  60.2429575  22.0459939  43.9500994  64.9810148  22.1659410  53.4387816
  64.9698788  21.7712208  52.5668320  65.1430787  21.4325482  54.0321588
  57.9041612  24.3611226  46.3082722  58.6962904  24.0202051  45.8929022
  58.1438262  24.4706201  47.2284876  65.9376739  26.5331002  38.7812967
  65.2864719  27.1185083  38.3946981  66.7321102  27.0637197  38.8408004
  59.8632366  23.6220139  39.1800101  60.6363242  23.0749126  39.0412977
  60.2157765  24.4864389  39.3914563  61.7017409  24.9496522  52.3867000
  61.4107275  25.8542152  52.2713667  62.3374393  24.9913049  53.1011070
  62.6273616  22.3273370  48.9768360  63.2237188  22.1029392  48.2625323
  62.6848587  21.5858116  49.5793808  62.1998644  19.7812805  36.8118551
  62.4524165  19.2594327  36.0502014  61.2623203  19.6178951  36.9145235
  67.2441927  18.7848584  44.6193294  68.0305016  18.3668007  44.2683711
  67.5080631  19.6894676  44.7874943  67.4152004  24.2221434  39.3181951
  66.7797837  24.2956061  40.0302856  67.0849411  24.8115033  38.6401030
  72.6450354  18.7223817  45.5226273  73.3775526  18.1523034  45.7564102
  71.8889710  18.3345417  45.9632778  61.9194933  21.6840911  39.0142926
  61.8031191  21.0085815  39.6824010  62.0297193  21.1973285  38.1975079
  64.2626474  21.1451058  42.7189615  63.8984681  20.6181679  43.4302537
  65.1193590  20.7549527  42.5456101  70.1675774  12.4345391  49.9820881
  69.8359099  13.3040802  49.7582096  69.5721388  12.1181675  50.6614912
  63.9031961  16.1740958  37.7150964  64.0706363  17.0421195  38.0821435
  63.7129130  16.3368240  36.7912253  66.6607294  24.6357937  49.3816794
  66.3608017  25.5382976  49.2732601  66.3158353  24.3690120  50.2337947
  60.1119775  21.0871734  45.4153499  59.1870272  20.9547948  45.6231190
  60.3604189  21.8665953  45.9123441  70.0604438  17.1540477  47.0614231
  69.1521315  17.0855886  46.7672992  70.0092033  17.6312422  47.8896057
  63.8821182  18.6298616  38.6997631  63.7620807  19.0755666  39.5383111
  63.1873770  18.9783933  38.1411169  57.4728586  20.7305007  46.2497288
  57.6020968  20.9839486  47.1636699  56.7926038  21.3232715  45.9301943
  61.6428074  31.4002257  42.3487762  61.5652103  32.3510082  42.4276242
  61.0389717  31.0548130  43.0062688  64.1345303  18.5730123  55.0049129
  63.3578637  19.1324043  54.9951993  64.7735866  19.0586906  55.5263999
  71.9266084  15.3556916  48.8392105  71.2840464  15.6489449  48.1931900
  71.4221013  15.2409836  49.6445302  69.5806248  19.1020089  39.5277965
  70.4924104  19.3347476  39.3525662  69.0715895  19.6857133  38.9653043
  62.3891676  21.3815576  54.5667096  63.1306360  21.9200620  54.2901919
  61.6828661  22.0081865  54.7238648  67.8647015  23.5244717  53.1639257
  68.2730371  23.0827127  52.4193890  67.1424277  22.9497344  53.4173450
  64.2178085  18.4617323  50.5372814  65.0639281  18.8856737  50.6807463
  64.1576723  17.8050948  51.2311377  68.1875830  24.0845907  46.9191546
  67.5584692  24.2491621  46.2167614  67.8001492  24.4987517  47.6902510
  72.0665062  25.0200345  44.2735910  71.3816100  25.3999246  43.7232943
  72.1508911  25.6295672  45.0067858  67.3677531  16.1221692  52.1953988
  67.1238463  16.8763752  51.6588264  67.6437461  16.5007039  53.0301235
  69.3215994  22.6660304  50.8731253  69.5332889  23.3092064  50.1965634
  69.2745742  21.8322621  50.4053183  66.9242222  15.2778125  47.7767826
  66.0626702  15.5759378  48.0684563  66.9504657  15.4948524  46.8448858
  63.7403792  23.8220315  44.1841631  64.2042137  24.1008018  43.3946254
  63.4760590  22.9203760  44.0014722  60.6327873  23.3691797  47.1221394
  61.2029230  23.7979065  46.4838879  61.2235985  23.0874382  47.8205580
  62.6772678  19.9443468  40.9931196  63.3796721  20.3964511  41.4605123
  62.3453306  19.3027287  41.6211089  61.1253039  18.5355224  55.3682406
  60.4951700  19.2171505  55.6017803  61.0189127  18.4238306  54.4235544
  56.4198012  18.2027020  46.2948330  55.6297066  18.4584549  45.8188441
  56.9109259  19.0175358  46.4000370  70.4361821  25.5432260  49.0453611
  71.2579265  25.1412447  48.7636292  70.4324224  25.4400494  49.9969727
  58.3712757  18.5671600  43.2531807  57.5743921  18.6790294  43.7715302
  58.1438349  18.9058252  42.3872697  64.2018425  25.0916303  51.2014321
  64.2662857  25.5536710  52.0372493  63.4929349  24.4613668  51.3296631
  54.7035715  18.4557511  48.7263321  54.9543753  19.3404521  48.9920897
  55.2395263  18.2762112  47.9538413  78.5267815  21.8871008  45.3938582
  77.7731523  21.3178406  45.2382587  78.6615356  21.8533673  46.3409217
  63.9166443  26.7584410  41.0693302  63.7812117  27.6035946  41.4978149
  64.4576255  26.9603688  40.3059235  60.4033782  12.8375990  57.7307657
  60.0100728  12.2842189  58.4055301  61.2199923  13.1486569  58.1214174
  57.3695840  24.2759848  41.6421227  57.8820361  25.0703099  41.7926791
  58.0218553  23.5786139  41.5754828  59.1790725  27.3925605  43.7243980
  59.3557353  28.3143569  43.5364964  59.9747558  27.0784024  44.1538360
  63.3201743  14.2533869  55.3227913  64.0611457  14.8541022  55.2432376
  63.5519666  13.5111507  54.7645956  58.4643081  19.4390237  53.6006143
  58.3496596  18.5375494  53.9013242  57.6087599  19.6853933  53.2490960
  65.5434919  27.3807977  55.1993644  65.0998773  26.5944355  54.8814548
  66.2052133  27.5687127  54.5337534  60.3022040  28.9103778  49.7254322
  60.8529465  28.7820842  48.9531316  59.4633516  29.2098667  49.3749215
  67.6416157  27.6610777  53.2275045  67.6234632  28.4819658  52.7355314
  68.5636077  27.5364852  53.4525186  64.0989211  25.1754906  54.0698553
  64.6317548  24.4143194  53.8397861  63.5703292  24.8828558  54.8122708
  67.2658906  10.2814972  49.5992195  66.9223176  11.1716614  49.5231306
  67.6337869  10.0916630  48.7361780  55.3344757  22.6048503  42.4180797
  56.1719979  23.0145511  42.2014505  55.5123024  21.6647945  42.3880991
  67.2309189  20.2723583  38.1064630  66.7155812  21.0428188  38.3453018
  66.9586497  19.5988719  38.7297692  64.8156300  15.1173284  43.1649869
  63.9597896  14.7280134  42.9855507  65.2283252  15.1965245  42.3049654
  66.3455447  12.6519627  47.5641428  65.8420242  12.6149763  46.7509234
  66.6386053  13.5612370  47.6238085  62.5898332  12.7358357  46.5707610
  63.4551329  12.5401166  46.2113499  62.6575841  12.5068709  47.4976967
  72.2043463  23.0255938  40.0417804  71.4272906  22.6867097  39.5972966
  72.8834944  23.0308561  39.3672769  67.0195492  18.1450675  39.9324411
  66.7145628  18.4596825  40.7834555  67.9725934  18.2232095  39.9751744
  65.4641924  24.3040899  41.5817365  64.9363285  23.5693658  41.2690603
  64.9629427  25.0815575  41.3357334  70.4434770  22.4989919  46.6984412
  69.7858444  23.1889181  46.7864540  71.2475169  22.8886351  47.0418398
  60.1960651  14.9660565  43.9423977  60.7704403  14.7435747  43.2097170
  60.7831634  15.0349260  44.6952578  69.2540229  20.8534292  44.7488353
  69.7672110  21.4864284  45.2510063  69.9041453  20.2535487  44.3831713
  60.5230239  16.9965026  37.9619862  59.6867551  17.3339713  38.2829137
  60.3835008  16.8614006  37.0246999  62.4983319  11.8401814  42.6699046
  61.8447732  11.5250831  42.0455661  62.4563793  11.2177554  43.3958869
  63.6094524  22.1221109  34.5852338  62.7021586  21.8910362  34.7843487
  64.1065556  21.3258728  34.7726320  66.5162603  30.8318616  37.5049025
  65.8424302  31.1350313  38.1133982  66.9028425  31.6347697  37.1554482
  65.7321060  18.3283747  46.9946694  64.8143621  18.5498694  46.8368382
  66.1481203  18.4030058  46.1358401  66.5156107  19.7275163  42.1249374
  67.2627926  20.2396560  41.8156496  66.7847697  19.4059216  42.9853768
  64.7882757  22.2233704  39.1076328  63.8793977  21.9392737  39.2048798
  64.8177841  22.6432782  38.2479635  70.0202025  25.8340293  42.8767496
  69.5664352  24.9931203  42.9332686  69.3895992  26.4701692  43.2142276
  68.9634944  16.7632279  44.1068163  68.2257701  16.2509666  44.4378406
  69.2161718  16.3232661  43.2951440  68.4634964  27.6716790  43.8117314
  68.7557939  28.2321847  43.0929680  68.9733585  27.9645351  44.5670473
  69.0646572   9.5408531  44.7009933  69.3705449   8.6805895  44.4135848
  69.7899177  10.1326152  44.5008927  55.3570928  19.9439218  43.0891531
  55.1595328  19.3508579  42.3642597  54.8017592  19.6391428  43.8067469
  63.3367652  19.8362324  45.2086124  63.3916261  18.8836161  45.1328600
  62.5258854  19.9921764  45.6927422  64.4858845  23.7642448  36.4464407
  64.0478275  23.0478306  35.9870044  65.2269286  23.9918562  35.8849498
  61.2760011  18.4539384  42.9676503  60.4627877  18.7533555  43.3741695
  61.7719006  18.0595073  43.6850985  63.4268589  28.4497141  44.9010767
  63.3844768  28.6757987  43.9719299  64.3431288  28.2160516  45.0496569
  66.8734223  18.9181209  51.7991397  67.2283611  19.1452682  52.6585862
  67.5206354  19.2499585  51.1768652  72.6031960  22.0399645  42.5040726
  72.4649859  22.2301241  41.5761915  72.2468179  22.8019027  42.9608777
  60.7674086  16.0257740  48.5837738  61.4073466  15.8846499  47.8860701
  59.9351617  15.7392253  48.2076340  72.6301340  24.1076172  47.5151997
  73.0637846  24.0151461  48.3635051  73.3432920  24.0833672  46.8772013
  61.5434390  25.3260170  44.6972730  62.3374989  24.8310490  44.4955305
  60.8326083  24.7978033  44.3340436  66.3629235  27.7078266  49.0485098
  66.4166257  28.2769202  49.8162814  65.4944016  27.8780151  48.6839135
  57.8517154  19.4703252  40.7732483  56.9214742  19.4087707  40.9902445
  57.9474626  18.9479205  39.9769124  57.7702703  15.9958065  43.3610724
  58.0309520  16.9103398  43.2519885  58.5919875  15.5282507  43.5107337
  59.2427628  17.4095822  50.5309549  59.9150681  17.2013184  49.8822198
  58.4157414  17.2117908  50.0914781  73.4916889  24.1499872  50.0484882
  73.6852779  25.0545683  50.2944157  73.3917507  23.6907291  50.8823468
  65.1453200  14.0357763  52.5475210  64.4981115  14.7347712  52.4539686
  65.9154215  14.4693907  52.9151458  68.5531998  24.3006615  55.6225763
  68.4017504  24.0717167  54.7055847  68.5436677  25.2577216  55.6357108
  65.3217334  21.8738528  50.6072030  66.2509394  22.0249687  50.4340997
  64.9008364  21.9622549  49.7520676  64.1205666  25.8989192  48.3770567
  63.9816752  25.5307977  49.2496505  63.3320262  26.4136832  48.2054525
  64.7153818  30.9998289  39.7196104  64.8905574  30.5286332  40.5341726
  64.0286606  31.6264055  39.9477364  65.6710881  25.2770795  45.7659405
  65.3360714  25.2371565  46.6617055  65.1714827  24.6115511  45.2929815
  59.6455125  20.6838425  51.2911986  59.5074923  19.9518664  51.8923525
  60.5560049  20.5947325  51.0096174  68.6070073  22.6226829  36.0396465
  67.9899244  21.8973657  35.9429517  68.1386561  23.3836189  35.6963539
  62.2737426  20.3958384  50.7795666  62.9837044  19.7551576  50.7382284
  62.2306734  20.6471279  51.7021847  70.2624205  27.3325738  53.7002245
  70.2036751  26.6484958  53.0332828  70.6643723  28.0744728  53.2482871
  60.9866360  17.3823602  52.5991305  60.4503717  16.9314341  53.2512902
  60.3983068  17.5169511  51.8561770  59.2814903  34.1487651  46.4935964
  59.5211502  34.7806176  47.1714982  58.4384100  33.7975691  46.7801323
  60.3968619  16.8412253  35.1617769  59.5198085  16.7201054  34.7980016
  60.8726372  16.0498332  34.9096658  70.2641612  25.2965321  51.9316225
  69.3768391  24.9591243  52.0542624  70.8340163  24.5648353  52.1684990
  51.9170759  21.6289413  45.2559276  52.6041799  21.3151143  44.6680291
  51.7618888  22.5330778  44.9826527  56.7205481  16.5179610  49.6844300
  56.6363670  15.9105279  48.9494710  55.8988188  17.0088628  49.6853796
  63.7942765  29.9566774  48.8977468  63.7212937  30.7621745  49.4096772
  63.3520158  30.1558740  48.0725489  63.5832545  29.1938544  42.4080289
  62.8000067  29.7360224  42.5018514  64.2825290  29.7112523  42.8074531
  66.8929195  15.0033173  45.0514495  67.3897895  14.2503136  44.7315565
  66.1216176  15.0397490  44.4857704  74.7458952  20.7073539  46.6932786
  74.7348829  21.5898254  46.3226719  73.8776332  20.3545090  46.4987323
  66.2541449  29.8553608  51.0535627  66.9669421  30.4901073  50.9811528
  65.7631477  29.9517474  50.2375628  67.9758976  23.7604861  42.6252918
  67.0415254  23.8806323  42.4557623  68.1535644  22.8577327  42.3612928
  63.4764164  17.1450556  44.7786179  63.1061951  16.5921597  45.4667085
  63.9723256  16.5408690  44.2261179  71.3631527  19.6022180  43.1602952
  71.8291979  20.4350171  43.0863255  71.8139028  19.1367161  43.8648211
  61.3053362  27.6048051  51.8741197  62.0062822  28.2384534  52.0270592
  60.8348477  27.9462783  51.1136837  69.4307758  25.9466001  40.1589104
  69.7067602  25.8322596  41.0682978  68.5612257  25.5483486  40.1201277
  69.3348190  11.9702767  47.1993854  68.4211270  12.2006994  47.3676061
  69.7641291  12.0541211  48.0507886  69.1054648  20.1592659  49.6993748
  68.4526098  20.4068566  49.0446200  69.4835028  19.3456797  49.3656225
  66.0661822  30.1952352  43.8021918  66.2484217  29.3774008  44.2649670
  66.8894808  30.4120044  43.3646808  66.4003988  29.1220537  41.0636966
  66.9291754  28.6112992  40.4507129  66.6632207  28.8063067  41.9282499
  65.1542221  20.9012470  56.1859785  64.4782858  20.8006599  56.8562160
  65.9769855  20.7451684  56.6495782  56.9021080  27.1384406  48.8072300
  57.4874517  26.3928094  48.9400204  56.7045919  27.4488363  49.6908964
  59.7559736  30.1735654  43.8234742  59.0870111  30.6581781  43.3398782
  59.6172605  30.4204874  44.7378121  51.4938735  19.7090007  47.5276743
  51.5322835  19.1753597  48.3213861  50.9879028  19.1825212  46.9087720
  63.8965004  32.2079397  50.4217401  64.4483312  32.3711019  51.1866486
  64.2371198  32.7983835  49.7497426  58.8729497  14.5554547  51.0239285
  58.9370824  15.4169378  50.6116683  58.8096618  13.9428549  50.2911644
  58.3481770  16.6277680  54.6712320  58.9753809  16.2454757  55.2849844
  57.4909689  16.4091882  55.0368012  68.7475878  27.0340655  56.2766055
  69.2915782  27.6470613  55.7821010  68.1662723  27.5920233  56.7933068
  55.1247313  18.4354109  40.6030675  55.4200754  17.5264787  40.5497728
  54.2235348  18.4141848  40.2811677  67.0333391  30.1561373  47.4081083
  66.9084531  29.3551113  46.8992028  67.6912483  30.6507566  46.9195053
  58.6541560  16.5110105  46.5858223  57.9328145  17.1246073  46.4465696
  59.4434815  17.0467870  46.5074869  69.0968300  27.9570393  49.0360633
  68.1498635  27.8375744  48.9638960  69.4451073  27.0692891  49.1186894
  61.4567873  13.8464532  52.8598875  61.9802275  14.0926828  53.6225184
  61.2380206  14.6784567  52.4402012  56.8535154  16.1168206  40.7270000
  56.5247860  15.2365585  40.5445106  57.2074525  16.0615875  41.6146389
  66.1014733  27.7523109  45.2364985  65.9539696  26.8239817  45.4172555
  66.9268227  27.7743200  44.7522060  59.9676977  16.4041176  41.0945477
  60.3073050  16.9327097  40.3724086  60.4149098  16.7421582  41.8704044
  69.7048855  28.5751668  46.3229858  70.6295402  28.3694529  46.1854309
  69.5364158  28.3268069  47.2319199  62.6620418  14.7878227  50.5448545
  62.3217239  13.9886040  50.9469225  61.9559425  15.0879938  49.9725379
  63.3136890  11.8727539  48.9975868  64.1362959  11.3988018  48.8754759
  63.5574954  12.6518023  49.4974555  61.9545125  14.9015798  39.2938770
  62.6753487  15.2797051  38.7902487  61.3310429  15.6204675  39.3973748
  66.0976247  15.6060947  40.2297102  66.3139862  16.4885585  39.9285931
  65.6170315  15.2147160  39.5002744  60.8375469  18.5646660  46.8067847
  60.6920050  18.8786963  47.6992129  60.3600672  19.1831560  46.2538746
  62.6971852  15.5549208  46.8548737  62.6833420  14.6590301  46.5181035
  63.4144280  15.5619872  47.4887023  64.5497982  15.9886548  48.9001864
  64.2915760  16.9103619  48.8986194  64.0183023  15.5916983  49.5902328
  69.4944171  29.0937335  41.6791949  69.6681049  28.5283758  40.9265802
  69.9873062  29.8938230  41.4971439  55.3121131  21.1052004  49.7455508
  54.7674599  21.8811812  49.8775783  56.1900481  21.4522809  49.5874630
  62.1008748  14.4363588  42.1236307  62.2224659  13.5080234  42.3227194
  61.8110790  14.4502274  41.2114622  64.9699938  12.1218499  45.2603027
  64.9921635  12.1857832  44.3055006  65.3867997  11.2823007  45.4543533
  75.3483562  21.8573758  43.2982249  75.7914708  21.1081083  42.9001372
  74.4710073  21.8483895  42.9155981  70.4819344  28.4104100  38.7788848
  71.1770248  29.0310792  38.9976162  70.8242494  27.5599451  39.0541226
  56.0987153  20.2321901  52.6385665  55.3568889  20.3804536  53.2250296
  55.7779897  20.4930166  51.7752415  72.3810767  25.8603805  40.3076178
  72.9062091  26.1991078  39.5825499  72.2933119  24.9250821  40.1239313
  64.0430815  29.7737879  52.4366055  64.3517942  29.5287026  53.3088755
  64.8406298  29.9784517  51.9484925  64.0651428  31.9275788  44.6671432
  63.6256418  31.4352167  45.3604288  64.8159544  31.3848756  44.4263507
  56.5443767  28.1187329  44.6696060  57.3701786  27.8191101  44.2894703
  56.1937819  27.3494952  45.1185848  61.5125300  27.4713798  46.7393733
  60.8905309  26.8084503  46.4395961  62.1830167  27.4974929  46.0567381
  54.7452372  26.0373656  45.6284993  53.9084280  25.6095830  45.4468995
  54.7176017  26.2306099  46.5655785  61.5849827  15.9495586  56.3326239
  61.6337983  16.8257708  55.9504009  62.1272341  15.4072979  55.7597883
  72.0704673  26.4936709  55.6127376  71.2800217  26.4760848  55.0731876
  71.8338027  27.0325003  56.3676413  72.1902548  23.3429175  52.9260105
  72.2400553  23.1779183  53.8675628  72.0816471  22.4756434  52.5357986
  61.0738807  26.0217721  40.2152194  61.2226927  26.7053185  39.5618867
  61.8805250  26.0022811  40.7301650  69.4806310  19.3260103  54.2419412
  70.3816173  19.1866568  53.9503409  69.5554285  19.4914558  55.1817589
  63.8149116  16.7026958  53.0872598  62.9452425  16.9960524  52.8155187
  64.0508596  17.2867403  53.8079862  73.6920745  25.7626117  53.1702127
  73.4005553  26.1256097  54.0065587  73.0792876  25.0493125  52.9915459
  74.8916427  23.3278997  45.6904697  75.7263318  23.7668801  45.8542257
  75.0275556  22.8517650  44.8712943  71.9407933  20.8858731  51.6382185
  72.4162055  21.0786378  50.8301036  71.0173498  20.9417917  51.3925568
  58.8291440  22.0482899  41.2213263  58.5837482  21.1445229  41.4193473
  58.9987354  22.0500049  40.2792741  66.5188149  12.9206575  50.6038018
  67.0370093  13.6567602  50.2784507  66.1643282  13.2270568  51.4384778
  58.0987087  17.7811256  38.7199424  57.4056332  17.8555611  38.0639460
  57.8538839  17.0171600  39.2420941  66.7700744   9.3406857  46.1238915
  67.0502497   8.6730047  46.7499342  67.5551351   9.5335953  45.6113579
  64.5734212  28.5165851  37.6863941  64.0008179  29.1356039  37.2334413
  65.1467006  29.0665213  38.2203863  70.6409602  17.7624491  49.8710490
  71.5927025  17.8622589  49.8922714  70.4713052  16.9702760  50.3808574
  68.6623981  14.8480075  50.0569891  68.0673914  15.1285087  49.3616380
  68.3773678  15.3373976  50.8286632  67.7931472  28.8003001  38.8172524
  68.7262145  28.7348563  39.0205399  67.7054685  29.6359268  38.3587056
  70.4219489  28.1168872  35.7776471  70.3433120  27.7828735  36.6712229
  71.2429155  28.6090640  35.7767943  73.1197680  20.9830611  48.9852790
  73.0874000  20.0446612  49.1712474  73.7298303  21.0614648  48.2518615
  64.9581011  19.8526664  35.0279994  65.9040115  19.7232872  35.0968412
  64.5795256  19.1141326  35.5049422  73.2692168  17.7741655  49.0311073
  72.7531217  16.9900111  48.8441002  74.1532117  17.4460371  49.1957592
  70.9302895  11.5182670  44.9906886  70.7327716  11.2097758  45.8750218
  71.5402601  12.2444309  45.1204815  78.9374230  22.0446618  48.1258827
  79.6677618  21.7831906  48.6866530  78.3281175  21.3075340  48.1660895
  77.0189527  20.1854481  48.7233278  76.2922690  20.0510446  48.1149769
  76.6036814  20.4931309  49.5289996  64.8419703  23.9044410  56.4880651
  65.7622713  24.0823009  56.6820697  64.8069286  22.9600456  56.3360350
  63.1423928  17.7776641  34.9634879  62.2355383  17.4809753  35.0397593
  63.4199909  17.4806459  34.0969165  54.0601868  19.0983004  45.4133925
  53.7404652  18.2448312  45.1208299  53.5135296  19.3131582  46.1691893
  57.8381776  21.8145445  49.1303432  58.0567785  22.7462553  49.1491466
  58.2507550  21.4553419  49.9158236  64.7585993  12.3213530  41.1179120
  63.9486722  11.9760615  41.4934366  65.4470410  12.0121074  41.7066732
  66.6876542  11.3991577  42.7403417  67.2407580  11.8187030  43.3993440
  66.9246628  10.4727325  42.7826373  62.7109641  17.3878651  58.5206181
  62.6106368  18.3373008  58.4518272  62.4931183  17.0596890  57.6482251
  61.9122712  14.6363576  35.1046858  62.7741876  14.9618474  35.3642676
  62.0973057  13.8495072  34.5919924  53.9290128  22.7185915  47.3827047
  53.2353600  22.3039868  46.8697001  54.6763119  22.7606452  46.7860466
  70.0655349  13.5092102  42.2482081  69.4854018  14.1676906  41.8660134
  69.7991282  12.6869447  41.8369499  68.5158915  12.9097160  44.4503402
  69.0158694  13.0213694  43.6417720  69.1594523  12.6058213  45.0904210
  62.5740911  20.8175790  57.3371243  62.0907993  21.6176150  57.5435132
  62.6601850  20.8283734  56.3838687  55.8426871  22.6504169  45.2593062
  55.8197559  22.7491856  44.3074945  56.1527507  23.4969320  45.5810228
  58.5014249  24.7080324  49.3739676  59.4557502  24.6764267  49.3069608
  58.3026772  24.2470948  50.1889902  59.0913631  23.2781440  51.9410474
  59.9106520  23.7725519  51.9645311  59.3650438  22.3613408  51.9128041
  68.8480227  15.6692193  41.3038429  67.9606082  15.9541843  41.0858624
  69.2634216  15.5085956  40.4565706  72.1994763  15.6938714  45.0192769
  72.9755153  16.1835166  45.2917386  71.4742897  16.1196768  45.4764638
  74.6367322  16.4066333  46.0766709  75.2311812  16.1662069  45.3660018
  74.7093905  15.6873463  46.7040246  56.8564477  30.2499944  46.3909874
  56.7218945  29.4900345  45.8247872  56.4396540  30.9740844  45.9238663
  67.9923440  25.4336867  35.3986449  68.6959290  25.6386870  36.0144105
  67.2686089  26.0013629  35.6635533  68.8221251  21.1846729  41.5188720
  68.7656452  21.6415280  40.6796352  69.3749593  20.4237413  41.3411562
  72.6326057  16.9736460  42.3438839  72.3762991  16.5733096  43.1747047
  72.0078925  17.6880254  42.2188978  76.9438394  19.7132534  44.8510131
  76.3837952  19.7825723  45.6241693  76.3381898  19.5373518  44.1309627
  60.0133603  31.1469261  46.6028317  59.8965987  32.0914693  46.5007007
  59.1926049  30.8442822  46.9914116  69.9010138  25.8719396  37.4484910
  70.7355742  25.4400595  37.2662384  69.7394481  25.7001410  38.3761804
  69.5556030  22.3751510  38.8141249  69.5004834  22.2095781  37.8729693
  68.9302085  23.0827543  38.9703439  54.3448545  17.6119574  52.6402671
  54.9907409  17.1018528  53.1289896  54.1365696  18.3488256  53.2146096
  66.8701937  24.6800422  58.1394812  67.7393097  24.8541074  57.7781447
  66.3908689  25.4994838  58.0170541  62.8652155  11.8759619  38.3926567
  62.8530825  12.8201459  38.5494838  63.7575577  11.6929764  38.0986028
  61.0388117  31.7997523  49.8184245  61.9415364  31.8321133  50.1350740
  60.8125487  30.8697974  49.8330581  62.7941719  30.5528509  46.4794324
  61.8437350  30.5530371  46.3658696  63.0974206  29.8061244  45.9630358
  66.6804275   8.4702395  42.6472504  65.9136671   7.9160882  42.7929186
  67.0914980   8.5424264  43.5086656  58.6846036  14.7587191  56.7377685
  59.5477497  14.4023996  56.9481010  58.1111447  14.4201086  57.4253090
  78.5294413  36.3889048  47.5440086  79.1672823  36.2695795  46.8403426
  78.4115256  37.3369892  47.6028038  75.3384119  36.3416476  47.4801611
  75.0002631  36.2257540  46.5922146  76.2073887  35.9407641  47.4602617
  71.1970935  38.1951952  43.4698502  70.6335800  38.1041889  42.7014790
  71.0823330  37.3751857  43.9500994  75.8203902  37.4951327  53.4387816
  75.8092543  37.1004126  52.5668320  75.9824542  36.7617400  54.0321588
  68.7435367  39.6903144  46.3082722  69.5356659  39.3493968  45.8929022
  68.9832017  39.7998119  47.2284876  76.7770494  41.8622920  38.7812967
  76.1258473  42.4477000  38.3946981  77.5714856  42.3929115  38.8408004
  70.7026121  38.9512057  39.1800101  71.4756997  38.4041044  39.0412977
  71.0551520  39.8156306  39.3914563  72.5411163  40.2788439  52.3867000
  72.2501029  41.1834070  52.2713667  73.1768148  40.3204967  53.1011070
  73.4667370  37.6565288  48.9768360  74.0630942  37.4321310  48.2625323
  73.5242342  36.9150033  49.5793808  73.0392399  35.1104723  36.8118551
  73.2917919  34.5886244  36.0502014  72.1016958  34.9470868  36.9145235
  78.0835681  34.1140501  44.6193294  78.8698771  33.6959925  44.2683711
  78.3474386  35.0186594  44.7874943  78.2545759  39.5513352  39.3181951
  77.6191592  39.6247978  40.0302856  77.9243165  40.1406951  38.6401030
  83.4844108  34.0515735  45.5226273  84.2169280  33.4814951  45.7564102
  82.7283464  33.6637335  45.9632778  72.7588687  37.0132829  39.0142926
  72.6424945  36.3377732  39.6824010  72.8690947  36.5265203  38.1975079
  75.1020228  36.4742976  42.7189615  74.7378435  35.9473597  43.4302537
  75.9587344  36.0841445  42.5456101  81.0069529  27.7637309  49.9820881
  80.6752854  28.6332720  49.7582096  80.4115142  27.4473593  50.6614912
  74.7425715  31.5032876  37.7150964  74.9100118  32.3713112  38.0821435
  74.5522884  31.6660157  36.7912253  77.5001048  39.9649855  49.3816794
  77.2001771  40.8674894  49.2732601  77.1552108  39.6982038  50.2337947
  70.9513530  36.4163652  45.4153499  70.0264026  36.2839866  45.6231190
  71.1997943  37.1957871  45.9123441  80.8998192  32.4832395  47.0614231
  79.9915069  32.4147803  46.7672992  80.8485788  32.9604340  47.8896057
  74.7214936  33.9590533  38.6997631  74.6014561  34.4047584  39.5383111
  74.0267524  34.3075851  38.1411169  68.3122341  36.0596925  46.2497288
  68.4414722  36.3131404  47.1636699  67.6319792  36.6524633  45.9301943
  72.4821828  46.7294175  42.3487762  72.4045858  47.6802000  42.4276242
  71.8783472  46.3840048  43.0062688  74.9739058  33.9022040  55.0049129
  74.1972392  34.4615961  54.9951993  75.6129621  34.3878823  55.5263999
  82.7659839  30.6848833  48.8392105  82.1234219  30.9781366  48.1931900
  82.2614767  30.5701754  49.6445302  80.4200002  34.4312006  39.5277965
  81.3317858  34.6639393  39.3525662  79.9109649  35.0149051  38.9653043
  73.2285430  36.7107494  54.5667096  73.9700115  37.2492538  54.2901919
  72.5222416  37.3373783  54.7238648  78.7040770  38.8536634  53.1639257
  79.1124126  38.4119045  52.4193890  77.9818031  38.2789262  53.4173450
  75.0571840  33.7909241  50.5372814  75.9033035  34.2148655  50.6807463
  74.9970478  33.1342865  51.2311377  79.0269585  39.4137825  46.9191546
  78.3978447  39.5783539  46.2167614  78.6395247  39.8279434  47.6902510
  82.9058816  40.3492263  44.2735910  82.2209855  40.7291164  43.7232943
  82.9902666  40.9587589  45.0067858  78.2071285  31.4513609  52.1953988
  77.9632217  32.2055670  51.6588264  78.4831216  31.8298957  53.0301235
  80.1609748  37.9952222  50.8731253  80.3726643  38.6383982  50.1965634
  80.1139496  37.1614538  50.4053183  77.7635977  30.6070042  47.7767826
  76.9020456  30.9051296  48.0684563  77.7898412  30.8240441  46.8448858
  74.5797546  39.1512233  44.1841631  75.0435892  39.4299936  43.3946254
  74.3154344  38.2495678  44.0014722  71.4721627  38.6983715  47.1221394
  72.0422985  39.1270983  46.4838879  72.0629739  38.4166299  47.8205580
  73.5166432  35.2735385  40.9931196  74.2190476  35.7256429  41.4605123
  73.1847061  34.6319204  41.6211089  71.9646794  33.8647142  55.3682406
  71.3345455  34.5463423  55.6017803  71.8582882  33.7530224  54.4235544
  67.2591766  33.5318938  46.2948330  66.4690820  33.7876467  45.8188441
  67.7503014  34.3467276  46.4000370  81.2755576  40.8724177  49.0453611
  82.0973020  40.4704364  48.7636292  81.2717979  40.7692411  49.9969727
  69.2106512  33.8963517  43.2531807  68.4137675  34.0082212  43.7715302
  68.9832104  34.2350170  42.3872697  75.0412179  40.4208221  51.2014321
  75.1056612  40.8828628  52.0372493  74.3323103  39.7905585  51.3296631
  65.5429469  33.7849428  48.7263321  65.7937508  34.6696438  48.9920897
  66.0789018  33.6054030  47.9538413  89.3661569  37.2162926  45.3938582
  88.6125277  36.6470324  45.2382587  89.5009110  37.1825590  46.3409217
  74.7560197  42.0876328  41.0693302  74.6205872  42.9327864  41.4978149
  75.2970010  42.2895606  40.3059235  71.2427537  28.1667908  57.7307657
  70.8494482  27.6134106  58.4055301  72.0593677  28.4778486  58.1214174
  68.2089594  39.6051766  41.6421227  68.7214115  40.3995016  41.7926791
  68.8612307  38.9078056  41.5754828  70.0184479  42.7217522  43.7243980
  70.1951107  43.6435487  43.5364964  70.8141313  42.4075942  44.1538360
  74.1595498  29.5825787  55.3227913  74.9005211  30.1832940  55.2432376
  74.3913421  28.8403425  54.7645956  69.3036836  34.7682154  53.6006143
  69.1890351  33.8667411  53.9013242  68.4481353  35.0145851  53.2490960
  76.3828673  42.7099895  55.1993644  75.9392528  41.9236273  54.8814548
  77.0445887  42.8979045  54.5337534  71.1415795  44.2395696  49.7254322
  71.6923220  44.1112759  48.9531316  70.3027271  44.5390585  49.3749215
  78.4809912  42.9902694  53.2275045  78.4628387  43.8111575  52.7355314
  79.4029832  42.8656770  53.4525186  74.9382966  40.5046824  54.0698553
  75.4711302  39.7435112  53.8397861  74.4097047  40.2120476  54.8122708
  78.1052661  25.6106890  49.5992195  77.7616930  26.5008532  49.5231306
  78.4731623  25.4208548  48.7361780  66.1738511  37.9340420  42.4180797
  67.0113733  38.3437429  42.2014505  66.3516779  36.9939863  42.3880991
  78.0702943  35.6015501  38.1064630  77.5549567  36.3720106  38.3453018
  77.7980252  34.9280637  38.7297692  75.6550054  30.4465202  43.1649869
  74.7991651  30.0572052  42.9855507  76.0677006  30.5257163  42.3049654
  77.1849201  27.9811545  47.5641428  76.6813997  27.9441680  46.7509234
  77.4779808  28.8904288  47.6238085  73.4292087  28.0650275  46.5707610
  74.2945084  27.8693083  46.2113499  73.4969596  27.8360627  47.4976967
  83.0437217  38.3547856  40.0417804  82.2666660  38.0159015  39.5972966
  83.7228698  38.3600479  39.3672769  77.8589247  33.4742593  39.9324411
  77.5539382  33.7888742  40.7834555  78.8119689  33.5524013  39.9751744
  76.3035678  39.6332816  41.5817365  75.7757040  38.8985576  41.2690603
  75.8023181  40.4107493  41.3357334  81.2828524  37.8281837  46.6984412
  80.6252199  38.5181098  46.7864540  82.0868924  38.2178269  47.0418398
  71.0354406  30.2952483  43.9423977  71.6098158  30.0727664  43.2097170
  71.6225388  30.3641177  44.6952578  80.0933983  36.1826210  44.7488353
  80.6065865  36.8156201  45.2510063  80.7435207  35.5827405  44.3831713
  71.3623993  32.3256944  37.9619862  70.5261305  32.6631630  38.2829137
  71.2228763  32.1905924  37.0246999  73.3377074  27.1693732  42.6699046
  72.6841486  26.8542749  42.0455661  73.2957548  26.5469472  43.3958869
  74.4488279  37.4513027  34.5852338  73.5415340  37.2202280  34.7843487
  74.9459311  36.6550646  34.7726320  77.3556357  46.1610534  37.5049025
  76.6818056  46.4642231  38.1133982  77.7422179  46.9639614  37.1554482
  76.5714814  33.6575665  46.9946694  75.6537375  33.8790612  46.8368382
  76.9874958  33.7321976  46.1358401  77.3549862  35.0567081  42.1249374
  78.1021681  35.5688478  41.8156496  77.6241451  34.7351134  42.9853768
  75.6276512  37.5525622  39.1076328  74.7187731  37.2684654  39.2048798
  75.6571596  37.9724700  38.2479635  80.8595779  41.1632211  42.8767496
  80.4058107  40.3223121  42.9332686  80.2289746  41.7993609  43.2142276
  79.8028699  32.0924197  44.1068163  79.0651456  31.5801583  44.4378406
  80.0555472  31.6524579  43.2951440  79.3028719  43.0008708  43.8117314
  79.5951693  43.5613765  43.0929680  79.8127339  43.2937269  44.5670473
  79.9040326  24.8700449  44.7009933  80.2099203  24.0097812  44.4135848
  80.6292931  25.4618069  44.5008927  66.1964682  35.2731136  43.0891531
  65.9989082  34.6800496  42.3642597  65.6411346  34.9683346  43.8067469
  74.1761406  35.1654242  45.2086124  74.2310016  34.2128079  45.1328600
  73.3652608  35.3213681  45.6927422  75.3252600  39.0934365  36.4464407
  74.8872030  38.3770224  35.9870044  76.0663041  39.3210480  35.8849498
  72.1153766  33.7831302  42.9676503  71.3021631  34.0825472  43.3741695
  72.6112760  33.3886991  43.6850985  74.2662344  43.7789059  44.9010767
  74.2238523  44.0049905  43.9719299  75.1825043  43.5452433  45.0496569
  77.7127978  34.2473126  51.7991397  78.0677365  34.4744599  52.6585862
  78.3600109  34.5791503  51.1768652  83.4425715  37.3691562  42.5040726
  83.3043613  37.5593158  41.5761915  83.0861933  38.1310945  42.9608777
  71.6067841  31.3549657  48.5837738  72.2467220  31.2138417  47.8860701
  70.7745371  31.0684171  48.2076340  83.4695094  39.4368089  47.5151997
  83.9031601  39.3443378  48.3635051  84.1826675  39.4125590  46.8772013
  72.3828145  40.6552088  44.6972730  73.1768743  40.1602408  44.4955305
  71.6719837  40.1269951  44.3340436  77.2022989  43.0370183  49.0485098
  77.2560011  43.6061120  49.8162814  76.3337770  43.2072068  48.6839135
  68.6910908  34.7995170  40.7732483  67.7608496  34.7379625  40.9902445
  68.7868380  34.2771122  39.9769124  68.6096457  31.3249982  43.3610724
  68.8703274  32.2395316  43.2519885  69.4313629  30.8574425  43.5107337
  70.0821382  32.7387740  50.5309549  70.7544436  32.5305102  49.8822198
  69.2551169  32.5409826  50.0914781  84.3310644  39.4791790  50.0484882
  84.5246534  40.3837600  50.2944157  84.2311262  39.0199209  50.8823468
  75.9846954  29.3649680  52.5475210  75.3374870  30.0639630  52.4539686
  76.7547970  29.7985824  52.9151458  79.3925752  39.6298533  55.6225763
  79.2411259  39.4009084  54.7055847  79.3830432  40.5869134  55.6357108
  76.1611089  37.2030445  50.6072030  77.0903149  37.3541605  50.4340997
  75.7402119  37.2914466  49.7520676  74.9599421  41.2281110  48.3770567
  74.8210506  40.8599894  49.2496505  74.1714017  41.7428749  48.2054525
  75.5547573  46.3290206  39.7196104  75.7299328  45.8578249  40.5341726
  74.8680361  46.9555972  39.9477364  76.5104636  40.6062713  45.7659405
  76.1754468  40.5663482  46.6617055  76.0108581  39.9407428  45.2929815
  70.4848880  36.0130343  51.2911986  70.3468678  35.2810581  51.8923525
  71.3953803  35.9239243  51.0096174  79.4463827  37.9518747  36.0396465
  78.8292998  37.2265575  35.9429517  78.9780316  38.7128107  35.6963539
  73.1131180  35.7250302  50.7795666  73.8230799  35.0843494  50.7382284
  73.0700489  35.9763197  51.7021847  81.1017959  42.6617655  53.7002245
  81.0430505  41.9776875  53.0332828  81.5037477  43.4036645  53.2482871
  71.8260114  32.7115520  52.5991305  71.2897471  32.2606258  53.2512902
  71.2376823  32.8461429  51.8561770  71.2362373  32.1704171  35.1617769
  70.3591840  32.0492972  34.7980016  71.7120126  31.3790249  34.9096658
  81.1035366  40.6257239  51.9316225  80.2162145  40.2883161  52.0542624
  81.6733917  39.8940270  52.1684990  62.7564513  36.9581331  45.2559276
  63.4435553  36.6443061  44.6680291  62.6012642  37.8622696  44.9826527
  67.5599236  31.8471527  49.6844300  67.4757424  31.2397197  48.9494710
  66.7381942  32.3380546  49.6853796  74.6336520  45.2858691  48.8977468
  74.5606691  46.0913663  49.4096772  74.1913913  45.4850657  48.0725489
  74.4226299  44.5230462  42.4080289  73.6393821  45.0652142  42.5018514
  75.1219045  45.0404441  42.8074531  77.7322949  30.3325091  45.0514495
  78.2291649  29.5795053  44.7315565  76.9609931  30.3689408  44.4857704
  85.5852707  36.0365457  46.6932786  85.5742583  36.9190172  46.3226719
  84.7170086  35.6837007  46.4987323  77.0935203  45.1845526  51.0535627
  77.8063175  45.8192990  50.9811528  76.6025232  45.2809392  50.2375628
  78.8152730  39.0896778  42.6252918  77.8809009  39.2098241  42.4557623
  78.9929399  38.1869245  42.3612928  74.3157918  32.4742474  44.7786179
  73.9455706  31.9213514  45.4667085  74.8117011  31.8700607  44.2261179
  82.2025282  34.9314097  43.1602952  82.6685734  35.7642089  43.0863255
  82.6532782  34.4659079  43.8648211  72.1447117  42.9339969  51.8741197
  72.8456576  43.5676452  52.0270592  71.6742232  43.2754701  51.1136837
  80.2701513  41.2757919  40.1589104  80.5461357  41.1614513  41.0682978
  79.4006011  40.8775404  40.1201277  80.1741944  27.2994684  47.1993854
  79.2605024  27.5298911  47.3676061  80.6035046  27.3833129  48.0507886
  79.9448403  35.4884576  49.6993748  79.2919853  35.7360484  49.0446200
  80.3228783  34.6748715  49.3656225  76.9055577  45.5244270  43.8021918
  77.0877971  44.7065926  44.2649670  77.7288563  45.7411962  43.3646808
  77.2397742  44.4512455  41.0636966  77.7685509  43.9404909  40.4507129
  77.5025962  44.1354985  41.9282499  75.9935976  36.2304387  56.1859785
  75.3176613  36.1298517  56.8562160  76.8163610  36.0743601  56.6495782
  70.5953490  45.5027571  43.8234742  69.9263865  45.9873699  43.3398782
  70.4566360  45.7496792  44.7378121  62.3332490  35.0381924  47.5276743
  62.3716589  34.5045515  48.3213861  61.8272782  34.5117130  46.9087720
  74.7358759  47.5371315  50.4217401  75.2877067  47.7002936  51.1866486
  75.0764952  48.1275753  49.7497426  69.7123252  29.8846465  51.0239285
  69.7764578  30.7461296  50.6116683  69.6490372  29.2720466  50.2911644
  69.1875524  31.9569597  54.6712320  69.8147563  31.5746675  55.2849844
  68.3303443  31.7383799  55.0368012  79.5869633  42.3632572  56.2766055
  80.1309537  42.9762531  55.7821010  79.0056478  42.9212151  56.7933068
  65.9641067  33.7646026  40.6030675  66.2594508  32.8556705  40.5497728
  65.0629103  33.7433766  40.2811677  77.8727146  45.4853290  47.4081083
  77.7478285  44.6843030  46.8992028  78.5306237  45.9799484  46.9195053
  69.4935314  31.8402023  46.5858223  68.7721900  32.4537991  46.4465696
  70.2828570  32.3759788  46.5074869  79.9362054  43.2862311  49.0360633
  78.9892390  43.1667662  48.9638960  80.2844827  42.3984809  49.1186894
  72.2961628  29.1756449  52.8598875  72.8196029  29.4218746  53.6225184
  72.0773961  30.0076484  52.4402012  67.6928909  31.4460124  40.7270000
  67.3641615  30.5657503  40.5445106  68.0468279  31.3907793  41.6146389
  76.9408488  43.0815027  45.2364985  76.7933450  42.1531734  45.4172555
  77.7661981  43.1035117  44.7522060  70.8070732  31.7333094  41.0945477
  71.1466804  32.2619015  40.3724086  71.2542852  32.0713500  41.8704044
  80.5442609  43.9043585  46.3229858  81.4689157  43.6986447  46.1854309
  80.3757913  43.6559987  47.2319199  73.5014173  30.1170145  50.5448545
  73.1610993  29.3177958  50.9469225  72.7953179  30.4171855  49.9725379
  74.1530645  27.2019457  48.9975868  74.9756714  26.7279935  48.8754759
  74.3968708  27.9809941  49.4974555  72.7938879  30.2307715  39.2938770
  73.5147242  30.6088968  38.7902487  72.1704183  30.9496592  39.3973748
  76.9370002  30.9352864  40.2297102  77.1533616  31.8177502  39.9285931
  76.4564069  30.5439078  39.5002744  71.6769223  33.8938578  46.8067847
  71.5313804  34.2078881  47.6992129  71.1994427  34.5123478  46.2538746
  73.5365606  30.8841126  46.8548737  73.5227175  29.9882219  46.5181035
  74.2538034  30.8911789  47.4887023  75.3891737  31.3178466  48.9001864
  75.1309515  32.2395536  48.8986194  74.8576777  30.9208900  49.5902328
  80.3337926  44.4229253  41.6791949  80.5074803  43.8575675  40.9265802
  80.8266817  45.2230148  41.4971439  66.1514885  36.4343922  49.7455508
  65.6068354  37.2103730  49.8775783  67.0294235  36.7814727  49.5874630
  72.9402502  29.7655506  42.1236307  73.0618413  28.8372152  42.3227194
  72.6504544  29.7794192  41.2114622  75.8093693  27.4510416  45.2603027
  75.8315389  27.5149749  44.3055006  76.2261752  26.6114925  45.4543533
  86.1877317  37.1865676  43.2982249  86.6308463  36.4373001  42.9001372
  85.3103827  37.1775812  42.9155981  81.3213098  43.7396017  38.7788848
  82.0164003  44.3602710  38.9976162  81.6636248  42.8891369  39.0541226
  66.9380907  35.5613818  52.6385665  66.1962643  35.7096454  53.2250296
  66.6173652  35.8222084  51.7752415  83.2204521  41.1895723  40.3076178
  83.7455845  41.5282996  39.5825499  83.1326874  40.2542738  40.1239313
  74.9045182  47.2567706  44.6671432  74.4650172  46.7644085  45.3604288
  75.6553299  46.7140674  44.4263507  72.3519054  42.8005715  46.7393733
  71.7299063  42.1376420  46.4395961  73.0223921  42.8266847  46.0567381
  72.4243582  31.2787503  56.3326239  72.4731737  32.1549626  55.9504009
  72.9666096  30.7364896  55.7597883  82.9098427  41.8228627  55.6127376
  82.1193971  41.8052765  55.0731876  82.6731782  42.3616920  56.3676413
  83.0296302  38.6721093  52.9260105  83.0794307  38.5071100  53.8675628
  82.9210226  37.8048352  52.5357986  71.9132561  41.3509639  40.2152194
  72.0620681  42.0345103  39.5618867  72.7199005  41.3314729  40.7301650
  80.3200065  34.6552021  54.2419412  81.2209928  34.5158486  53.9503409
  80.3948039  34.8206476  55.1817589  74.6542870  32.0318876  53.0872598
  73.7846180  32.3252442  52.8155187  74.8902350  32.6159321  53.8079862
  84.5314499  41.0918034  53.1702127  84.2399308  41.4548015  54.0065587
  83.9186630  40.3785043  52.9915459  85.7310182  38.6570914  45.6904697
  86.5657073  39.0960718  45.8542257  85.8669310  38.1809567  44.8712943
  82.7801687  36.2150649  51.6382185  83.2555809  36.4078295  50.8301036
  81.8567253  36.2709835  51.3925568  69.6685194  37.3774816  41.2213263
  69.4231236  36.4737146  41.4193473  69.8381109  37.3791967  40.2792741
  77.3581904  28.2498493  50.6038018  77.8763848  28.9859520  50.2784507
  77.0037037  28.5562486  51.4384778  68.9380842  33.1103174  38.7199424
  68.2450087  33.1847529  38.0639460  68.6932593  32.3463517  39.2420941
  77.6094498  24.6698775  46.1238915  77.8896252  24.0021964  46.7499342
  78.3945105  24.8627871  45.6113579  75.4127967  43.8457769  37.6863941
  74.8401934  44.4647956  37.2334413  75.9860760  44.3957131  38.2203863
  81.4803356  33.0916409  49.8710490  82.4320779  33.1914507  49.8922714
  81.3106807  32.2994678  50.3808574  79.5017736  30.1771992  50.0569891
  78.9067668  30.4577005  49.3616380  79.2167433  30.6665893  50.8286632
  78.6325226  44.1294919  38.8172524  79.5655900  44.0640481  39.0205399
  78.5448439  44.9651186  38.3587056  81.2613243  43.4460790  35.7776471
  81.1826875  43.1120653  36.6712229  82.0822910  43.9382557  35.7767943
  83.9591434  36.3122529  48.9852790  83.9267754  35.3738530  49.1712474
  84.5692058  36.3906566  48.2518615  75.7974765  35.1818582  35.0279994
  76.7433870  35.0524790  35.0968412  75.4189010  34.4433244  35.5049422
  84.1085923  33.1033572  49.0311073  83.5924971  32.3192029  48.8441002
  84.9925871  32.7752289  49.1957592  81.7696650  26.8474588  44.9906886
  81.5721471  26.5389676  45.8750218  82.3796355  27.5736227  45.1204815
  89.7767984  37.3738536  48.1258827  90.5071373  37.1123824  48.6866530
  89.1674930  36.6367258  48.1660895  87.8583281  35.5146398  48.7233278
  87.1316445  35.3802363  48.1149769  87.4430568  35.8223227  49.5289996
  75.6813458  39.2336328  56.4880651  76.6016467  39.4114927  56.6820697
  75.6463041  38.2892373  56.3360350  73.9817682  33.1068558  34.9634879
  73.0749138  32.8101671  35.0397593  74.2593663  32.8098376  34.0969165
  64.8995623  34.4274922  45.4133925  64.5798407  33.5740230  45.1208299
  64.3529051  34.6423500  46.1691893  68.6775530  37.1437363  49.1303432
  68.8961540  38.0754470  49.1491466  69.0901304  36.7845337  49.9158236
  75.5979748  27.6505448  41.1179120  74.7880476  27.3052533  41.4934366
  76.2864165  27.3412992  41.7066732  77.5270296  26.7283495  42.7403417
  78.0801335  27.1478948  43.3993440  77.7640383  25.8019243  42.7826373
  73.5503395  32.7170568  58.5206181  73.4500122  33.6664925  58.4518272
  73.3324938  32.3888807  57.6482251  72.7516467  29.9655493  35.1046858
  73.6135631  30.2910392  35.3642676  72.9366811  29.1786989  34.5919924
  64.7683883  38.0477833  47.3827047  64.0747354  37.6331786  46.8697001
  65.5156874  38.0898370  46.7860466  80.9049103  28.8384020  42.2482081
  80.3247772  29.4968824  41.8660134  80.6385036  28.0161364  41.8369499
  79.3552670  28.2389078  44.4503402  79.8552448  28.3505612  43.6417720
  79.9988278  27.9350130  45.0904210  73.4134666  36.1467707  57.3371243
  72.9301747  36.9468067  57.5435132  73.4995605  36.1575652  56.3838687
  66.6820625  37.9796087  45.2593062  66.6591313  38.0783774  44.3074945
  66.9921262  38.8261238  45.5810228  69.3408003  40.0372242  49.3739676
  70.2951257  40.0056184  49.3069608  69.1420527  39.5762866  50.1889902
  69.9307385  38.6073358  51.9410474  70.7500274  39.1017437  51.9645311
  70.2044193  37.6905326  51.9128041  79.6873981  30.9984110  41.3038429
  78.7999836  31.2833761  41.0858624  80.1027970  30.8377874  40.4565706
  83.0388518  31.0230631  45.0192769  83.8148908  31.5127084  45.2917386
  82.3136652  31.4488685  45.4764638  85.4761076  31.7358250  46.0766709
  86.0705567  31.4953986  45.3660018  85.5487660  31.0165381  46.7040246
  78.8317195  40.7628785  35.3986449  79.5353045  40.9678787  36.0144105
  78.1079844  41.3305547  35.6635533  79.6615005  36.5138646  41.5188720
  79.6050207  36.9707198  40.6796352  80.2143348  35.7529331  41.3411562
  83.4719811  32.3028378  42.3438839  83.2156745  31.9025014  43.1747047
  82.8472679  33.0172172  42.2188978  87.7832149  35.0424451  44.8510131
  87.2231707  35.1117641  45.6241693  87.1775652  34.8665436  44.1309627
  70.8527358  46.4761178  46.6028317  70.7359742  47.4206611  46.5007007
  70.0319804  46.1734740  46.9914116  80.7403892  41.2011314  37.4484910
  81.5749496  40.7692513  37.2662384  80.5788235  41.0293328  38.3761804
  80.3949784  37.7043427  38.8141249  80.3398588  37.5387699  37.8729693
  79.7695840  38.4119460  38.9703439  65.1842299  32.9411492  52.6402671
  65.8301163  32.4310446  53.1289896  64.9759451  33.6780173  53.2146096
  77.7095692  40.0092339  58.1394812  78.5786851  40.1832992  57.7781447
  77.2302443  40.8286756  58.0170541  73.7045910  27.2051536  38.3926567
  73.6924580  28.1493376  38.5494838  74.5969332  27.0221682  38.0986028
  71.8781872  47.1289440  49.8184245  72.7809119  47.1613051  50.1350740
  71.6519242  46.1989891  49.8330581  73.6335474  45.8820427  46.4794324
  72.6831105  45.8822288  46.3658696  73.9367960  45.1353161  45.9630358
  77.5198029  23.7994313  42.6472504  76.7530425  23.2452800  42.7929186
  77.9308734  23.8716182  43.5086656  69.5239790  30.0879109  56.7377685
  70.3871252  29.7315914  56.9481010  68.9505201  29.7493004  57.4253090
  89.3688167  51.7180965  47.5440086  90.0066577  51.5987713  46.8403426
  89.2509010  52.6661809  47.6028038  86.1777874  51.6708393  47.4801611
  85.8396385  51.5549458  46.5922146  87.0467642  51.2699558  47.4602617
  82.0364689  53.5243870  43.4698502  81.4729554  53.4333807  42.7014790
  81.9217084  52.7043774  43.9500994  86.6597657  52.8243245  53.4387816
  86.6486297  52.4296043  52.5668320  86.8218296  52.0909318  54.0321588
  79.5829121  55.0195061  46.3082722  80.3750413  54.6785886  45.8929022
  79.8225771  55.1290036  47.2284876  87.6164248  57.1914837  38.7812967
  86.9652228  57.7768918  38.3946981  88.4108611  57.7221032  38.8408004
  81.5419875  54.2803975  39.1800101  82.3150751  53.7332962  39.0412977
  81.8945274  55.1448224  39.3914563  83.3804918  55.6080357  52.3867000
  83.0894784  56.5125988  52.2713667  84.0161902  55.6496884  53.1011070
  84.3061125  52.9857205  48.9768360  84.9024697  52.7613228  48.2625323
  84.3636096  52.2441951  49.5793808  83.8786153  50.4396641  36.8118551
  84.1311674  49.9178162  36.0502014  82.9410712  50.2762786  36.9145235
  88.9229436  49.4432419  44.6193294  89.7092525  49.0251842  44.2683711
  89.1868140  50.3478511  44.7874943  89.0939513  54.8805269  39.3181951
  88.4585346  54.9539896  40.0302856  88.7636920  55.4698868  38.6401030
  94.3237863  49.3807652  45.5226273  95.0563035  48.8106869  45.7564102
  93.5677219  48.9929253  45.9632778  83.5982442  52.3424747  39.0142926
  83.4818700  51.6669650  39.6824010  83.7084702  51.8557121  38.1975079
  85.9413983  51.8034894  42.7189615  85.5772190  51.2765515  43.4302537
  86.7981099  51.4133363  42.5456101  91.8463283  43.0929226  49.9820881
  91.5146608  43.9624637  49.7582096  91.2508897  42.7765510  50.6614912
  85.5819470  46.8324793  37.7150964  85.7493872  47.7005030  38.0821435
  85.3916639  46.9952075  36.7912253  88.3394803  55.2941772  49.3816794
  88.0395526  56.1966811  49.2732601  87.9945862  55.0273956  50.2337947
  81.7907284  51.7455569  45.4153499  80.8657781  51.6131783  45.6231190
  82.0391698  52.5249788  45.9123441  91.7391947  47.8124313  47.0614231
  90.8308824  47.7439721  46.7672992  91.6879542  48.2896257  47.8896057
  85.5608691  49.2882451  38.6997631  85.4408316  49.7339502  39.5383111
  84.8661279  49.6367769  38.1411169  79.1516095  51.3888843  46.2497288
  79.2808477  51.6423322  47.1636699  78.4713547  51.9816551  45.9301943
  83.3215583  62.0586093  42.3487762  83.2439612  63.0093918  42.4276242
  82.7177226  61.7131965  43.0062688  85.8132812  49.2313958  55.0049129
  85.0366146  49.7907878  54.9951993  86.4523375  49.7170741  55.5263999
  93.6053593  46.0140751  48.8392105  92.9627973  46.3073284  48.1931900
  93.1008522  45.8993671  49.6445302  91.2593757  49.7603924  39.5277965
  92.1711613  49.9931311  39.3525662  90.7503404  50.3440968  38.9653043
  84.0679185  52.0399412  54.5667096  84.8093869  52.5784455  54.2901919
  83.3616170  52.6665700  54.7238648  89.5434524  54.1828552  53.1639257
  89.9517880  53.7410962  52.4193890  88.8211786  53.6081179  53.4173450
  85.8965594  49.1201159  50.5372814  86.7426790  49.5440572  50.6807463
  85.8364232  48.4634783  51.2311377  89.8663339  54.7429743  46.9191546
  89.2372201  54.9075457  46.2167614  89.4789001  55.1571352  47.6902510
  93.7452571  55.6784180  44.2735910  93.0603609  56.0583082  43.7232943
  93.8296420  56.2879507  45.0067858  89.0465040  46.7805527  52.1953988
  88.8025972  47.5347588  51.6588264  89.3224970  47.1590875  53.0301235
  91.0003503  53.3244139  50.8731253  91.2120398  53.9675899  50.1965634
  90.9533251  52.4906456  50.4053183  88.6029731  45.9361960  47.7767826
  87.7414210  46.2343214  48.0684563  88.6292166  46.1532359  46.8448858
  85.4191301  54.4804151  44.1841631  85.8829646  54.7591854  43.3946254
  85.1548099  53.5787595  44.0014722  82.3115382  54.0275632  47.1221394
  82.8816739  54.4562901  46.4838879  82.9023494  53.7458217  47.8205580
  84.3560187  50.6027303  40.9931196  85.0584230  51.0548347  41.4605123
  84.0240815  49.9611122  41.6211089  82.8040548  49.1939060  55.3682406
  82.1739209  49.8755341  55.6017803  82.6976636  49.0822141  54.4235544
  78.0985521  48.8610856  46.2948330  77.3084575  49.1168384  45.8188441
  78.5896768  49.6759194  46.4000370  92.1149330  56.2016095  49.0453611
  92.9366774  55.7996282  48.7636292  92.1111733  56.0984329  49.9969727
  80.0500266  49.2255435  43.2531807  79.2531430  49.3374129  43.7715302
  79.8225858  49.5642087  42.3872697  85.8805934  55.7500138  51.2014321
  85.9450366  56.2120545  52.0372493  85.1716858  55.1197503  51.3296631
  76.3823224  49.1141346  48.7263321  76.6331262  49.9988356  48.9920897
  76.9182772  48.9345948  47.9538413 100.2055324  52.5454843  45.3938582
  99.4519032  51.9762241  45.2382587 100.3402865  52.5117508  46.3409217
  85.5953952  57.4168246  41.0693302  85.4599626  58.2619781  41.4978149
  86.1363764  57.6187523  40.3059235  82.0821291  43.4959826  57.7307657
  81.6888237  42.9426024  58.4055301  82.8987432  43.8070404  58.1214174
  79.0483349  54.9343684  41.6421227  79.5607870  55.7286934  41.7926791
  79.7006062  54.2369974  41.5754828  80.8578234  58.0509440  43.7243980
  81.0344862  58.9727405  43.5364964  81.6535067  57.7367859  44.1538360
  84.9989252  44.9117705  55.3227913  85.7398966  45.5124858  55.2432376
  85.2307175  44.1695342  54.7645956  80.1430590  50.0974072  53.6006143
  80.0284105  49.1959329  53.9013242  79.2875108  50.3437769  53.2490960
  87.2222428  58.0391812  55.1993644  86.7786282  57.2528191  54.8814548
  87.8839642  58.2270963  54.5337534  81.9809549  59.5687614  49.7254322
  82.5316974  59.4404677  48.9531316  81.1421025  59.8682503  49.3749215
  89.3203666  58.3194612  53.2275045  89.3022141  59.1403493  52.7355314
  90.2423586  58.1948687  53.4525186  85.7776720  55.8338742  54.0698553
  86.3105057  55.0727030  53.8397861  85.2490801  55.5412393  54.8122708
  88.9446415  40.9398808  49.5992195  88.6010685  41.8300449  49.5231306
  89.3125378  40.7500465  48.7361780  77.0132266  53.2632338  42.4180797
  77.8507488  53.6729346  42.2014505  77.1910533  52.3231780  42.3880991
  88.9096698  50.9307419  38.1064630  88.3943321  51.7012023  38.3453018
  88.6374006  50.2572555  38.7297692  86.4943809  45.7757119  43.1649869
  85.6385405  45.3863970  42.9855507  86.9070761  45.8549080  42.3049654
  88.0242956  43.3103463  47.5641428  87.5207751  43.2733598  46.7509234
  88.3173562  44.2196205  47.6238085  84.2685841  43.3942192  46.5707610
  85.1338838  43.1985001  46.2113499  84.3363350  43.1652544  47.4976967
  93.8830972  53.6839773  40.0417804  93.1060415  53.3450933  39.5972966
  94.5622453  53.6892396  39.3672769  88.6983001  48.8034511  39.9324411
  88.3933137  49.1180660  40.7834555  89.6513443  48.8815931  39.9751744
  87.1429433  54.9624734  41.5817365  86.6150794  54.2277494  41.2690603
  86.6416936  55.7399410  41.3357334  92.1222279  53.1573755  46.6984412
  91.4645953  53.8473016  46.7864540  92.9262678  53.5470187  47.0418398
  81.8748160  45.6244400  43.9423977  82.4491912  45.4019582  43.2097170
  82.4619143  45.6933095  44.6952578  90.9327738  51.5118127  44.7488353
  91.4459619  52.1448119  45.2510063  91.5828962  50.9119323  44.3831713
  82.2017748  47.6548861  37.9619862  81.3655060  47.9923548  38.2829137
  82.0622517  47.5197841  37.0246999  84.1770828  42.4985649  42.6699046
  83.5235241  42.1834666  42.0455661  84.1351302  41.8761390  43.3958869
  85.2882033  52.7804944  34.5852338  84.3809095  52.5494198  34.7843487
  85.7853065  51.9842564  34.7726320  88.1950112  61.4902452  37.5049025
  87.5211811  61.7934148  38.1133982  88.5815934  62.2931532  37.1554482
  87.4108569  48.9867583  46.9946694  86.4931130  49.2082530  46.8368382
  87.8268712  49.0613893  46.1358401  88.1943616  50.3858998  42.1249374
  88.9415435  50.8980396  41.8156496  88.4635206  50.0643051  42.9853768
  86.4670266  52.8817539  39.1076328  85.5581486  52.5976572  39.2048798
  86.4965350  53.3016618  38.2479635  91.6989534  56.4924129  42.8767496
  91.2451861  55.6515039  42.9332686  91.0683501  57.1285527  43.2142276
  90.6422453  47.4216115  44.1068163  89.9045210  46.9093501  44.4378406
  90.8949227  46.9816496  43.2951440  90.1422473  58.3300625  43.8117314
  90.4345448  58.8905683  43.0929680  90.6521094  58.6229186  44.5670473
  90.7434081  40.1992367  44.7009933  91.0492958  39.3389730  44.4135848
  91.4686686  40.7909987  44.5008927  77.0358437  50.6023053  43.0891531
  76.8382837  50.0092414  42.3642597  76.4805101  50.2975264  43.8067469
  85.0155161  50.4946160  45.2086124  85.0703770  49.5419996  45.1328600
  84.2046363  50.6505599  45.6927422  86.1646354  54.4226283  36.4464407
  85.7265784  53.7062142  35.9870044  86.9056795  54.6502398  35.8849498
  82.9547520  49.1123220  42.9676503  82.1415386  49.4117390  43.3741695
  83.4506515  48.7178908  43.6850985  85.1056098  59.1080976  44.9010767
  85.0632277  59.3341823  43.9719299  86.0218797  58.8744351  45.0496569
  88.5521732  49.5765044  51.7991397  88.9071120  49.8036517  52.6585862
  89.1993863  49.9083421  51.1768652  94.2819469  52.6983480  42.5040726
  94.1437368  52.8885076  41.5761915  93.9255688  53.4602863  42.9608777
  82.4461595  46.6841575  48.5837738  83.0860975  46.5430334  47.8860701
  81.6139126  46.3976088  48.2076340  94.3088849  54.7660007  47.5151997
  94.7425355  54.6735296  48.3635051  95.0220429  54.7417507  46.8772013
  83.2221899  55.9844005  44.6972730  84.0162498  55.4894326  44.4955305
  82.5113591  55.4561869  44.3340436  88.0416744  58.3662101  49.0485098
  88.0953766  58.9353037  49.8162814  87.1731525  58.5363986  48.6839135
  79.5304663  50.1287087  40.7732483  78.6002251  50.0671543  40.9902445
  79.6262135  49.6063040  39.9769124  79.4490212  46.6541900  43.3610724
  79.7097029  47.5687233  43.2519885  80.2707384  46.1866343  43.5107337
  80.9215137  48.0679657  50.5309549  81.5938190  47.8597019  49.8822198
  80.0944923  47.8701743  50.0914781  95.1704398  54.8083708  50.0484882
  95.3640288  55.7129518  50.2944157  95.0705016  54.3491127  50.8823468
  86.8240709  44.6941598  52.5475210  86.1768624  45.3931548  52.4539686
  87.5941724  45.1277742  52.9151458  90.2319507  54.9590450  55.6225763
  90.0805013  54.7301002  54.7055847  90.2224186  55.9161052  55.6357108
  87.0004843  52.5322363  50.6072030  87.9296903  52.6833523  50.4340997
  86.5795873  52.6206384  49.7520676  85.7993175  56.5573027  48.3770567
  85.6604261  56.1891812  49.2496505  85.0107771  57.0720667  48.2054525
  86.3941327  61.6582124  39.7196104  86.5693083  61.1870167  40.5341726
  85.7074115  62.2847890  39.9477364  87.3498390  55.9354630  45.7659405
  87.0148223  55.8955400  46.6617055  86.8502336  55.2699346  45.2929815
  81.3242634  51.3422260  51.2911986  81.1862432  50.6102499  51.8923525
  82.2347558  51.2531160  51.0096174  90.2857582  53.2810665  36.0396465
  89.6686753  52.5557493  35.9429517  89.8174070  54.0420025  35.6963539
  83.9524935  51.0542220  50.7795666  84.6624553  50.4135412  50.7382284
  83.9094243  51.3055114  51.7021847  91.9411714  57.9909573  53.7002245
  91.8824260  57.3068793  53.0332828  92.3431232  58.7328563  53.2482871
  82.6653869  48.0407437  52.5991305  82.1291226  47.5898176  53.2512902
  82.0770577  48.1753346  51.8561770  82.0756128  47.4996089  35.1617769
  81.1985594  47.3784890  34.7980016  82.5513881  46.7082167  34.9096658
  91.9429121  55.9549157  51.9316225  91.0555900  55.6175079  52.0542624
  92.5127672  55.2232188  52.1684990  73.5958268  52.2873249  45.2559276
  74.2829308  51.9734979  44.6680291  73.4406397  53.1914613  44.9826527
  78.3992990  47.1763445  49.6844300  78.3151179  46.5689115  48.9494710
  77.5775696  47.6672463  49.6853796  85.4730274  60.6150609  48.8977468
  85.4000446  61.4205581  49.4096772  85.0307667  60.8142575  48.0725489
  85.2620054  59.8522379  42.4080289  84.4787576  60.3944059  42.5018514
  85.9612799  60.3696359  42.8074531  88.5716704  45.6617009  45.0514495
  89.0685403  44.9086971  44.7315565  87.8003685  45.6981325  44.4857704
  96.4246461  51.3657374  46.6932786  96.4136338  52.2482090  46.3226719
  95.5563841  51.0128925  46.4987323  87.9328958  60.5137443  51.0535627
  88.6456930  61.1484908  50.9811528  87.4418986  60.6101309  50.2375628
  89.6546485  54.4188696  42.6252918  88.7202763  54.5390158  42.4557623
  89.8323153  53.5161163  42.3612928  85.1551673  47.8034392  44.7786179
  84.7849460  47.2505432  45.4667085  85.6510765  47.1992525  44.2261179
  93.0419036  50.2606015  43.1602952  93.5079488  51.0934007  43.0863255
  93.4926536  49.7950997  43.8648211  82.9840871  58.2631887  51.8741197
  83.6850331  58.8968370  52.0270592  82.5135986  58.6046618  51.1136837
  91.1095267  56.6049836  40.1589104  91.3855111  56.4906431  41.0682978
  90.2399766  56.2067321  40.1201277  91.0135699  42.6286602  47.1993854
  90.0998779  42.8590829  47.3676061  91.4428800  42.7125046  48.0507886
  90.7842157  50.8176494  49.6993748  90.1313607  51.0652402  49.0446200
  91.1622537  50.0040632  49.3656225  87.7449331  60.8536187  43.8021918
  87.9271726  60.0357843  44.2649670  88.5682317  61.0703880  43.3646808
  88.0791497  59.7804372  41.0636966  88.6079263  59.2696827  40.4507129
  88.3419716  59.4646903  41.9282499  86.8329730  51.5596305  56.1859785
  86.1570367  51.4590434  56.8562160  87.6557364  51.4035519  56.6495782
  81.4347245  60.8319489  43.8234742  80.7657620  61.3165617  43.3398782
  81.2960114  61.0788710  44.7378121  73.1726244  50.3673842  47.5276743
  73.2110344  49.8337433  48.3213861  72.6666537  49.8409047  46.9087720
  85.5752513  62.8663233  50.4217401  86.1270821  63.0294854  51.1866486
  85.9158707  63.4567670  49.7497426  80.5517006  45.2138382  51.0239285
  80.6158333  46.0753213  50.6116683  80.4884127  44.6012384  50.2911644
  90.4263387  57.6924490  56.2766055  90.9703291  58.3054448  55.7821010
  89.8450232  58.2504069  56.7933068  76.8034822  49.0937944  40.6030675
  77.0988263  48.1848622  40.5497728  75.9022857  49.0725684  40.2811677
  88.7120900  60.8145208  47.4081083  88.5872040  60.0134948  46.8992028
  89.3699992  61.3091402  46.9195053  80.3329069  47.1693941  46.5858223
  79.6115654  47.7829908  46.4465696  81.1222324  47.7051705  46.5074869
  90.7755809  58.6154228  49.0360633  89.8286144  58.4959579  48.9638960
  91.1238582  57.7276726  49.1186894  83.1355382  44.5048367  52.8598875
  83.6589784  44.7510664  53.6225184  82.9167715  45.3368402  52.4402012
  78.5322663  46.7752042  40.7270000  78.2035369  45.8949421  40.5445106
  78.8862034  46.7199710  41.6146389  87.7802242  58.4106944  45.2364985
  87.6327205  57.4823652  45.4172555  88.6055736  58.4327035  44.7522060
  81.6464486  47.0625012  41.0945477  81.9860559  47.5910933  40.3724086
  82.0936607  47.4005418  41.8704044  91.3836364  59.2335503  46.3229858
  92.3082911  59.0278365  46.1854309  91.2151667  58.9851904  47.2319199
  84.3407927  45.4462062  50.5448545  84.0004748  44.6469875  50.9469225
  83.6346933  45.7463773  49.9725379  84.9924399  42.5311375  48.9975868
  85.8150468  42.0571853  48.8754759  85.2362463  43.3101858  49.4974555
  83.6332634  45.5599633  39.2938770  84.3540996  45.9380886  38.7902487
  83.0097938  46.2788510  39.3973748  87.7763756  46.2644782  40.2297102
  87.9927371  47.1469420  39.9285931  87.2957824  45.8730996  39.5002744
  82.5162978  49.2230495  46.8067847  82.3707559  49.5370798  47.6992129
  82.0388181  49.8415396  46.2538746  84.3759361  46.2133043  46.8548737
  84.3620929  45.3174137  46.5181035  85.0931789  46.2203707  47.4887023
  86.2285491  46.6470384  48.9001864  85.9703269  47.5687454  48.8986194
  85.6970532  46.2500818  49.5902328  91.1731680  59.7521171  41.6791949
  91.3468558  59.1867593  40.9265802  91.6660571  60.5522066  41.4971439
  76.9908640  51.7635840  49.7455508  76.4462108  52.5395648  49.8775783
  77.8687990  52.1106644  49.5874630  83.7796257  45.0947424  42.1236307
  83.9012168  44.1664070  42.3227194  83.4898299  45.1086110  41.2114622
  86.6487447  42.7802334  45.2603027  86.6709144  42.8441667  44.3055006
  87.0655506  41.9406843  45.4543533  97.0271071  52.5157594  43.2982249
  97.4702217  51.7664919  42.9001372  96.1497582  52.5067730  42.9155981
  92.1606853  59.0687935  38.7788848  92.8557757  59.6894628  38.9976162
  92.5030003  58.2183286  39.0541226  94.0598276  56.5187641  40.3076178
  94.5849600  56.8574913  39.5825499  93.9720628  55.5834656  40.1239313
  85.7218324  60.4321714  52.4366055  86.0305451  60.1870861  53.3088755
  86.5193806  60.6368353  51.9484925  85.7438937  62.5859624  44.6671432
  85.3043927  62.0936003  45.3604288  86.4947053  62.0432592  44.4263507
  78.2231275  58.7771165  44.6696060  79.0489295  58.4774937  44.2894703
  77.8725327  58.0078787  45.1185848  83.1912809  58.1297633  46.7393733
  82.5692818  57.4668338  46.4395961  83.8617676  58.1558765  46.0567381
  83.2637336  46.6079421  56.3326239  83.3125492  47.4841544  55.9504009
  83.8059850  46.0656814  55.7597883  93.7492182  57.1520544  55.6127376
  92.9587726  57.1344683  55.0731876  93.5125536  57.6908838  56.3676413
  93.8690057  54.0013011  52.9260105  93.9188062  53.8363018  53.8675628
  93.7603980  53.1340270  52.5357986  82.7526316  56.6801556  40.2152194
  82.9014436  57.3637021  39.5618867  83.5592759  56.6606646  40.7301650
  91.1593819  49.9843939  54.2419412  92.0603682  49.8450403  53.9503409
  91.2341794  50.1498393  55.1817589  85.4936625  47.3610793  53.0872598
  84.6239934  47.6544359  52.8155187  85.7296105  47.9451238  53.8079862
  95.3708254  56.4209952  53.1702127  95.0793062  56.7839933  54.0065587
  94.7580385  55.7076960  52.9915459  96.5703936  53.9862832  45.6904697
  97.4050827  54.4252636  45.8542257  96.7063065  53.5101485  44.8712943
  93.6195442  51.5442567  51.6382185  94.0949564  51.7370213  50.8301036
  92.6961007  51.6001753  51.3925568  80.5078949  52.7066734  41.2213263
  80.2624990  51.8029064  41.4193473  80.6774863  52.7083884  40.2792741
  88.1975658  43.5790410  50.6038018  88.7157602  44.3151437  50.2784507
  87.8430791  43.8854404  51.4384778  79.7774596  48.4395091  38.7199424
  79.0843841  48.5139446  38.0639460  79.5326348  47.6755435  39.2420941
  88.4488253  39.9990693  46.1238915  88.7290006  39.3313882  46.7499342
  89.2338860  40.1919788  45.6113579  86.2521721  59.1749687  37.6863941
  85.6795688  59.7939874  37.2334413  86.8254515  59.7249048  38.2203863
  92.3197111  48.4208327  49.8710490  93.2714534  48.5206424  49.8922714
  92.1500561  47.6286595  50.3808574  90.3411490  45.5063910  50.0569891
  89.7461423  45.7868923  49.3616380  90.0561187  45.9957811  50.8286632
  89.4718981  59.4586837  38.8172524  90.4049654  59.3932399  39.0205399
  89.3842194  60.2943104  38.3587056  92.1006998  58.7752707  35.7776471
  92.0220629  58.4412571  36.6712229  92.9216664  59.2674475  35.7767943
  94.7985189  51.6414447  48.9852790  94.7661509  50.7030447  49.1712474
  95.4085812  51.7198483  48.2518615  86.6368520  50.5110499  35.0279994
  87.5827624  50.3816708  35.0968412  86.2582765  49.7725161  35.5049422
  94.9479677  48.4325490  49.0311073  94.4318726  47.6483947  48.8441002
  95.8319626  48.1044207  49.1957592  92.6090404  42.1766506  44.9906886
  92.4115225  41.8681594  45.8750218  93.2190110  42.9028144  45.1204815
 100.6161739  52.7030453  48.1258827 101.3465127  52.4415741  48.6866530
 100.0068684  51.9659175  48.1660895  98.6977036  50.8438316  48.7233278
  97.9710199  50.7094281  48.1149769  98.2824323  51.1515145  49.5289996
  86.5207212  54.5628246  56.4880651  87.4410222  54.7406845  56.6820697
  86.4856795  53.6184291  56.3360350  84.8211437  48.4360476  34.9634879
  83.9142892  48.1393589  35.0397593  85.0987418  48.1390294  34.0969165
  75.7389377  49.7566839  45.4133925  75.4192161  48.9032147  45.1208299
  75.1922805  49.9715417  46.1691893  79.5169285  52.4729280  49.1303432
  79.7355294  53.4046388  49.1491466  79.9295058  52.1137255  49.9158236
  86.4373502  42.9797366  41.1179120  85.6274231  42.6344451  41.4934366
  87.1257919  42.6704909  41.7066732  88.3664051  42.0575412  42.7403417
  88.9195089  42.4770866  43.3993440  88.6034137  41.1311160  42.7826373
  84.3897150  48.0462486  58.5206181  84.2893877  48.9956843  58.4518272
  84.1718692  47.7180725  57.6482251  83.5910221  45.2947411  35.1046858
  84.4529385  45.6202309  35.3642676  83.7760566  44.5078907  34.5919924
  75.6077637  53.3769751  47.3827047  74.9141109  52.9623704  46.8697001
  76.3550628  53.4190287  46.7860466  91.7442858  44.1675938  42.2482081
  91.1641527  44.8260742  41.8660134  91.4778791  43.3453282  41.8369499
  90.1946424  43.5680995  44.4503402  90.6946203  43.6797530  43.6417720
  90.8382032  43.2642048  45.0904210  84.2528420  51.4759625  57.3371243
  83.7695502  52.2759985  57.5435132  84.3389359  51.4867570  56.3838687
  77.5214380  53.3088005  45.2593062  77.4985068  53.4075692  44.3074945
  77.8315016  54.1553155  45.5810228  80.1801758  55.3664160  49.3739676
  81.1345011  55.3348102  49.3069608  79.9814281  54.9054783  50.1889902
  80.7701140  53.9365276  51.9410474  81.5894029  54.4309354  51.9645311
  81.0437947  53.0197244  51.9128041  90.5267736  46.3276028  41.3038429
  89.6393591  46.6125679  41.0858624  90.9421725  46.1669791  40.4565706
  93.8782272  46.3522549  45.0192769  94.6542662  46.8419001  45.2917386
  93.1530406  46.7780603  45.4764638  96.3154831  47.0650168  46.0766709
  96.9099321  46.8245904  45.3660018  96.3881414  46.3457299  46.7040246
  89.6710949  56.0920703  35.3986449  90.3746799  56.2970705  36.0144105
  88.9473598  56.6597464  35.6635533  90.5008760  51.8430564  41.5188720
  90.4443961  52.2999115  40.6796352  91.0537102  51.0821248  41.3411562
  94.3113566  47.6320296  42.3438839  94.0550500  47.2316931  43.1747047
  93.6866434  48.3464090  42.2188978  98.6225903  50.3716369  44.8510131
  98.0625461  50.4409558  45.6241693  98.0169407  50.1957354  44.1309627
  81.6921112  61.8053096  46.6028317  81.5753496  62.7498529  46.5007007
  80.8713558  61.5026658  46.9914116  91.5797647  56.5303232  37.4484910
  92.4143251  56.0984430  37.2662384  91.4181990  56.3585245  38.3761804
  91.2343539  53.0335345  38.8141249  91.1792343  52.8679617  37.8729693
  90.6089594  53.7411378  38.9703439  88.5489446  55.3384257  58.1394812
  89.4180606  55.5124909  57.7781447  88.0696198  56.1578674  58.0170541
  84.5439664  42.5343454  38.3926567  84.5318334  43.4785294  38.5494838
  85.4363086  42.3513600  38.0986028  82.7175626  62.4581358  49.8184245
  83.6202873  62.4904968  50.1350740  82.4912996  61.5281809  49.8330581
  84.4729228  61.2112345  46.4794324  83.5224859  61.2114206  46.3658696
  84.7761714  60.4645079  45.9630358  88.3591784  39.1286231  42.6472504
  87.5924180  38.5744717  42.7929186  88.7702489  39.2008100  43.5086656
  80.3633545  45.4171027  56.7377685  81.2265006  45.0607831  56.9481010
  79.7898956  45.0784921  57.4253090 100.2081922  67.0472883  47.5440086
 100.8460332  66.9279630  46.8403426 100.0902765  67.9953727  47.6028038
  97.0171628  67.0000311  47.4801611  96.6790140  66.8841376  46.5922146
  97.8861396  66.5991476  47.4602617  92.8758444  68.8535787  43.4698502
  92.3123309  68.7625724  42.7014790  92.7610839  68.0335692  43.9500994
  97.4991411  68.1535163  53.4387816  97.4880052  67.7587961  52.5668320
  97.6612051  67.4201235  54.0321588  90.4222876  70.3486979  46.3082722
  91.2144168  70.0077804  45.8929022  90.6619526  70.4581954  47.2284876
  98.4558003  72.5206755  38.7812967  97.8045982  73.1060836  38.3946981
  99.2502365  73.0512950  38.8408004  92.3813630  69.6095892  39.1800101
  93.1544506  69.0624879  39.0412977  92.7339029  70.4740142  39.3914563
  94.2198672  70.9372275  52.3867000  93.9288538  71.8417905  52.2713667
  94.8555657  70.9788802  53.1011070  95.1454879  68.3149123  48.9768360
  95.7418451  68.0905145  48.2625323  95.2029851  67.5733869  49.5793808
  94.7179908  65.7688558  36.8118551  94.9705428  65.2470080  36.0502014
  93.7804467  65.6054704  36.9145235  99.7623190  64.7724337  44.6193294
 100.5486280  64.3543760  44.2683711 100.0261895  65.6770429  44.7874943
  99.9333268  70.2097187  39.3181951  99.2979101  70.2831814  40.0302856
  99.6030674  70.7990786  38.6401030 105.1631617  64.7099570  45.5226273
 105.8956789  64.1398787  45.7564102 104.4070973  64.3221170  45.9632778
  94.4376196  67.6716664  39.0142926  94.3212454  66.9961568  39.6824010
  94.5478456  67.1849038  38.1975079  96.7807737  67.1326811  42.7189615
  96.4165944  66.6057432  43.4302537  97.6374853  66.7425281  42.5456101
 102.6857038  58.4221144  49.9820881 102.3540363  59.2916555  49.7582096
 102.0902651  58.1057428  50.6614912  96.4213224  62.1616711  37.7150964
  96.5887626  63.0296948  38.0821435  96.2310393  62.3243993  36.7912253
  99.1788557  70.6233690  49.3816794  98.8789280  71.5258729  49.2732601
  98.8339617  70.3565873  50.2337947  92.6301039  67.0747487  45.4153499
  91.7051535  66.9423701  45.6231190  92.8785452  67.8541706  45.9123441
 102.5785701  63.1416230  47.0614231 101.6702578  63.0731639  46.7672992
 102.5273297  63.6188175  47.8896057  96.4002445  64.6174369  38.6997631
  96.2802070  65.0631419  39.5383111  95.7055033  64.9659686  38.1411169
  89.9909850  66.7180760  46.2497288  90.1202231  66.9715239  47.1636699
  89.3107301  67.3108468  45.9301943  94.1609337  77.3878010  42.3487762
  94.0833367  78.3385835  42.4276242  93.5570981  77.0423883  43.0062688
  96.6526567  64.5605876  55.0049129  95.8759901  65.1199796  54.9951993
  97.2917130  65.0462659  55.5263999 104.4447348  61.3432669  48.8392105
 103.8021728  61.6365202  48.1931900 103.9402276  61.2285589  49.6445302
 102.0987511  65.0895842  39.5277965 103.0105367  65.3223229  39.3525662
 101.5897158  65.6732886  38.9653043  94.9072939  67.3691329  54.5667096
  95.6487624  67.9076373  54.2901919  94.2009925  67.9957618  54.7238648
 100.3828279  69.5120470  53.1639257 100.7911635  69.0702880  52.4193890
  99.6605540  68.9373097  53.4173450  96.7359349  64.4493076  50.5372814
  97.5820544  64.8732490  50.6807463  96.6757987  63.7926701  51.2311377
 100.7057093  70.0721660  46.9191546 100.0765956  70.2367374  46.2167614
 100.3182756  70.4863270  47.6902510 104.5846325  71.0076098  44.2735910
 103.8997364  71.3874999  43.7232943 104.6690175  71.6171425  45.0067858
  99.8858794  62.1097445  52.1953988  99.6419726  62.8639505  51.6588264
 100.1618725  62.4882792  53.0301235 101.8397257  68.6536057  50.8731253
 102.0514152  69.2967817  50.1965634 101.7927005  67.8198374  50.4053183
  99.4423486  61.2653878  47.7767826  98.5807965  61.5635131  48.0684563
  99.4685921  61.4824277  46.8448858  96.2585055  69.8096068  44.1841631
  96.7223401  70.0883771  43.3946254  95.9941853  68.9079513  44.0014722
  93.1509136  69.3567550  47.1221394  93.7210493  69.7854818  46.4838879
  93.7417248  69.0750135  47.8205580  95.1953941  65.9319221  40.9931196
  95.8977985  66.3840264  41.4605123  94.8634570  65.2903040  41.6211089
  93.6434303  64.5230977  55.3682406  93.0132964  65.2047258  55.6017803
  93.5370391  64.4114059  54.4235544  88.9379275  64.1902773  46.2948330
  88.1478329  64.4460302  45.8188441  89.4290523  65.0051111  46.4000370
 102.9543085  71.5308013  49.0453611 103.7760529  71.1288200  48.7636292
 102.9505488  71.4276247  49.9969727  90.8894021  64.5547353  43.2531807
  90.0925184  64.6666047  43.7715302  90.6619613  64.8934005  42.3872697
  96.7199688  71.0792056  51.2014321  96.7844121  71.5412463  52.0372493
  96.0110612  70.4489421  51.3296631  87.2216978  64.4433264  48.7263321
  87.4725017  65.3280274  48.9920897  87.7576527  64.2637865  47.9538413
 111.0449078  67.8746761  45.3938582 110.2912786  67.3054159  45.2382587
 111.1796619  67.8409426  46.3409217  96.4347706  72.7460163  41.0693302
  96.2993381  73.5911699  41.4978149  96.9757519  72.9479441  40.3059235
  92.9215046  58.8251743  57.7307657  92.5281991  58.2717942  58.4055301
  93.7381186  59.1362322  58.1214174  89.8877103  70.2635601  41.6421227
  90.4001624  71.0578852  41.7926791  90.5399816  69.5661892  41.5754828
  91.6971988  73.3801358  43.7243980  91.8738616  74.3019322  43.5364964
  92.4928822  73.0659777  44.1538360  95.8383007  60.2409622  55.3227913
  96.5792720  60.8416775  55.2432376  96.0700929  59.4987260  54.7645956
  90.9824345  65.4265990  53.6006143  90.8677860  64.5251247  53.9013242
  90.1268862  65.6729686  53.2490960  98.0616182  73.3683730  55.1993644
  97.6180037  72.5820108  54.8814548  98.7233396  73.5562880  54.5337534
  92.8203304  74.8979531  49.7254322  93.3710729  74.7696595  48.9531316
  91.9814779  75.1974420  49.3749215 100.1597420  73.6486530  53.2275045
 100.1415896  74.4695411  52.7355314 101.0817341  73.5240605  53.4525186
  96.6170475  71.1630659  54.0698553  97.1498811  70.4018947  53.8397861
  96.0884556  70.8704311  54.8122708  99.7840170  56.2690725  49.5992195
  99.4404439  57.1592367  49.5231306 100.1519132  56.0792383  48.7361780
  87.8526020  68.5924256  42.4180797  88.6901242  69.0021264  42.2014505
  88.0304288  67.6523698  42.3880991  99.7490452  66.2599336  38.1064630
  99.2337076  67.0303941  38.3453018  99.4767761  65.5864473  38.7297692
  97.3337563  61.1049037  43.1649869  96.4779160  60.7155888  42.9855507
  97.7464515  61.1840998  42.3049654  98.8636710  58.6395380  47.5641428
  98.3601506  58.6025516  46.7509234  99.1567317  59.5488123  47.6238085
  95.1079596  58.7234110  46.5707610  95.9732593  58.5276919  46.2113499
  95.1757105  58.4944462  47.4976967 104.7224726  69.0131691  40.0417804
 103.9454169  68.6742850  39.5972966 105.4016207  69.0184314  39.3672769
  99.5376755  64.1326428  39.9324411  99.2326891  64.4472578  40.7834555
 100.4907198  64.2107848  39.9751744  97.9823187  70.2916652  41.5817365
  97.4544549  69.5569411  41.2690603  97.4810690  71.0691328  41.3357334
 102.9616033  68.4865672  46.6984412 102.3039708  69.1764934  46.7864540
 103.7656433  68.8762104  47.0418398  92.7141915  60.9536318  43.9423977
  93.2885667  60.7311500  43.2097170  93.3012897  61.0225013  44.6952578
 101.7721492  66.8410045  44.7488353 102.2853374  67.4740037  45.2510063
 102.4222716  66.2411240  44.3831713  93.0411502  62.9840779  37.9619862
  92.2048814  63.3215466  38.2829137  92.9016272  62.8489759  37.0246999
  95.0164583  57.8277567  42.6699046  94.3628995  57.5126584  42.0455661
  94.9745057  57.2053307  43.3958869  96.1275788  68.1096862  34.5852338
  95.2202849  67.8786115  34.7843487  96.6246820  67.3134481  34.7726320
  99.0343866  76.8194369  37.5049025  98.3605565  77.1226066  38.1133982
  99.4209688  77.6223450  37.1554482  98.2502323  64.3159500  46.9946694
  97.3324884  64.5374447  46.8368382  98.6662467  64.3905811  46.1358401
  99.0337371  65.7150916  42.1249374  99.7809190  66.2272313  41.8156496
  99.3028960  65.3934969  42.9853768  97.3064021  68.2109457  39.1076328
  96.3975240  67.9268490  39.2048798  97.3359105  68.6308535  38.2479635
 102.5383288  71.8216046  42.8767496 102.0845615  70.9806956  42.9332686
 101.9077255  72.4577445  43.2142276 101.4816208  62.7508032  44.1068163
 100.7438965  62.2385419  44.4378406 101.7342981  62.3108414  43.2951440
 100.9816228  73.6592543  43.8117314 101.2739202  74.2197600  43.0929680
 101.4914848  73.9521104  44.5670473 101.5827835  55.5284284  44.7009933
 101.8886712  54.6681648  44.4135848 102.3080440  56.1201905  44.5008927
  87.8752191  65.9314971  43.0891531  87.6776591  65.3384332  42.3642597
  87.3198855  65.6267181  43.8067469  95.8548915  65.8238077  45.2086124
  95.9097525  64.8711914  45.1328600  95.0440117  65.9797517  45.6927422
  97.0040109  69.7518201  36.4464407  96.5659539  69.0354059  35.9870044
  97.7450550  69.9794315  35.8849498  93.7941275  64.4415137  42.9676503
  92.9809140  64.7409308  43.3741695  94.2900269  64.0470826  43.6850985
  95.9449853  74.4372894  44.9010767  95.9026032  74.6633740  43.9719299
  96.8612552  74.2036269  45.0496569  99.3915487  64.9056962  51.7991397
  99.7464874  65.1328435  52.6585862 100.0387618  65.2375338  51.1768652
 105.1213224  68.0275398  42.5040726 104.9831122  68.2176994  41.5761915
 104.7649442  68.7894780  42.9608777  93.2855350  62.0133493  48.5837738
  93.9254729  61.8722252  47.8860701  92.4532880  61.7268006  48.2076340
 105.1482603  70.0951925  47.5151997 105.5819110  70.0027214  48.3635051
 105.8614184  70.0709425  46.8772013  94.0615654  71.3135923  44.6972730
  94.8556252  70.8186243  44.4955305  93.3507346  70.7853786  44.3340436
  98.8810498  73.6954019  49.0485098  98.9347520  74.2644955  49.8162814
  98.0125279  73.8655904  48.6839135  90.3698417  65.4579005  40.7732483
  89.4396005  65.3963460  40.9902445  90.4655889  64.9354958  39.9769124
  90.2883966  61.9833818  43.3610724  90.5490783  62.8979151  43.2519885
  91.1101138  61.5158260  43.5107337  91.7608891  63.3971575  50.5309549
  92.4331945  63.1888937  49.8822198  90.9338678  63.1993661  50.0914781
 106.0098153  70.1375625  50.0484882 106.2034043  71.0421436  50.2944157
 105.9098771  69.6783044  50.8823468  97.6634463  60.0233516  52.5475210
  97.0162378  60.7223465  52.4539686  98.4335479  60.4569660  52.9151458
 101.0713261  70.2882368  55.6225763 100.9198768  70.0592920  54.7055847
 101.0617941  71.2452969  55.6357108  97.8398598  67.8614281  50.6072030
  98.7690658  68.0125440  50.4340997  97.4189628  67.9498302  49.7520676
  96.6386930  71.8864945  48.3770567  96.4998015  71.5183730  49.2496505
  95.8501526  72.4012585  48.2054525  97.2335082  76.9874042  39.7196104
  97.4086837  76.5162085  40.5341726  96.5467870  77.6139808  39.9477364
  98.1892145  71.2646548  45.7659405  97.8541977  71.2247318  46.6617055
  97.6896090  70.5991264  45.2929815  92.1636389  66.6714178  51.2911986
  92.0256187  65.9394417  51.8923525  93.0741312  66.5823078  51.0096174
 101.1251336  68.6102582  36.0396465 100.5080507  67.8849410  35.9429517
 100.6567825  69.3711942  35.6963539  94.7918689  66.3834137  50.7795666
  95.5018308  65.7427329  50.7382284  94.7487998  66.6347032  51.7021847
 102.7805468  73.3201491  53.7002245 102.7218014  72.6360711  53.0332828
 103.1824986  74.0620481  53.2482871  93.5047623  63.3699355  52.5991305
  92.9684980  62.9190094  53.2512902  92.9164332  63.5045264  51.8561770
  91.7996167  80.1363404  46.4935964  92.0392765  80.7681929  47.1714982
  90.9565363  79.7851444  46.7801323  92.9149882  62.8288007  35.1617769
  92.0379349  62.7076807  34.7980016  93.3907635  62.0374085  34.9096658
 102.7822875  71.2841074  51.9316225 101.8949654  70.9466996  52.0542624
 103.3521426  70.5524106  52.1684990  84.4352022  67.6165166  45.2559276
  85.1223062  67.3026896  44.6680291  84.2800151  68.5206531  44.9826527
  89.2386745  62.5055363  49.6844300  89.1544933  61.8981032  48.9494710
  88.4169451  62.9964381  49.6853796  96.3124029  75.9442527  48.8977468
  96.2394200  76.7497498  49.4096772  95.8701422  76.1434493  48.0725489
  96.1013808  75.1814297  42.4080289  95.3181330  75.7235977  42.5018514
  96.8006554  75.6988277  42.8074531  99.4110458  60.9908926  45.0514495
  99.9079158  60.2378889  44.7315565  98.6397440  61.0273243  44.4857704
 107.2640216  66.6949292  46.6932786 107.2530092  67.5774007  46.3226719
 106.3957595  66.3420843  46.4987323  98.7722712  75.8429361  51.0535627
  99.4850684  76.4776826  50.9811528  98.2812741  75.9393227  50.2375628
 100.4940239  69.7480614  42.6252918  99.5596518  69.8682076  42.4557623
 100.6716908  68.8453080  42.3612928  95.9945427  63.1326309  44.7786179
  95.6243215  62.5797350  45.4667085  96.4904520  62.5284443  44.2261179
 103.8812790  65.5897933  43.1602952 104.3473243  66.4225924  43.0863255
 104.3320291  65.1242914  43.8648211  93.8234626  73.5923804  51.8741197
  94.5244085  74.2260287  52.0270592  93.3529741  73.9338536  51.1136837
 101.9489022  71.9341754  40.1589104 102.2248865  71.8198349  41.0682978
 101.0793520  71.5359239  40.1201277 101.8529453  57.9578520  47.1993854
 100.9392533  58.1882747  47.3676061 102.2822555  58.0416964  48.0507886
 101.6235912  66.1468412  49.6993748 100.9707362  66.3944319  49.0446200
 102.0016292  65.3332550  49.3656225  98.5843086  76.1828105  43.8021918
  98.7665480  75.3649761  44.2649670  99.4076072  76.3995797  43.3646808
  98.9185251  75.1096290  41.0636966  99.4473018  74.5988745  40.4507129
  99.1813471  74.7938820  41.9282499  97.6723485  66.8888223  56.1859785
  96.9964122  66.7882352  56.8562160  98.4951119  66.7327437  56.6495782
  89.4202344  73.1260159  48.8072300  90.0055781  72.3803847  48.9400204
  89.2227182  73.4364116  49.6908964  92.2740999  76.1611407  43.8234742
  91.6051374  76.6457534  43.3398782  92.1353869  76.4080627  44.7378121
  84.0119999  65.6965760  47.5276743  84.0504098  65.1629350  48.3213861
  83.5060291  65.1700965  46.9087720  96.4146268  78.1955150  50.4217401
  96.9664576  78.3586772  51.1866486  96.7552461  78.7859588  49.7497426
  91.3910761  60.5430300  51.0239285  91.4552087  61.4045131  50.6116683
  91.3277881  59.9304302  50.2911644  90.8663033  62.6153433  54.6712320
  91.4935072  62.2330510  55.2849844  90.0090952  62.3967635  55.0368012
 101.2657142  73.0216408  56.2766055 101.8097046  73.6346366  55.7821010
 100.6843987  73.5795986  56.7933068  87.6428576  64.4229862  40.6030675
  87.9382017  63.5140540  40.5497728  86.7416612  64.4017601  40.2811677
  99.5514655  76.1437126  47.4081083  99.4265794  75.3426866  46.8992028
 100.2093746  76.6383319  46.9195053  91.1722823  62.4985858  46.5858223
  90.4509409  63.1121826  46.4465696  91.9616079  63.0343623  46.5074869
 101.6149563  73.9446146  49.0360633 100.6679899  73.8251497  48.9638960
 101.9632336  73.0568644  49.1186894  93.9749137  59.8340285  52.8598875
  94.4983538  60.0802581  53.6225184  93.7561470  60.6660320  52.4402012
  89.3716418  62.1043959  40.7270000  89.0429124  61.2241338  40.5445106
  89.7255788  62.0491628  41.6146389  98.6195997  73.7398862  45.2364985
  98.4720959  72.8115570  45.4172555  99.4449490  73.7618953  44.7522060
  92.4858241  62.3916929  41.0945477  92.8254313  62.9202850  40.3724086
  92.9330361  62.7297335  41.8704044 102.2230118  74.5627421  46.3229858
 103.1476666  74.3570282  46.1854309 102.0545422  74.3143822  47.2319199
  95.1801682  60.7753980  50.5448545  94.8398502  59.9761793  50.9469225
  94.4740688  61.0755691  49.9725379  95.8318154  57.8603292  48.9975868
  96.6544223  57.3863771  48.8754759  96.0756217  58.6393776  49.4974555
  94.4726388  60.8891551  39.2938770  95.1934751  61.2672804  38.7902487
  93.8491692  61.6080428  39.3973748  98.6157511  61.5936700  40.2297102
  98.8321125  62.4761338  39.9285931  98.1351578  61.2022913  39.5002744
  93.3556732  64.5522413  46.8067847  93.2101313  64.8662716  47.6992129
  92.8781936  65.1707313  46.2538746  95.2153115  61.5424961  46.8548737
  95.2014684  60.6466054  46.5181035  95.9325543  61.5495625  47.4887023
  97.0679246  61.9762301  48.9001864  96.8097024  62.8979372  48.8986194
  96.5364286  61.5792736  49.5902328 102.0125435  75.0813088  41.6791949
 102.1862312  74.5159511  40.9265802 102.5054326  75.8813983  41.4971439
  87.8302394  67.0927757  49.7455508  87.2855863  67.8687565  49.8775783
  88.7081744  67.4398562  49.5874630  94.6190011  60.4239341  42.1236307
  94.7405922  59.4955987  42.3227194  94.3292053  60.4378027  41.2114622
  97.4881201  58.1094252  45.2603027  97.5102898  58.1733585  44.3055006
  97.9049260  57.2698760  45.4543533 107.8664826  67.8449511  43.2982249
 108.3095972  67.0956836  42.9001372 106.9891336  67.8359648  42.9155981
 103.0000607  74.3979853  38.7788848 103.6951512  75.0186545  38.9976162
 103.3423757  73.5475204  39.0541226  88.6168416  66.2197654  52.6385665
  87.8750152  66.3680289  53.2250296  88.2961161  66.4805919  51.7752415
 104.8992030  71.8479558  40.3076178 105.4243354  72.1866831  39.5825499
 104.8114383  70.9126574  40.1239313  96.5612079  75.7613632  52.4366055
  96.8699205  75.5162779  53.3088755  97.3587561  75.9660270  51.9484925
  96.5832691  77.9151542  44.6671432  96.1437681  77.4227920  45.3604288
  97.3340808  77.3724509  44.4263507  89.0625030  74.1063082  44.6696060
  89.8883050  73.8066854  44.2894703  88.7119082  73.3370705  45.1185848
  94.0306563  73.4589551  46.7393733  93.4086572  72.7960256  46.4395961
  94.7011430  73.4850682  46.0567381  87.2633635  72.0249409  45.6284993
  86.4265543  71.5971583  45.4468995  87.2357280  72.2181852  46.5655785
  94.1031091  61.9371339  56.3326239  94.1519246  62.8133461  55.9504009
  94.6453605  61.3948732  55.7597883 104.5885936  72.4812462  55.6127376
 103.7981480  72.4636601  55.0731876 104.3519291  73.0200756  56.3676413
 104.7083811  69.3304928  52.9260105 104.7581816  69.1654936  53.8675628
 104.5997735  68.4632187  52.5357986  93.5920070  72.0093474  40.2152194
  93.7408190  72.6928938  39.5618867  94.3986514  71.9898564  40.7301650
 101.9987574  65.3135856  54.2419412 102.8997437  65.1742321  53.9503409
 102.0735548  65.4790311  55.1817589  96.3330379  62.6902711  53.0872598
  95.4633688  62.9836277  52.8155187  96.5689859  63.2743156  53.8079862
 106.2102008  71.7501870  53.1702127 105.9186816  72.1131850  54.0065587
 105.5974139  71.0368878  52.9915459 107.4097691  69.3154750  45.6904697
 108.2444582  69.7544554  45.8542257 107.5456819  68.8393403  44.8712943
 104.4589196  66.8734484  51.6382185 104.9343318  67.0662131  50.8301036
 103.5354762  66.9293670  51.3925568  91.3472703  68.0358652  41.2213263
  91.1018745  67.1320982  41.4193473  91.5168618  68.0375802  40.2792741
  99.0369413  58.9082328  50.6038018  99.5551357  59.6443355  50.2784507
  98.6824546  59.2146321  51.4384778  90.6168351  63.7687009  38.7199424
  89.9237596  63.8431364  38.0639460  90.3720102  63.0047353  39.2420941
  99.2882007  55.3282610  46.1238915  99.5683761  54.6605800  46.7499342
 100.0732614  55.5211706  45.6113579  97.0915476  74.5041604  37.6863941
  96.5189443  75.1231792  37.2334413  97.6648269  75.0540966  38.2203863
 103.1590865  63.7500244  49.8710490 104.1108288  63.8498342  49.8922714
 102.9894316  62.9578513  50.3808574 101.1805245  60.8355828  50.0569891
 100.5855177  61.1160840  49.3616380 100.8954942  61.3249729  50.8286632
 100.3112735  74.7878755  38.8172524 101.2443409  74.7224316  39.0205399
 100.2235948  75.6235021  38.3587056 102.9400752  74.1044625  35.7776471
 102.8614384  73.7704488  36.6712229 103.7610419  74.5966393  35.7767943
 105.6378943  66.9706364  48.9852790 105.6055263  66.0322365  49.1712474
 106.2479567  67.0490401  48.2518615  97.4762274  65.8402417  35.0279994
  98.4221379  65.7108625  35.0968412  97.0976519  65.1017079  35.5049422
 105.7873432  63.7617408  49.0311073 105.2712480  62.9775864  48.8441002
 106.6713380  63.4336124  49.1957592 103.4484159  57.5058423  44.9906886
 103.2508980  57.1973511  45.8750218 104.0583864  58.2320062  45.1204815
 111.4555493  68.0322371  48.1258827 112.1858882  67.7707659  48.6866530
 110.8462439  67.2951093  48.1660895 109.5370790  66.1730234  48.7233278
 108.8103954  66.0386199  48.1149769 109.1218077  66.4807062  49.5289996
  97.3600967  69.8920163  56.4880651  98.2803976  70.0698762  56.6820697
  97.3250550  68.9476209  56.3360350  95.6605191  63.7652394  34.9634879
  94.7536647  63.4685506  35.0397593  95.9381172  63.4682212  34.0969165
  86.5783132  65.0858757  45.4133925  86.2585916  64.2324065  45.1208299
  86.0316560  65.3007335  46.1691893  90.3563039  67.8021198  49.1303432
  90.5749049  68.7338306  49.1491466  90.7688813  67.4429172  49.9158236
  97.2767257  58.3089283  41.1179120  96.4667985  57.9636368  41.4934366
  97.9651674  57.9996827  41.7066732  99.2057805  57.3867330  42.7403417
  99.7588844  57.8062783  43.3993440  99.4427892  56.4603078  42.7826373
  95.2290904  63.3754404  58.5206181  95.1287631  64.3248761  58.4518272
  95.0112447  63.0472643  57.6482251  94.4303976  60.6239329  35.1046858
  95.2923140  60.9494227  35.3642676  94.6154320  59.8370825  34.5919924
  86.4471392  68.7061668  47.3827047  85.7534863  68.2915621  46.8697001
  87.1944383  68.7482205  46.7860466 102.5836612  59.4967855  42.2482081
 102.0035281  60.1552659  41.8660134 102.3172545  58.6745200  41.8369499
 101.0340179  58.8972913  44.4503402 101.5339957  59.0089447  43.6417720
 101.6775787  58.5933966  45.0904210  95.0922175  66.8051543  57.3371243
  94.6089256  67.6051903  57.5435132  95.1783114  66.8159487  56.3838687
  88.3608134  68.6379922  45.2593062  88.3378822  68.7367609  44.3074945
  88.6708771  69.4845073  45.5810228  91.0195512  70.6956077  49.3739676
  91.9738766  70.6640020  49.3069608  90.8208036  70.2346701  50.1889902
  91.6094894  69.2657193  51.9410474  92.4287783  69.7601272  51.9645311
  91.8831702  68.3489161  51.9128041 101.3661490  61.6567946  41.3038429
 100.4787345  61.9417596  41.0858624 101.7815479  61.4961709  40.4565706
 104.7176026  61.6814467  45.0192769 105.4936417  62.1710919  45.2917386
 103.9924161  62.1072521  45.4764638 107.1548585  62.3942086  46.0766709
 107.7493076  62.1537822  45.3660018 107.2275169  61.6749216  46.7040246
  89.3745741  76.2375697  46.3909874  89.2400209  75.4776098  45.8247872
  88.9577803  76.9616597  45.9238663 100.5104704  71.4212620  35.3986449
 101.2140554  71.6262623  36.0144105  99.7867353  71.9889382  35.6635533
 101.3402514  67.1722482  41.5188720 101.2837716  67.6291033  40.6796352
 101.8930857  66.4113166  41.3411562 105.1507320  62.9612213  42.3438839
 104.8944254  62.5608849  43.1747047 104.5260188  63.6756007  42.2188978
 109.4619658  65.7008287  44.8510131 108.9019216  65.7701476  45.6241693
 108.8563161  65.5249271  44.1309627  92.5314867  77.1345014  46.6028317
  92.4147251  78.0790446  46.5007007  91.7107313  76.8318575  46.9914116
 102.4191401  71.8595149  37.4484910 103.2537005  71.4276348  37.2662384
 102.2575744  71.6877163  38.3761804 102.0737293  68.3627263  38.8141249
 102.0186097  68.1971534  37.8729693 101.4483349  69.0703296  38.9703439
  86.8629808  63.5995327  52.6402671  87.5088672  63.0894281  53.1289896
  86.6546960  64.3364009  53.2146096  99.3883201  70.6676175  58.1394812
 100.2574360  70.8416827  57.7781447  98.9089952  71.4870591  58.0170541
  95.3833419  57.8635372  38.3926567  95.3712089  58.8077212  38.5494838
  96.2756841  57.6805517  38.0986028  93.5569381  77.7873276  49.8184245
  94.4596628  77.8196886  50.1350740  93.3306751  76.8573727  49.8330581
  95.3122983  76.5404262  46.4794324  94.3618614  76.5406124  46.3658696
  95.6155469  75.7936997  45.9630358  99.1985538  54.4578148  42.6472504
  98.4317934  53.9036635  42.7929186  99.6096243  54.5300017  43.5086656
  91.2027299  60.7462944  56.7377685  92.0658761  60.3899749  56.9481010
  90.6292710  60.4076839  57.4253090 111.0475676  82.3764801  47.5440086
 111.6854086  82.2571548  46.8403426 110.9296519  83.3245645  47.6028038
 107.8565383  82.3292229  47.4801611 107.5183894  82.2133293  46.5922146
 108.7255151  81.9283394  47.4602617 103.7152198  84.1827705  43.4698502
 103.1517063  84.0917642  42.7014790 103.6004593  83.3627610  43.9500994
 108.3385166  83.4827080  53.4387816 108.3273806  83.0879879  52.5668320
 108.5005805  82.7493153  54.0321588 101.2616630  85.6778897  46.3082722
 102.0537922  85.3369721  45.8929022 101.5013280  85.7873872  47.2284876
 109.2951757  87.8498673  38.7812967 108.6439737  88.4352753  38.3946981
 110.0896120  88.3804868  38.8408004 103.2207384  84.9387810  39.1800101
 103.9938260  84.3916797  39.0412977 103.5732783  85.8032059  39.3914563
 105.0592427  86.2664192  52.3867000 104.7682293  87.1709823  52.2713667
 105.6949411  86.3080720  53.1011070 105.9848634  83.6441041  48.9768360
 106.5812206  83.4197063  48.2625323 106.0423605  82.9025786  49.5793808
 105.5573662  81.0980476  36.8118551 105.8099183  80.5761997  36.0502014
 104.6198221  80.9346622  36.9145235 110.6016945  80.1016254  44.6193294
 111.3880034  79.6835678  44.2683711 110.8655649  81.0062347  44.7874943
 110.7727022  85.5389105  39.3181951 110.1372855  85.6123731  40.0302856
 110.4424429  86.1282704  38.6401030 116.0025372  80.0391488  45.5226273
 116.7350544  79.4690704  45.7564102 115.2464728  79.6513088  45.9632778
 105.2769951  83.0008582  39.0142926 105.1606209  82.3253485  39.6824010
 105.3872211  82.5140956  38.1975079 107.6201492  82.4618729  42.7189615
 107.2559699  81.9349350  43.4302537 108.4768608  82.0717198  42.5456101
 113.5250792  73.7513062  49.9820881 113.1934117  74.6208473  49.7582096
 112.9296406  73.4349346  50.6614912 107.2606979  77.4908629  37.7150964
 107.4281381  78.3588865  38.0821435 107.0704148  77.6535911  36.7912253
 110.0182312  85.9525608  49.3816794 109.7183035  86.8550647  49.2732601
 109.6733371  85.6857791  50.2337947 103.4694793  82.4039405  45.4153499
 102.5445290  82.2715619  45.6231190 103.7179207  83.1833624  45.9123441
 113.4179456  78.4708148  47.0614231 112.5096333  78.4023556  46.7672992
 113.3667051  78.9480093  47.8896057 107.2396200  79.9466286  38.6997631
 107.1195825  80.3923337  39.5383111 106.5448788  80.2951604  38.1411169
 100.8303604  82.0472678  46.2497288 100.9595986  82.3007157  47.1636699
 100.1501056  82.6400386  45.9301943 105.0003092  92.7169928  42.3487762
 104.9227121  93.6677753  42.4276242 104.3964735  92.3715801  43.0062688
 107.4920321  79.8897794  55.0049129 106.7153655  80.4491714  54.9951993
 108.1310884  80.3754576  55.5263999 115.2841102  76.6724586  48.8392105
 114.6415482  76.9657119  48.1931900 114.7796031  76.5577507  49.6445302
 112.9381266  80.4187760  39.5277965 113.8499122  80.6515146  39.3525662
 112.4290913  81.0024804  38.9653043 105.7466694  82.6983247  54.5667096
 106.4881378  83.2368291  54.2901919 105.0403679  83.3249536  54.7238648
 111.2222033  84.8412387  53.1639257 111.6305389  84.3994798  52.4193890
 110.4999295  84.2665015  53.4173450 107.5753103  79.7784994  50.5372814
 108.4214299  80.2024408  50.6807463 107.5151741  79.1218618  51.2311377
 111.5450848  85.4013578  46.9191546 110.9159710  85.5659292  46.2167614
 111.1576510  85.8155188  47.6902510 115.4240080  86.3368016  44.2735910
 114.7391118  86.7166917  43.7232943 115.5083929  86.9463342  45.0067858
 110.7252549  77.4389362  52.1953988 110.4813481  78.1931423  51.6588264
 111.0012479  77.8174710  53.0301235 112.6791011  83.9827975  50.8731253
 112.8907907  84.6259735  50.1965634 112.6320760  83.1490291  50.4053183
 110.2817240  76.5945795  47.7767826 109.4201719  76.8927049  48.0684563
 110.3079675  76.8116194  46.8448858 107.0978810  85.1387986  44.1841631
 107.5617155  85.4175689  43.3946254 106.8335608  84.2371431  44.0014722
 103.9902891  84.6859468  47.1221394 104.5604248  85.1146736  46.4838879
 104.5811003  84.4042052  47.8205580 106.0347696  81.2611138  40.9931196
 106.7371739  81.7132182  41.4605123 105.7028324  80.6194957  41.6211089
 104.4828057  79.8522895  55.3682406 103.8526718  80.5339176  55.6017803
 104.3764145  79.7405977  54.4235544  99.7773030  79.5194691  46.2948330
  98.9872084  79.7752220  45.8188441 100.2684277  80.3343029  46.4000370
 113.7936839  86.8599930  49.0453611 114.6154283  86.4580118  48.7636292
 113.7899242  86.7568164  49.9969727 101.7287775  79.8839270  43.2531807
 100.9318939  79.9957965  43.7715302 101.5013367  80.2225923  42.3872697
 107.5593443  86.4083974  51.2014321 107.6237875  86.8704381  52.0372493
 106.8504367  85.7781338  51.3296631  98.0610733  79.7725182  48.7263321
  98.3118771  80.6572191  48.9920897  98.5970281  79.5929783  47.9538413
 107.2741461  88.0752081  41.0693302 107.1387135  88.9203617  41.4978149
 107.8151273  88.2771359  40.3059235 103.7608800  74.1543661  57.7307657
 103.3675746  73.6009859  58.4055301 104.5774940  74.4654239  58.1214174
 100.7270858  85.5927519  41.6421227 101.2395378  86.3870769  41.7926791
 101.3793571  84.8953810  41.5754828 102.5365743  88.7093275  43.7243980
 102.7132371  89.6311240  43.5364964 103.3322576  88.3951695  44.1538360
 106.6776761  75.5701540  55.3227913 107.4186475  76.1708693  55.2432376
 106.9094684  74.8279178  54.7645956 101.8218099  80.7557907  53.6006143
 101.7071614  79.8543164  53.9013242 100.9662617  81.0021604  53.2490960
 108.9009937  88.6975648  55.1993644 108.4573791  87.9112026  54.8814548
 109.5627150  88.8854798  54.5337534 103.6597058  90.2271449  49.7254322
 104.2104483  90.0988512  48.9531316 102.8208534  90.5266338  49.3749215
 110.9991175  88.9778447  53.2275045 110.9809650  89.7987329  52.7355314
 111.9211095  88.8532523  53.4525186 107.4564229  86.4922577  54.0698553
 107.9892566  85.7310865  53.8397861 106.9278310  86.1996229  54.8122708
 110.6233924  71.5982643  49.5992195 110.2798193  72.4884285  49.5231306
 110.9912887  71.4084301  48.7361780  98.6919775  83.9216173  42.4180797
  99.5294997  84.3313182  42.2014505  98.8698042  82.9815616  42.3880991
 110.5884207  81.5891254  38.1064630 110.0730830  82.3595859  38.3453018
 110.3161515  80.9156390  38.7297692 108.1731318  76.4340955  43.1649869
 107.3172914  76.0447805  42.9855507 108.5858270  76.5132916  42.3049654
 109.7030464  73.9687298  47.5641428 109.1995260  73.9317433  46.7509234
 109.9961071  74.8780041  47.6238085 105.9473350  74.0526028  46.5707610
 106.8126347  73.8568836  46.2113499 106.0150859  73.8236380  47.4976967
 115.5618481  84.3423609  40.0417804 114.7847924  84.0034768  39.5972966
 116.2409962  84.3476232  39.3672769 110.3770510  79.4618346  39.9324411
 110.0720646  79.7764495  40.7834555 111.3300952  79.5399766  39.9751744
 108.8216942  85.6208569  41.5817365 108.2938303  84.8861329  41.2690603
 108.3204445  86.3983246  41.3357334 113.8009788  83.8157590  46.6984412
 113.1433462  84.5056851  46.7864540 114.6050187  84.2054022  47.0418398
 103.5535669  76.2828236  43.9423977 104.1279421  76.0603417  43.2097170
 104.1406652  76.3516930  44.6952578 112.6115247  82.1701963  44.7488353
 113.1247128  82.8031954  45.2510063 113.2616471  81.5703158  44.3831713
 103.8805257  78.3132697  37.9619862 103.0442569  78.6507383  38.2829137
 103.7410026  78.1781677  37.0246999 105.8558337  73.1569485  42.6699046
 105.2022749  72.8418502  42.0455661 105.8138811  72.5345225  43.3958869
 106.9669542  83.4388780  34.5852338 106.0596604  83.2078033  34.7843487
 107.4640574  82.6426399  34.7726320 109.8737621  92.1486287  37.5049025
 109.1999320  92.4517984  38.1133982 110.2603443  92.9515367  37.1554482
 109.0896078  79.6451418  46.9946694 108.1718639  79.8666365  46.8368382
 109.5056221  79.7197729  46.1358401 109.8731125  81.0442834  42.1249374
 110.6202944  81.5564231  41.8156496 110.1422715  80.7226887  42.9853768
 108.1457775  83.5401375  39.1076328 107.2368995  83.2560407  39.2048798
 108.1752859  83.9600453  38.2479635 113.3777043  87.1507964  42.8767496
 112.9239370  86.3098874  42.9332686 112.7471010  87.7869362  43.2142276
 112.3209962  78.0799950  44.1068163 111.5832719  77.5677336  44.4378406
 112.5736736  77.6400332  43.2951440 111.8209982  88.9884461  43.8117314
 112.1132956  89.5489518  43.0929680 112.3308603  89.2813022  44.5670473
 112.4221590  70.8576202  44.7009933 112.7280467  69.9973566  44.4135848
 113.1474195  71.4493822  44.5008927  98.7145946  81.2606889  43.0891531
  98.5170346  80.6676249  42.3642597  98.1592610  80.9559099  43.8067469
 106.6942669  81.1529995  45.2086124 106.7491279  80.2003832  45.1328600
 105.8833872  81.3089434  45.6927422 107.8433863  85.0810118  36.4464407
 107.4053293  84.3645977  35.9870044 108.5844304  85.3086233  35.8849498
 104.6335029  79.7707055  42.9676503 103.8202895  80.0701225  43.3741695
 105.1294024  79.3762744  43.6850985 106.7843607  89.7664812  44.9010767
 106.7419786  89.9925658  43.9719299 107.7006306  89.5328186  45.0496569
 110.2309241  80.2348879  51.7991397 110.5858629  80.4620353  52.6585862
 110.8781372  80.5667256  51.1768652 115.9606978  83.3567315  42.5040726
 115.8224877  83.5468911  41.5761915 115.6043197  84.1186698  42.9608777
 104.1249104  77.3425410  48.5837738 104.7648483  77.2014170  47.8860701
 103.2926635  77.0559924  48.2076340 115.9876358  85.4243842  47.5151997
 116.4212864  85.3319131  48.3635051 116.7007938  85.4001343  46.8772013
 104.9009408  86.6427841  44.6972730 105.6950007  86.1478161  44.4955305
 104.1901100  86.1145704  44.3340436 109.7204253  89.0245936  49.0485098
 109.7741275  89.5936873  49.8162814 108.8519034  89.1947821  48.6839135
 101.2092172  80.7870923  40.7732483 100.2789760  80.7255378  40.9902445
 101.3049644  80.2646875  39.9769124 101.1277721  77.3125735  43.3610724
 101.3884538  78.2271069  43.2519885 101.9494893  76.8450178  43.5107337
 102.6002646  78.7263493  50.5309549 103.2725699  78.5180855  49.8822198
 101.7732432  78.5285579  50.0914781 116.8491907  85.4667543  50.0484882
 117.0427797  86.3713353  50.2944157 116.7492525  85.0074962  50.8823468
 108.5028218  75.3525434  52.5475210 107.8556133  76.0515383  52.4539686
 109.2729233  75.7861577  52.9151458 111.9107016  85.6174286  55.6225763
 111.7592522  85.3884837  54.7055847 111.9011695  86.5744887  55.6357108
 108.6792352  83.1906198  50.6072030 109.6084412  83.3417358  50.4340997
 108.2583382  83.2790219  49.7520676 107.4780684  87.2156863  48.3770567
 107.3391770  86.8475647  49.2496505 106.6895280  87.7304502  48.2054525
 108.0728836  92.3165959  39.7196104 108.2480592  91.8454003  40.5341726
 107.3861624  92.9431726  39.9477364 109.0285899  86.5938466  45.7659405
 108.6935732  86.5539236  46.6617055 108.5289845  85.9283181  45.2929815
 103.0030143  82.0006096  51.2911986 102.8649941  81.2686334  51.8923525
 103.9135067  81.9114996  51.0096174 111.9645091  83.9394500  36.0396465
 111.3474262  83.2141328  35.9429517 111.4961579  84.7003860  35.6963539
 105.6312444  81.7126055  50.7795666 106.3412062  81.0719247  50.7382284
 105.5881752  81.9638950  51.7021847 113.6199223  88.6493408  53.7002245
 113.5611769  87.9652628  53.0332828 114.0218741  89.3912398  53.2482871
 104.3441378  78.6991273  52.5991305 103.8078735  78.2482011  53.2512902
 103.7558086  78.8337182  51.8561770 102.6389921  95.4655322  46.4935964
 102.8786520  96.0973846  47.1714982 101.7959118  95.1143362  46.7801323
 103.7543637  78.1579924  35.1617769 102.8773103  78.0368725  34.7980016
 104.2301390  77.3666002  34.9096658 113.6216630  86.6132992  51.9316225
 112.7343409  86.2758914  52.0542624 114.1915181  85.8816023  52.1684990
  95.2745777  82.9457084  45.2559276  95.9616817  82.6318814  44.6680291
  95.1193906  83.8498449  44.9826527 100.0780499  77.8347280  49.6844300
  99.9938688  77.2272950  48.9494710  99.2563205  78.3256299  49.6853796
 107.1517783  91.2734445  48.8977468 107.0787955  92.0789416  49.4096772
 106.7095176  91.4726410  48.0725489 106.9407563  90.5106215  42.4080289
 106.1575085  91.0527895  42.5018514 107.6400308  91.0280194  42.8074531
 110.2504213  76.3200844  45.0514495 110.7472912  75.5670806  44.7315565
 109.4791194  76.3565161  44.4857704 118.1033970  82.0241210  46.6932786
 118.0923847  82.9065925  46.3226719 117.2351350  81.6712760  46.4987323
 109.6116467  91.1721279  51.0535627 110.3244439  91.8068743  50.9811528
 109.1206495  91.2685145  50.2375628 111.3333994  85.0772531  42.6252918
 110.3990272  85.1973994  42.4557623 111.5110662  84.1744998  42.3612928
 106.8339182  78.4618227  44.7786179 106.4636969  77.9089267  45.4667085
 107.3298274  77.8576360  44.2261179 114.7206545  80.9189851  43.1602952
 115.1866997  81.7517842  43.0863255 115.1714045  80.4534832  43.8648211
 104.6628380  88.9215722  51.8741197 105.3637840  89.5552205  52.0270592
 104.1923495  89.2630454  51.1136837 112.7882776  87.2633672  40.1589104
 113.0642620  87.1490266  41.0682978 111.9187275  86.8651157  40.1201277
 112.6923208  73.2870437  47.1993854 111.7786288  73.5174664  47.3676061
 113.1216309  73.3708882  48.0507886 112.4629666  81.4760329  49.6993748
 111.8101116  81.7236237  49.0446200 112.8410046  80.6624468  49.3656225
 109.4236840  91.5120023  43.8021918 109.6059235  90.6941679  44.2649670
 110.2469826  91.7287715  43.3646808 109.7579006  90.4388208  41.0636966
 110.2866772  89.9280662  40.4507129 110.0207225  90.1230738  41.9282499
 108.5117239  82.2180141  56.1859785 107.8357876  82.1174270  56.8562160
 109.3344873  82.0619354  56.6495782 100.2596098  88.4552077  48.8072300
 100.8449535  87.7095765  48.9400204 100.0620937  88.7656034  49.6908964
 103.1134754  91.4903324  43.8234742 102.4445129  91.9749452  43.3398782
 102.9747623  91.7372545  44.7378121  94.8513753  81.0257677  47.5276743
  94.8897853  80.4921268  48.3213861  94.3454046  80.4992883  46.9087720
 107.2540022  93.5247068  50.4217401 107.8058330  93.6878689  51.1866486
 107.5946216  94.1151506  49.7497426 102.2304515  75.8722218  51.0239285
 102.2945842  76.7337049  50.6116683 102.1671636  75.2596219  50.2911644
 101.7056788  77.9445350  54.6712320 102.3328827  77.5622428  55.2849844
 100.8484707  77.7259552  55.0368012 112.1050896  88.3508325  56.2766055
 112.6490800  88.9638284  55.7821010 111.5237741  88.9087904  56.7933068
  98.4822331  79.7521779  40.6030675  98.7775772  78.8432458  40.5497728
  97.5810366  79.7309519  40.2811677 110.3908409  91.4729043  47.4081083
 110.2659549  90.6718783  46.8992028 111.0487501  91.9675237  46.9195053
 102.0116578  77.8277776  46.5858223 101.2903163  78.4413744  46.4465696
 102.8009833  78.3635541  46.5074869 112.4543318  89.2738064  49.0360633
 111.5073653  89.1543415  48.9638960 112.8026091  88.3860562  49.1186894
 104.8142891  75.1632202  52.8598875 105.3377293  75.4094499  53.6225184
 104.5955224  75.9952237  52.4402012 100.2110172  77.4335877  40.7270000
  99.8822878  76.5533256  40.5445106 100.5649543  77.3783546  41.6146389
 109.4589751  89.0690780  45.2364985 109.3114714  88.1407487  45.4172555
 110.2843245  89.0910871  44.7522060 103.3251995  77.7208847  41.0945477
 103.6648068  78.2494768  40.3724086 103.7724116  78.0589253  41.8704044
 113.0623873  89.8919339  46.3229858 113.9870420  89.6862200  46.1854309
 112.8939176  89.6435740  47.2319199 106.0195436  76.1045898  50.5448545
 105.6792257  75.3053711  50.9469225 105.3134442  76.4047608  49.9725379
 106.6711908  73.1895210  48.9975868 107.4937977  72.7155688  48.8754759
 106.9149972  73.9685694  49.4974555 105.3120143  76.2183468  39.2938770
 106.0328505  76.5964721  38.7902487 104.6885447  76.9372345  39.3973748
 109.4551265  76.9228617  40.2297102 109.6714880  77.8053255  39.9285931
 108.9745333  76.5314831  39.5002744 104.1950487  79.8814331  46.8067847
 104.0495067  80.1954634  47.6992129 103.7175690  80.4999231  46.2538746
 106.0546870  76.8716879  46.8548737 106.0408438  75.9757972  46.5181035
 106.7719298  76.8787542  47.4887023 107.9073000  77.3054219  48.9001864
 107.6490778  78.2271290  48.8986194 107.3758041  76.9084653  49.5902328
 112.8519189  90.4105006  41.6791949 113.0256067  89.8451428  40.9265802
 113.3448080  91.2105901  41.4971439  98.6696149  82.4219675  49.7455508
  98.1249617  83.1979483  49.8775783  99.5475499  82.7690480  49.5874630
 105.4583766  75.7531259  42.1236307 105.5799677  74.8247905  42.3227194
 105.1685808  75.7669945  41.2114622 108.3274956  73.4386169  45.2603027
 108.3496653  73.5025502  44.3055006 108.7443015  72.5990678  45.4543533
 113.8394362  89.7271770  38.7788848 114.5345266  90.3478463  38.9976162
 114.1817512  88.8767122  39.0541226  99.4562171  81.5489571  52.6385665
  98.7143907  81.6972207  53.2250296  99.1354915  81.8097837  51.7752415
 115.7385785  87.1771476  40.3076178 116.2637109  87.5158749  39.5825499
 115.6508137  86.2418491  40.1239313 107.4005833  91.0905550  52.4366055
 107.7092960  90.8454696  53.3088755 108.1981315  91.2952188  51.9484925
 107.4226445  93.2443459  44.6671432 106.9831436  92.7519838  45.3604288
 108.1734562  92.7016427  44.4263507  99.9018784  89.4355000  44.6696060
 100.7276804  89.1358772  44.2894703  99.5512836  88.6662622  45.1185848
 104.8700318  88.7881468  46.7393733 104.2480327  88.1252173  46.4395961
 105.5405185  88.8142600  46.0567381  98.1027390  87.3541327  45.6284993
  97.2659298  86.9263501  45.4468995  98.0751035  87.5473770  46.5655785
 104.9424845  77.2663256  56.3326239 104.9913001  78.1425379  55.9504009
 105.4847359  76.7240649  55.7597883 115.4279691  87.8104380  55.6127376
 114.6375235  87.7928518  55.0731876 115.1913045  88.3492673  56.3676413
 115.5477566  84.6596846  52.9260105 115.5975571  84.4946853  53.8675628
 115.4391489  83.7924105  52.5357986 104.4313825  87.3385392  40.2152194
 104.5801945  88.0220856  39.5618867 105.2380268  87.3190482  40.7301650
 112.8381328  80.6427774  54.2419412 113.7391191  80.5034239  53.9503409
 112.9129303  80.8082229  55.1817589 107.1724134  78.0194629  53.0872598
 106.3027443  78.3128195  52.8155187 107.4083614  78.6035074  53.8079862
 117.0495763  87.0793787  53.1702127 116.7580571  87.4423768  54.0065587
 116.4367894  86.3660796  52.9915459 115.2982951  82.2026402  51.6382185
 115.7737073  82.3954048  50.8301036 114.3748516  82.2585588  51.3925568
 102.1866458  83.3650569  41.2213263 101.9412499  82.4612899  41.4193473
 102.3562372  83.3667720  40.2792741 109.8763167  74.2374246  50.6038018
 110.3945111  74.9735273  50.2784507 109.5218300  74.5438239  51.4384778
 101.4562105  79.0978927  38.7199424 100.7631350  79.1723282  38.0639460
 101.2113857  78.3339270  39.2420941 110.1275762  70.6574528  46.1238915
 110.4077515  69.9897717  46.7499342 110.9126369  70.8503624  45.6113579
 107.9309230  89.8333522  37.6863941 107.3583197  90.4523709  37.2334413
 108.5042024  90.3832884  38.2203863 113.9984620  79.0792162  49.8710490
 114.9502043  79.1790260  49.8922714 113.8288070  78.2870431  50.3808574
 112.0198999  76.1647745  50.0569891 111.4248932  76.4452758  49.3616380
 111.7348696  76.6541646  50.8286632 111.1506490  90.1170672  38.8172524
 112.0837163  90.0516234  39.0205399 111.0629703  90.9526939  38.3587056
 113.7794507  89.4336543  35.7776471 113.7008138  89.0996406  36.6712229
 114.6004173  89.9258310  35.7767943 116.4772698  82.2998282  48.9852790
 116.4449018  81.3614283  49.1712474 117.0873321  82.3782319  48.2518615
 108.3156029  81.1694335  35.0279994 109.2615133  81.0400543  35.0968412
 107.9370274  80.4308997  35.5049422 116.6267186  79.0909325  49.0311073
 116.1106235  78.3067782  48.8441002 117.5107135  78.7628042  49.1957592
 114.2877913  72.8350341  44.9906886 114.0902734  72.5265429  45.8750218
 114.8977619  73.5611980  45.1204815 108.1994721  85.2212081  56.4880651
 109.1197731  85.3990680  56.6820697 108.1644304  84.2768126  56.3360350
 106.4998946  79.0944311  34.9634879 105.5930401  78.7977424  35.0397593
 106.7774927  78.7974129  34.0969165  97.4176886  80.4150675  45.4133925
  97.0979670  79.5615983  45.1208299  96.8710314  80.6299253  46.1691893
 101.1956794  83.1313116  49.1303432 101.4142803  84.0630223  49.1491466
 101.6082567  82.7721090  49.9158236 108.1161011  73.6381201  41.1179120
 107.3061740  73.2928286  41.4934366 108.8045428  73.3288745  41.7066732
 110.0451560  72.7159248  42.7403417 110.5982598  73.1354701  43.3993440
 110.2821646  71.7894996  42.7826373 106.0684659  78.7046321  58.5206181
 105.9681386  79.6540678  58.4518272 105.8506201  78.3764560  57.6482251
 105.2697730  75.9531246  35.1046858 106.1316894  76.2786145  35.3642676
 105.4548075  75.1662742  34.5919924  97.2865146  84.0353586  47.3827047
  96.5928618  83.6207539  46.8697001  98.0338137  84.0774123  46.7860466
 113.4230367  74.8259773  42.2482081 112.8429036  75.4844577  41.8660134
 113.1566300  74.0037117  41.8369499 111.8733933  74.2264831  44.4503402
 112.3733712  74.3381365  43.6417720 112.5169541  73.9225883  45.0904210
 105.9315929  82.1343460  57.3371243 105.4483011  82.9343820  57.5435132
 106.0176868  82.1451405  56.3838687  99.2001889  83.9671840  45.2593062
  99.1772577  84.0659527  44.3074945  99.5102525  84.8136991  45.5810228
 101.8589267  86.0247995  49.3739676 102.8132520  85.9931937  49.3069608
 101.6601790  85.5638619  50.1889902 102.4488649  84.5949111  51.9410474
 103.2681538  85.0893190  51.9645311 102.7225456  83.6781079  51.9128041
 112.2055245  76.9859863  41.3038429 111.3181100  77.2709514  41.0858624
 112.6209234  76.8253627  40.4565706 115.5569781  77.0106384  45.0192769
 116.3330171  77.5002837  45.2917386 114.8317915  77.4364438  45.4764638
 100.2139495  91.5667614  46.3909874 100.0793963  90.8068015  45.8247872
  99.7971558  92.2908514  45.9238663 111.3498458  86.7504538  35.3986449
 112.0534308  86.9554540  36.0144105 110.6261107  87.3181300  35.6635533
 112.1796269  82.5014399  41.5188720 112.1231470  82.9582951  40.6796352
 112.7324611  81.7405084  41.3411562 115.9901075  78.2904131  42.3438839
 115.7338009  77.8900767  43.1747047 115.3653943  79.0047925  42.2188978
 103.3708621  92.4636931  46.6028317 103.2541005  93.4082364  46.5007007
 102.5501067  92.1610493  46.9914116 113.2585156  87.1887067  37.4484910
 114.0930760  86.7568266  37.2662384 113.0969499  87.0169081  38.3761804
 112.9131048  83.6919180  38.8141249 112.8579852  83.5263452  37.8729693
 112.2877103  84.3995213  38.9703439  97.7023563  78.9287245  52.6402671
  98.3482426  78.4186199  53.1289896  97.4940714  79.6655926  53.2146096
 110.2276955  85.9968092  58.1394812 111.0968115  86.1708745  57.7781447
 109.7483707  86.8162509  58.0170541 106.2227173  73.1927289  38.3926567
 106.2105843  74.1369129  38.5494838 107.1150595  73.0097435  38.0986028
 104.3963135  93.1165193  49.8184245 105.2990382  93.1488804  50.1350740
 104.1700505  92.1865644  49.8330581 106.1516737  91.8696180  46.4794324
 105.2012368  91.8698041  46.3658696 106.4549223  91.1228914  45.9630358
 110.0379293  69.7870066  42.6472504 109.2711689  69.2328553  42.7929186
 110.4489998  69.8591935  43.5086656 102.0421054  76.0754862  56.7377685
 102.9052515  75.7191667  56.9481010 101.4686465  75.7368757  57.4253090
 114.5545953  99.5119623  43.4698502 113.9910818  99.4209560  42.7014790
 114.4398348  98.6919527  43.9500994 112.1010385 101.0070814  46.3082722
 112.8931677 100.6661639  45.8929022 112.3407035 101.1165789  47.2284876
 114.0601139 100.2679728  39.1800101 114.8332015  99.7208715  39.0412977
 114.4126538 101.1323977  39.3914563 115.8986181 101.5956110  52.3867000
 115.6076047 102.5001741  52.2713667 116.5343166 101.6372638  53.1011070
 116.8242388  98.9732958  48.9768360 117.4205960  98.7488981  48.2625323
 116.8817360  98.2317704  49.5793808 116.3967416  96.4272394  36.8118551
 116.6492937  95.9053915  36.0502014 115.4591976  96.2638539  36.9145235
 116.1163705  98.3300500  39.0142926 115.9999963  97.6545403  39.6824010
 116.2265965  97.8432874  38.1975079 118.1000733  92.8200546  37.7150964
 118.2675135  93.6880783  38.0821435 117.9097902  92.9827828  36.7912253
 114.3088548  97.7331322  45.4153499 113.3839044  97.6007536  45.6231190
 114.5572961  98.5125541  45.9123441 118.0789954  95.2758204  38.6997631
 117.9589579  95.7215255  39.5383111 117.3842542  95.6243522  38.1411169
 111.6697359  97.3764596  46.2497288 111.7989740  97.6299075  47.1636699
 110.9894810  97.9692304  45.9301943 116.5860448  98.0275165  54.5667096
 117.3275133  98.5660209  54.2901919 115.8797434  98.6541453  54.7238648
 114.8296645 100.0151385  47.1221394 115.3998002 100.4438654  46.4838879
 115.4204757  99.7333970  47.8205580 116.8741450  96.5903056  40.9931196
 117.5765494  97.0424100  41.4605123 116.5422079  95.9486875  41.6211089
 115.3221812  95.1814813  55.3682406 114.6920473  95.8631094  55.6017803
 115.2157900  95.0697894  54.4235544 110.6166784  94.8486609  46.2948330
 109.8265838  95.1044137  45.8188441 111.1078032  95.6634947  46.4000370
 112.5681530  95.2131188  43.2531807 111.7712693  95.3249882  43.7715302
 112.3407122  95.5517840  42.3872697 108.9004487  95.1017099  48.7263321
 109.1512526  95.9864109  48.9920897 109.4364036  94.9221701  47.9538413
 114.6002555  89.4835579  57.7307657 114.2069500  88.9301777  58.4055301
 115.4168695  89.7946157  58.1214174 111.5664612 100.9219437  41.6421227
 112.0789133 101.7162687  41.7926791 112.2187325 100.2245727  41.5754828
 117.5170516  90.8993458  55.3227913 118.2580229  91.5000611  55.2432376
 117.7488438  90.1571095  54.7645956 112.6611854  96.0849825  53.6006143
 112.5465369  95.1835082  53.9013242 111.8056371  96.3313522  53.2490960
 109.5313529  99.2508091  42.4180797 110.3688751  99.6605099  42.2014505
 109.7091797  98.3107533  42.3880991 116.7867105  89.3817945  46.5707610
 117.6520102  89.1860754  46.2113499 116.8544614  89.1528297  47.4976967
 114.3929424  91.6120153  43.9423977 114.9673176  91.3895335  43.2097170
 114.9800406  91.6808848  44.6952578 114.7199011  93.6424614  37.9619862
 113.8836323  93.9799301  38.2829137 114.5803781  93.5073594  37.0246999
 116.6952092  88.4861402  42.6699046 116.0416504  88.1710419  42.0455661
 116.6532566  87.8637143  43.3958869 117.8063297  98.7680697  34.5852338
 116.8990358  98.5369951  34.7843487 118.3034328  97.9718317  34.7726320
 109.5539700  96.5898806  43.0891531 109.3564100  95.9968167  42.3642597
 108.9986364  96.2851017  43.8067469 117.5336424  96.4821913  45.2086124
 117.5885034  95.5295749  45.1328600 116.7227626  96.6381352  45.6927422
 115.4728784  95.0998973  42.9676503 114.6596649  95.3993143  43.3741695
 115.9687778  94.7054661  43.6850985 114.9642859  92.6717328  48.5837738
 115.6042238  92.5306087  47.8860701 114.1320389  92.3851842  48.2076340
 115.7403163 101.9719759  44.6972730 116.5343761 101.4770079  44.4955305
 115.0294855 101.4437622  44.3340436 112.0485926  96.1162840  40.7732483
 111.1183514  96.0547296  40.9902445 112.1443398  95.5938793  39.9769124
 111.9671475  92.6417653  43.3610724 112.2278292  93.5562986  43.2519885
 112.7888647  92.1742096  43.5107337 113.4396400  94.0555410  50.5309549
 114.1119454  93.8472772  49.8822198 112.6126187  93.8577496  50.0914781
 113.8423898  97.3298013  51.2911986 113.7043696  96.5978252  51.8923525
 114.7528821  97.2406913  51.0096174 116.4706198  97.0417973  50.7795666
 117.1805817  96.4011165  50.7382284 116.4275506  97.2930867  51.7021847
 115.1835132  94.0283190  52.5991305 114.6472489  93.5773929  53.2512902
 114.5951841  94.1629099  51.8561770 114.5937391  93.4871842  35.1617769
 113.7166858  93.3660643  34.7980016 115.0695144  92.6957920  34.9096658
 106.1139531  98.2749002  45.2559276 106.8010571  97.9610732  44.6680291
 105.9587660  99.1790366  44.9826527 110.9174254  93.1639198  49.6844300
 110.8332442  92.5564868  48.9494710 110.0956960  93.6548216  49.6853796
 117.6732936  93.7910145  44.7786179 117.3030724  93.2381185  45.4667085
 118.1692029  93.1868278  44.2261179 111.0989853 103.7843995  48.8072300
 111.6843290 103.0387683  48.9400204 110.9014691 104.0947951  49.6908964
 105.6907508  96.3549595  47.5276743 105.7291607  95.8213186  48.3213861
 105.1847800  95.8284800  46.9087720 113.0698270  91.2014135  51.0239285
 113.1339596  92.0628966  50.6116683 113.0065390  90.5888137  50.2911644
 112.5450542  93.2737268  54.6712320 113.1722581  92.8914345  55.2849844
 111.6878461  93.0551470  55.0368012 109.3216085  95.0813697  40.6030675
 109.6169526  94.1724376  40.5497728 108.4204121  95.0601437  40.2811677
 112.8510332  93.1569694  46.5858223 112.1296918  93.7705661  46.4465696
 113.6403588  93.6927458  46.5074869 115.6536646  90.4924120  52.8598875
 116.1771047  90.7386417  53.6225184 115.4348979  91.3244155  52.4402012
 111.0503927  92.7627795  40.7270000 110.7216633  91.8825174  40.5445106
 111.4043297  92.7075463  41.6146389 114.1645750  93.0500765  41.0945477
 114.5041822  93.5786686  40.3724086 114.6117870  93.3881171  41.8704044
 116.8589191  91.4337815  50.5448545 116.5186011  90.6345628  50.9469225
 116.1528197  91.7339526  49.9725379 116.1513897  91.5475386  39.2938770
 116.8722259  91.9256639  38.7902487 115.5279201  92.2664263  39.3973748
 115.0344241  95.2106248  46.8067847 114.8888822  95.5246551  47.6992129
 114.5569445  95.8291149  46.2538746 116.8940624  92.2008796  46.8548737
 116.8802193  91.3049890  46.5181035 117.6113052  92.2079460  47.4887023
 109.5089903  97.7511593  49.7455508 108.9643371  98.5271401  49.8775783
 110.3869253  98.0982397  49.5874630 116.2977520  91.0823177  42.1236307
 116.4193431  90.1539823  42.3227194 116.0079562  91.0961863  41.2114622
 110.2955925  96.8781489  52.6385665 109.5537661  97.0264124  53.2250296
 109.9748670  97.1389755  51.7752415 110.7412539 104.7646918  44.6696060
 111.5670559 104.4650690  44.2894703 110.3906591 103.9954540  45.1185848
 108.9421144 102.6833244  45.6284993 108.1053052 102.2555419  45.4468995
 108.9144789 102.8765688  46.5655785 115.7818600  92.5955174  56.3326239
 115.8306755  93.4717297  55.9504009 116.3241114  92.0532567  55.7597883
 118.0117888  93.3486546  53.0872598 117.1421197  93.6420112  52.8155187
 118.2477368  93.9326991  53.8079862 113.0260212  98.6942487  41.2213263
 112.7806254  97.7904817  41.4193473 113.1956127  98.6959637  40.2792741
 112.2955860  94.4270845  38.7199424 111.6025104  94.5015199  38.0639460
 112.0507611  93.6631188  39.2420941 117.3392700  94.4236229  34.9634879
 116.4324156  94.1269342  35.0397593 117.6168681  94.1266047  34.0969165
 108.2570641  95.7442592  45.4133925 107.9373425  94.8907900  45.1208299
 107.7104069  95.9591170  46.1691893 112.0350548  98.4605033  49.1303432
 112.2536558  99.3922141  49.1491466 112.4476322  98.1013008  49.9158236
 116.9078413  94.0338239  58.5206181 116.8075140  94.9832596  58.4518272
 116.6899956  93.7056478  57.6482251 116.1091485  91.2823164  35.1046858
 116.9710649  91.6078062  35.3642676 116.2941829  90.4954660  34.5919924
 108.1258901  99.3645504  47.3827047 107.4322372  98.9499457  46.8697001
 108.8731892  99.4066040  46.7860466 116.7709684  97.4635378  57.3371243
 116.2876765  98.2635738  57.5435132 116.8570623  97.4743323  56.3838687
 110.0395643  99.2963758  45.2593062 110.0166331  99.3951445  44.3074945
 110.3496280 100.1428908  45.5810228 112.6983021 101.3539913  49.3739676
 113.6526275 101.3223855  49.3069608 112.4995545 100.8930536  50.1889902
 113.2882403  99.9241029  51.9410474 114.1075292 100.4185107  51.9645311
 113.5619211  99.0072997  51.9128041 108.5417317  94.2579163  52.6402671
 109.1876181  93.7478116  53.1289896 108.3334468  94.9947844  53.2146096
 117.0620928  88.5219207  38.3926567 117.0499598  89.4661047  38.5494838
 117.9544350  88.3389353  38.0986028 112.8814808  91.4046780  56.7377685
 113.7446270  91.0483584  56.9481010 112.3080219  91.0660674  57.4253090
  48.4421150  -4.1742144  33.2181271  48.6817748  -3.5423620  33.8960289
  47.5990347  -4.5254104  33.5046630  60.3577182  -0.1277843  30.1943809
  59.7942047  -0.2187906  29.4260096  60.2429577  -0.9477939  30.6746301
  57.9041614   1.3673349  33.0328029  58.6962905   1.0264173  32.6174328
  58.1438264   1.4768324  33.9530182  65.9376740   3.5393125  25.5058273
  65.2864720   4.1247205  25.1192287  66.7321103   4.0699320  25.5653311
  59.8632367   0.6282262  25.9045408  60.6363243   0.0811249  25.7658284
  60.2157766   1.4926511  26.1159869  61.7017410   1.9558644  39.1112307
  61.4107276   2.8604275  38.9958973  62.3374394   1.9975172  39.8256377
  62.6273617  -0.6664507  35.7013667  63.2237189  -0.8908485  34.9870630
  62.6848588  -1.4079762  36.3039115  67.4152005   1.2283557  26.0427258
  66.7797838   1.3018183  26.7548162  67.0849412   1.8177155  25.3646337
  61.9194934  -1.3096966  25.7388233  61.8031192  -1.9852063  26.4069317
  62.0297194  -1.7964592  24.9220386  66.6607295   1.6420060  36.1062101
  66.3608018   2.5445098  35.9977908  66.3158355   1.3752243  36.9583254
  60.1119777  -1.9066144  32.1398805  59.1870273  -2.0389929  32.3476497
  60.3604190  -1.1271924  32.6368748  57.4728588  -2.2632870  32.9742594
  57.6020969  -2.0098391  33.8882006  56.7926039  -1.6705162  32.6547249
  61.6428075   8.4064380  29.0733068  61.5652105   9.3572205  29.1521549
  61.0389719   8.0610252  29.7307995  62.3891677  -1.6122301  41.2912402
  63.1306361  -1.0737257  41.0147226  61.6828662  -0.9856012  41.4483954
  68.1875831   1.0908030  33.6436853  67.5584694   1.2553744  32.9412921
  67.8001493   1.5049639  34.4147817  72.0665063   2.0262468  30.9981217
  71.3816101   2.4061369  30.4478250  72.1508912   2.6357794  31.7313164
  63.7403793   0.8282438  30.9086938  64.2042139   1.1070141  30.1191560
  63.4760591  -0.0734117  30.7260029  60.6327874   0.3753919  33.8466701
  61.2029231   0.8041188  33.2084186  61.2235986   0.0936504  34.5450887
  70.4361823   2.5494382  35.7698917  71.2579266   2.1474569  35.4881599
  70.4324226   2.4462616  36.7215033  64.2018426   2.0978425  37.9259628
  64.2662859   2.5598833  38.7617800  63.4929350   1.4675790  38.0541938
  63.9166444   3.7646533  27.7938608  63.7812119   4.6098069  28.2223456
  64.4576256   3.9665811  27.0304542  57.3695841   1.2821971  28.3666533
  57.8820362   2.0765221  28.5172098  58.0218554   0.5848261  28.3000135
  59.1790726   4.3987727  30.4489286  59.3557354   5.3205692  30.2610270
  59.9747559   4.0846146  30.8783666  65.5434920   4.3870099  41.9238950
  65.0998774   3.6006478  41.6059855  66.2052134   4.5749250  41.2582841
  60.3022041   5.9165901  36.4499629  60.8529467   5.7882964  35.6776623
  59.4633517   6.2160790  36.0994522  67.6416158   4.6672899  39.9520352
  67.6234634   5.4881780  39.4600621  68.5636078   4.5426975  40.1770493
  64.0989212   2.1817029  40.7943860  64.6317549   1.4205317  40.5643168
  63.5703294   1.8890681  41.5368014  55.3344758  -0.3889375  29.1426104
  56.1719980   0.0207634  28.9259812  55.5123026  -1.3289933  29.1126298
  65.4641925   1.3103021  28.3062672  64.9363287   0.5755781  27.9935909
  64.9629428   2.0877698  28.0602640  66.5162604   7.8380739  24.2294331
  65.8424303   8.1412436  24.8379289  66.9028426   8.6409819  23.8799788
  64.7882759  -0.7704174  25.8321635  63.8793978  -1.0545141  25.9294105
  64.8177843  -0.3505095  24.9724942  70.0202026   2.8402416  29.6012803
  69.5664353   1.9993326  29.6577993  69.3895993   3.4763814  29.9387583
  68.4634965   4.6778913  30.5362621  68.7557940   5.2383970  29.8174986
  68.9733586   4.9707474  31.2915780  55.3570929  -3.0498659  29.8136837
  55.1595329  -3.6429299  29.0887904  54.8017593  -3.3546449  30.5312776
  64.4858847   0.7704570  23.1709714  64.0478276   0.0540429  22.7115351
  65.2269287   0.9980685  22.6094805  63.4268591   5.4559264  31.6256074
  63.3844769   5.6820110  30.6964606  64.3431289   5.2222638  31.7741875
  61.5434391   2.3322293  31.4218037  62.3374990   1.8372613  31.2200612
  60.8326084   1.8040156  31.0585742  66.3629236   4.7140388  35.7730404
  66.4166258   5.2831325  36.5408120  65.4944017   4.8842273  35.4084441
  68.5531999   1.3068738  42.3471070  68.4017506   1.0779289  41.4301153
  68.5436679   2.2639339  42.3602415  64.1205667   2.9051315  35.1015874
  63.9816753   2.5370099  35.9741812  63.3320264   3.4198954  34.9299832
  64.7153819   8.0060411  26.4441410  64.8905575   7.5348454  27.2587033
  64.0286607   8.6326177  26.6722671  65.6710883   2.2832917  32.4904712
  65.3360715   2.2433687  33.3862361  65.1714828   1.6177633  32.0175122
  70.2624206   4.3387860  40.4247552  70.2036752   3.6547080  39.7578135
  70.6643724   5.0806850  39.9728178  59.2814905  11.1549774  33.2181271
  59.5211503  11.7868298  33.8960289  58.4384101  10.8037814  33.5046630
  70.2641613   2.3027444  38.6561531  69.3768392   1.9653366  38.7787930
  70.8340164   1.5710475  38.8930297  51.9170760  -1.3648464  31.9804583
  52.6041800  -1.6786734  31.3925598  51.7618889  -0.4607100  31.7071834
  63.7942767   6.9628896  35.6222774  63.7212938   7.7683868  36.1342079
  63.3520160   7.1620862  34.7970796  63.5832546   6.2000666  29.1325596
  62.8000068   6.7422347  29.2263821  64.2825291   6.7174646  29.5319837
  66.2541450   6.8615730  37.7780933  66.9669422   7.4963195  37.7056835
  65.7631479   6.9579596  36.9620935  61.3053364   4.6110174  38.5986504
  62.0062823   5.2446657  38.7515898  60.8348479   4.9524905  37.8382143
  69.4307759   2.9528124  26.8834411  69.7067603   2.8384718  27.7928285
  68.5612258   2.5545609  26.8446584  66.0661823   7.2014475  30.5267225
  66.2484218   6.3836130  30.9894977  66.8894809   7.4182167  30.0892115
  66.4003989   6.1282660  27.7882273  66.9291755   5.6175114  27.1752435
  66.6632208   5.8125190  28.6527806  56.9021082   4.1446529  35.5317607
  57.4874518   3.3990217  35.6645511  56.7045920   4.4550486  36.4154271
  59.7559737   7.1797776  30.5480049  59.0870112   7.6643904  30.0644089
  59.6172607   7.4266997  31.4623428  51.4938736  -3.2847871  34.2522050
  51.5322836  -3.8184280  35.0459168  50.9879029  -3.8112665  33.6333027
  63.8965005   9.2141520  37.1462707  64.4483313   9.3773141  37.9111793
  64.2371199   9.8045958  36.4742732  68.7475880   4.0402777  43.0011362
  69.2915784   4.6532736  42.5066317  68.1662725   4.5982356  43.5178375
  67.0333393   7.1623495  34.1326390  66.9084532   6.3613235  33.6237335
  67.6912484   7.6569689  33.6440360  69.0968301   4.9632515  35.7605940
  68.1498637   4.8437867  35.6884266  69.4451074   4.0755014  35.8432201
  66.1014734   4.7585232  31.9610292  65.9539697   3.8301939  32.1417862
  66.9268228   4.7805322  31.4767367  69.7048856   5.5813790  33.0475165
  70.6295404   5.3756652  32.9099616  69.5364160   5.3330192  33.9564506
  69.4944172   6.0999458  28.4037256  69.6681050   5.5345880  27.6511109
  69.9873064   6.9000353  28.2216746  55.3121132  -1.8885873  36.4700815
  54.7674600  -1.1126065  36.6021089  56.1900482  -1.5415069  36.3119936
  70.4819345   5.4166222  25.5034154  71.1770250   6.0372915  25.7221469
  70.8242495   4.5661573  25.7786532  56.0987154  -2.7615977  39.3630972
  55.3568890  -2.6133341  39.9495602  55.7779898  -2.5007711  38.4997721
  72.3810768   2.8665928  27.0321485  72.9062092   3.2053201  26.3070805
  72.2933121   1.9312943  26.8484620  64.0430817   6.7800001  39.1611362
  64.3517943   6.5349148  40.0334061  64.8406299   6.9846640  38.6730232
  64.0651429   8.9337911  31.3916738  63.6256419   8.4414290  32.0849595
  64.8159546   8.3910879  31.1508814  56.5443768   5.1249452  31.3941366
  57.3701788   4.8253224  31.0140010  56.1937820   4.3557074  31.8431155
  61.5125301   4.4775920  33.4639040  60.8905310   3.8146625  33.1641268
  62.1830168   4.5037052  32.7812688  54.7452373   3.0435778  32.3530300
  53.9084281   2.6157953  32.1714301  54.7176018   3.2368222  33.2901091
  72.0704674   3.4998831  42.3372683  71.2800218   3.4822970  41.7977183
  71.8338029   4.0387125  43.0921720  61.0738808   3.0279844  26.9397501
  61.2226928   3.7115308  26.2864173  61.8805251   3.0084934  27.4546956
  73.6920746   2.7688239  39.8947433  73.4005554   3.1318220  40.7310894
  73.0792877   2.0555248  39.7160765  58.8291441  -0.9454979  27.9458569
  58.5837483  -1.8492649  28.1438780  58.9987355  -0.9437828  27.0038047
  64.5734213   5.5227974  24.4109248  64.0008180   6.1418161  23.9579720
  65.1467007   6.0727336  24.9449170  67.7931473   5.8065124  25.5417830
  68.7262146   5.7410686  25.7450706  67.7054686   6.6421391  25.0832363
  70.4219490   5.1230994  22.5021778  70.3433121   4.7890858  23.3957536
  71.2429157   5.6152762  22.5013250  64.8419704   0.9106533  43.2125957
  65.7622714   1.0885132  43.4066004  64.8069287  -0.0337422  43.0605657
  54.0601869  -3.8954873  32.1379232  53.7404654  -4.7489565  31.8453606
  53.5135298  -3.6806295  32.8937199  57.8381777  -1.1792432  35.8548739
  58.0567787  -0.2475325  35.8736772  58.2507551  -1.5384458  36.6403542
  53.9290129  -0.2751962  34.1072354  53.2353601  -0.6898009  33.5942308
  54.6763120  -0.2331425  33.5105773  55.8426872  -0.3433708  31.9838369
  55.8197560  -0.2446021  31.0320252  56.1527508   0.5031443  32.3055535
  58.5014250   1.7142447  36.0984983  59.4557503   1.6826389  36.0314915
  58.3026773   1.2533071  36.9135209  59.0913632   0.2843563  38.6655781
  59.9106521   0.7787642  38.6890618  59.3650440  -0.6324469  38.6373348
  56.8564479   7.2562066  33.1155181  56.7218947   6.4962467  32.5493179
  56.4396541   7.9802966  32.6483970  67.9923442   2.4398990  22.1231756
  68.6959292   2.6448992  22.7389412  67.2686090   3.0075752  22.3880840
  60.0133604   8.1531383  33.3273623  59.8965989   9.0976816  33.2252314
  59.1926051   7.8504945  33.7159423  69.9010139   2.8781519  24.1730216
  70.7355743   2.4462718  23.9907691  69.7394482   2.7063533  25.1007111
  66.8701938   1.6862544  44.8640118  67.7393098   1.8603196  44.5026753
  66.3908690   2.5056961  44.7415848  61.0388119   8.8059645  36.5429552
  61.9415365   8.8383255  36.8596047  60.8125489   7.8760096  36.5575888
  62.7941721   7.5590632  33.2039631  61.8437352   7.5592493  33.0904003
  63.0974207   6.8123366  32.6875665  78.5294414  13.3951170  34.2685393
  79.1672824  13.2757918  33.5648733  78.4115257  14.3432014  34.3273345
  75.3384120  13.3478598  34.2046918  75.0002632  13.2319663  33.3167452
  76.2073889  12.9469763  34.1847924  71.1970936  15.2014075  30.1943809
  70.6335801  15.1104012  29.4260096  71.0823331  14.3813979  30.6746301
  75.8203903  14.5013450  40.1633123  75.8092544  14.1066248  39.2913627
  75.9824543  13.7679523  40.7566895  68.7435368  16.6965266  33.0328029
  69.5356660  16.3556091  32.6174328  68.9832018  16.8060241  33.9530182
  76.7770495  18.8685042  25.5058273  76.1258475  19.4539123  25.1192287
  77.5714858  19.3991237  25.5653311  70.7026122  15.9574180  25.9045408
  71.4756998  15.4103167  25.7658284  71.0551521  16.8218429  26.1159869
  72.5411165  17.2850562  39.1112307  72.2501031  18.1896193  38.9958973
  73.1768149  17.3267089  39.8256377  73.4667371  14.6627410  35.7013667
  74.0630944  14.4383433  34.9870630  73.5242343  13.9212156  36.3039115
  73.0392400  12.1166846  23.5363858  73.2917920  11.5948367  22.7747321
  72.1016959  11.9532991  23.6390541  78.0835683  11.1202624  31.3438601
  78.8698772  10.7022047  30.9929018  78.3474387  12.0248716  31.5120249
  78.2545760  16.5575474  26.0427258  77.6191593  16.6310101  26.7548162
  77.9243166  17.1469073  25.3646337  83.4844110  11.0577857  32.2471579
  84.2169282  10.4877074  32.4809409  82.7283465  10.6699458  32.6878085
  72.7588689  14.0194952  25.7388233  72.6424947  13.3439855  26.4069317
  72.8690948  13.5327326  24.9220386  75.1020229  13.4805099  29.4434922
  74.7378437  12.9535720  30.1547843  75.9587345  13.0903568  29.2701407
  81.0069530   4.7699431  36.7066188  80.6752855   5.6394842  36.4827403
  80.4115143   4.4535715  37.3860218  74.7425716   8.5094998  24.4396270
  74.9100119   9.3775235  24.8066741  74.5522885   8.6722280  23.5157560
  77.5001050  16.9711977  36.1062101  77.2001773  17.8737016  35.9977908
  77.1552109  16.7044161  36.9583254  70.9513531  13.4225774  32.1398805
  70.0264028  13.2901988  32.3476497  71.1997944  14.2019993  32.6368748
  80.8998193   9.4894517  33.7859538  79.9915071   9.4209926  33.4918299
  80.8485789   9.9666462  34.6141364  74.7214937  10.9652656  25.4242937
  74.6014563  11.4109707  26.2628418  74.0267526  11.3137974  24.8656475
  68.3122342  13.0659048  32.9742594  68.4414723  13.3193527  33.8882006
  67.6319793  13.6586756  32.6547249  72.4821829  23.7356298  29.0733068
  72.4045859  24.6864123  29.1521549  71.8783473  23.3902170  29.7307995
  74.9739059  10.9084163  41.7294435  74.1972393  11.4678083  41.7197300
  75.6129622  11.3940946  42.2509306  82.7659840   7.6910956  35.5637412
  82.1234220   7.9843489  34.9177207  82.2614768   7.5763876  36.3690609
  80.4200003  11.4374129  26.2523271  81.3317860  11.6701516  26.0770969
  79.9109651  12.0211173  25.6898350  73.2285431  13.7169616  41.2912402
  73.9700116  14.2554660  41.0147226  72.5222417  14.3435905  41.4483954
  78.7040771  15.8598757  39.8884564  79.1124127  15.4181167  39.1439196
  77.9818033  15.2851384  40.1418757  75.0571841  10.7971364  37.2618121
  75.9033036  11.2210777  37.4052770  74.9970479  10.1404988  37.9556684
  79.0269586  16.4199948  33.6436853  78.3978448  16.5845662  32.9412921
  78.6395248  16.8341557  34.4147817  82.9058818  17.3554385  30.9981217
  82.2209856  17.7353287  30.4478250  82.9902667  17.9649712  31.7313164
  78.2071287   8.4575732  38.9199294  77.9632218   9.2117793  38.3833570
  78.4831217   8.8361080  39.7546542  80.1609749  15.0014344  37.5976560
  80.3726645  15.6446104  36.9210941  80.1139498  14.1676661  37.1298490
  77.7635978   7.6132165  34.5013132  76.9020457   7.9113419  34.7929870
  77.7898413   7.8302564  33.5694165  74.5797548  16.1574356  30.9086938
  75.0435893  16.4362059  30.1191560  74.3154346  15.2557800  30.7260029
  71.4721629  15.7045837  33.8466701  72.0422986  16.1333106  33.2084186
  72.0629741  15.4228422  34.5450887  73.5166434  12.2797508  27.7176503
  74.2190477  12.7318552  28.1850429  73.1847062  11.6381327  28.3456396
  71.9646795  10.8709265  42.0927712  71.3345456  11.5525545  42.3263109
  71.8582883  10.7592346  41.1480851  67.2591768  10.5381061  33.0193637
  66.4690822  10.7938589  32.5433747  67.7503015  11.3529399  33.1245677
  81.2755577  17.8786300  35.7698917  82.0973021  17.4766487  35.4881599
  81.2717980  17.7754534  36.7215033  69.2106513  10.9025640  29.9777113
  68.4137676  11.0144334  30.4960609  68.9832105  11.2412292  29.1118004
  75.0412181  17.4270343  37.9259628  75.1056613  17.8890750  38.7617800
  74.3323105  16.7967708  38.0541938  65.5429471  10.7911551  35.4508627
  65.7937509  11.6758561  35.7166203  66.0789019  10.6116153  34.6783719
  89.3661570  14.2225048  32.1183889  88.6125279  13.6532446  31.9627893
  89.5009111  14.1887713  33.0654524  74.7560198  19.0938451  27.7938608
  74.6205873  19.9389986  28.2223456  75.2970011  19.2957728  27.0304542
  71.2427538   5.1730030  44.4552963  70.8494484   4.6196229  45.1300608
  72.0593678   5.4840609  44.8459481  68.2089596  16.6113889  28.3666533
  68.7214116  17.4057139  28.5172098  68.8612309  15.9140179  28.3000135
  70.0184480  19.7279645  30.4489286  70.1951109  20.6497610  30.2610270
  70.8141314  19.4138064  30.8783666  74.1595499   6.5887910  42.0473220
  74.9005212   7.1895063  41.9677682  74.3913422   5.8465547  41.4891263
  69.3036837  11.7744277  40.3251450  69.1890352  10.8729534  40.6258549
  68.4481355  12.0207974  39.9736266  76.3828675  19.7162017  41.9238950
  75.9392529  18.9298396  41.6059855  77.0445888  19.9041168  41.2582841
  71.1415796  21.2457819  36.4499629  71.6923221  21.1174882  35.6776623
  70.3027272  21.5452708  36.0994522  78.4809913  19.9964817  39.9520352
  78.4628388  20.8173698  39.4600621  79.4029833  19.8718892  40.1770493
  74.9382967  17.5108947  40.7943860  75.4711304  16.7497235  40.5643168
  74.4097048  17.2182598  41.5368014  66.1738512  14.9402543  29.1426104
  67.0113734  15.3499551  28.9259812  66.3516780  14.0001985  29.1126298
  78.0702945  12.6077624  24.8309937  77.5549568  13.3782228  25.0698324
  77.7980253  11.9342760  25.4542998  75.6550056   7.4527324  29.8895175
  74.7991652   7.0634175  29.7100814  76.0677007   7.5319285  29.0294961
  77.1849202   4.9873668  34.2886735  76.6813998   4.9503803  33.4754540
  77.4779809   5.8966410  34.3483392  73.4292088   5.0712397  33.2952917
  74.2945085   4.8755206  32.9358806  73.4969597   4.8422749  34.2222273
  83.0437219  15.3609978  26.7663110  82.2666662  15.0221138  26.3218272
  83.7228700  15.3662601  26.0918075  77.8589248  10.4804716  26.6569718
  77.5539383  10.7950865  27.5079861  78.8119690  10.5586136  26.6997051
  76.3035680  16.6394939  28.3062672  75.7757041  15.9047699  27.9935909
  75.8023182  17.4169615  28.0602640  81.2828526  14.8343959  33.4229718
  80.6252200  15.5243221  33.5109847  82.0868925  15.2240391  33.7663705
  71.0354407   7.3014605  30.6669283  71.6098159   7.0789787  29.9342476
  71.6225390   7.3703300  31.4197885  80.0933984  13.1888332  31.4733660
  80.6065866  13.8218324  31.9755370  80.7435208  12.5889528  31.1077020
  71.3623994   9.3319066  24.6865169  70.5261307   9.6693753  25.0074443
  71.2228764   9.1968046  23.7492306  73.3377075   4.1755854  29.3944353
  72.6841487   3.8604871  28.7700968  73.2957549   3.5531595  30.1204176
  74.4488280  14.4575149  21.3097645  73.5415342  14.2264403  21.5088794
  74.9459312  13.6612769  21.4971627  77.3556359  23.1672656  24.2294331
  76.6818057  23.4704353  24.8379289  77.7422181  23.9701737  23.8799788
  76.5714815  10.6637788  33.7192001  75.6537377  10.8852735  33.5613689
  76.9874959  10.7384098  32.8603708  77.3549863  12.0629203  28.8494681
  78.1021682  12.5750601  28.5401803  77.6241453  11.7413256  29.7099074
  75.6276513  14.5587744  25.8321635  74.7187733  14.2746777  25.9294105
  75.6571597  14.9786823  24.9724942  80.8595781  18.1694334  29.6012803
  80.4058108  17.3285244  29.6577993  80.2289747  18.8055732  29.9387583
  79.8028700   9.0986320  30.8313470  79.0651457   8.5863706  31.1623713
  80.0555474   8.6586701  30.0196747  79.3028720  20.0070830  30.5362621
  79.5951694  20.5675887  29.8174986  79.8127340  20.2999391  31.2915780
  66.1964684  12.2793258  29.8136837  65.9989083  11.6862619  29.0887904
  65.6411348  11.9745468  30.5312776  74.1761407  12.1716365  31.9331430
  74.2310017  11.2190201  31.8573907  73.3652609  12.3275804  32.4172729
  75.3252601  16.0996488  23.1709714  74.8872031  15.3832347  22.7115351
  76.0663042  16.3272603  22.6094805  72.1153767  10.7893424  29.6921809
  71.3021633  11.0887595  30.0987001  72.6112761  10.3949113  30.4096292
  74.2662345  20.7851181  31.6256074  74.2238524  21.0112028  30.6964606
  75.1825044  20.5514556  31.7741875  77.7127979  11.2535249  38.5236703
  78.0677367  11.4806722  39.3831169  78.3600110  11.5853626  37.9013958
  83.4425716  14.3753685  29.2286032  83.3043614  14.5655281  28.3007221
  83.0861935  15.1373068  29.6854083  71.6067842   8.3611780  35.3083044
  72.2467221   8.2200539  34.6106008  70.7745373   8.0746293  34.9321646
  83.4695095  16.4430212  34.2397304  83.9031602  16.3505501  35.0880358
  84.1826676  16.4187712  33.6017320  72.3828146  17.6614210  31.4218037
  73.1768744  17.1664531  31.2200612  71.6719838  17.1332074  31.0585742
  77.2022990  20.0432306  35.7730404  77.2560013  20.6123242  36.5408120
  76.3337772  20.2134191  35.4084441  68.6910909  11.8057292  27.4977789
  67.7608497  11.7441748  27.7147752  68.7868381  11.2833245  26.7014431
  68.6096458   8.3312105  30.0856031  68.8703276   9.2457438  29.9765192
  69.4313631   7.8636548  30.2352644  70.0821384   9.7449862  37.2554856
  70.7544437   9.5367224  36.6067505  69.2551170   9.5471948  36.8160088
  84.3310645  16.4853913  36.7730189  84.5246535  17.3899723  37.0189464
  84.2311263  16.0261332  37.6068774  75.9846956   6.3711803  39.2720516
  75.3374871   7.0701753  39.1784993  76.7547971   6.8047947  39.6396765
  79.3925754  16.6360655  42.3471070  79.2411260  16.4071207  41.4301153
  79.3830433  17.5931257  42.3602415  76.1611090  14.2092568  37.3317336
  77.0903150  14.3603728  37.1586304  75.7402120  14.2976589  36.4765983
  74.9599422  18.2343232  35.1015874  74.8210508  17.8662017  35.9741812
  74.1714018  18.7490872  34.9299832  75.5547574  23.3352329  26.4441410
  75.7299330  22.8640372  27.2587033  74.8680362  23.9618095  26.6722671
  76.5104637  17.6124835  32.4904712  76.1754470  17.5725605  33.3862361
  76.0108583  16.9469551  32.0175122  70.4848881  13.0192465  38.0157293
  70.3468679  12.2872704  38.6168832  71.3953804  12.9301365  37.7341481
  79.4463829  14.9580869  22.7641771  78.8292999  14.2327698  22.6674824
  78.9780317  15.7190230  22.4208846  73.1131182  12.7312424  37.5040972
  73.8230800  12.0905617  37.4627591  73.0700490  12.9825319  38.4267153
  81.1017960  19.6679778  40.4247552  81.0430506  18.9838998  39.7578135
  81.5037479  20.4098768  39.9728178  71.8260116   9.7177642  39.3236612
  71.2897473   9.2668381  39.9758208  71.2376824   9.8523551  38.5807076
  70.1208659  26.4841692  33.2181271  70.3605257  27.1160216  33.8960289
  69.2777856  26.1329732  33.5046630  71.2362375   9.1766294  21.8863076
  70.3591841   9.0555095  21.5225322  71.7120128   8.3852372  21.6341964
  81.1035368  17.6319362  38.6561531  80.2162146  17.2945284  38.7787930
  81.6733919  16.9002393  38.8930297  62.7564515  13.9643453  31.9804583
  63.4435555  13.6505184  31.3925598  62.6012643  14.8684818  31.7071834
  67.5599237   8.8533650  36.4089606  67.4757426   8.2459320  35.6740016
  66.7381943   9.3442668  36.4099103  74.6336521  22.2920814  35.6222774
  74.5606692  23.0975786  36.1342079  74.1913914  22.4912780  34.7970796
  74.4226301  21.5292584  29.1325596  73.6393823  22.0714264  29.2263821
  75.1219046  22.0466564  29.5319837  77.7322951   7.3387214  31.7759801
  78.2291650   6.5857176  31.4560872  76.9609932   7.3751530  31.2103011
  85.5852708  13.0427579  33.4178093  85.5742584  13.9252295  33.0472026
  84.7170088  12.6899130  33.2232630  77.0935205  22.1907648  37.7780933
  77.8063177  22.8255113  37.7056835  76.6025233  22.2871514  36.9620935
  78.8152731  16.0958901  29.3498225  77.8809010  16.2160363  29.1802929
  78.9929400  15.1931368  29.0858235  74.3157919   9.4804597  31.5031486
  73.9455707   8.9275637  32.1912392  74.8117012   8.8762730  30.9506486
  82.2025283  11.9376220  29.8848259  82.6685735  12.7704212  29.8108562
  82.6532783  11.4721202  30.5893517  72.1447118  19.9402092  38.5986504
  72.8456578  20.5738575  38.7515898  71.6742233  20.2816823  37.8382143
  80.2701514  18.2820041  26.8834411  80.5461358  18.1676636  27.7928285
  79.4006013  17.8837526  26.8446584  79.9448404  12.4946699  36.4239054
  79.2919854  12.7422606  35.7691507  80.3228784  11.6810837  36.0901532
  76.9055578  22.5306392  30.5267225  77.0877972  21.7128048  30.9894977
  77.7288564  22.7474084  30.0892115  77.2397743  21.4574577  27.7882273
  77.7685510  20.9467032  27.1752435  77.5025963  21.1417108  28.6527806
  75.9935977  13.2366510  42.9105091  75.3176614  13.1360639  43.5807467
  76.8163611  13.0805724  43.3741089  67.7414836  19.4738447  35.5317607
  68.3268273  18.7282135  35.6645511  67.5439675  19.7842403  36.4154271
  70.5953491  22.5089694  30.5480049  69.9263867  22.9935822  30.0644089
  70.4566361  22.7558914  31.4623428  62.3332491  12.0444047  34.2522050
  62.3716590  11.5107638  35.0459168  61.8272784  11.5179252  33.6333027
  74.7358760  24.5433438  37.1462707  75.2877068  24.7065059  37.9111793
  75.0764953  25.1337875  36.4742732  69.7123253   6.8908587  37.7484592
  69.7764580   7.7523418  37.3361990  69.6490373   6.2782589  37.0156951
  69.1875526   8.9631720  41.3957626  69.8147564   8.5808797  42.0095151
  68.3303445   8.7445922  41.7613319  79.5869634  19.3694695  43.0011362
  80.1309538  19.9824653  42.5066317  79.0056479  19.9274273  43.5178375
  65.9641068  10.7708149  27.3275981  66.2594510   9.8618827  27.2743035
  65.0629104  10.7495888  27.0056984  77.8727147  22.4915413  34.1326390
  77.7478287  21.6905153  33.6237335  78.5306238  22.9861606  33.6440360
  69.4935315   8.8464146  33.3103530  68.7721901   9.4600113  33.1711003
  70.2828571   9.3821910  33.2320176  79.9362056  20.2924433  35.7605940
  78.9892391  20.1729784  35.6884266  80.2844829  19.4046931  35.8432201
  72.2961629   6.1818572  39.5844182  72.8196031   6.4280869  40.3470491
  72.0773962   7.0138607  39.1647319  67.6928910   8.4522247  27.4515306
  67.3641616   7.5719626  27.2690412  68.0468281   8.3969915  28.3391696
  76.9408489  20.0877149  31.9610292  76.7933451  19.1593857  32.1417862
  77.7661982  20.1097240  31.4767367  70.8070733   8.7395216  27.8190784
  71.1466806   9.2681138  27.0969392  71.2542854   9.0775623  28.5949351
  80.5442611  20.9105708  33.0475165  81.4689158  20.7048569  32.9099616
  80.3757914  20.6622109  33.9564506  73.5014174   7.1232267  37.2693852
  73.1610994   6.3240080  37.6714532  72.7953180   7.4233978  36.6970685
  74.1530646   4.2081580  35.7221175  74.9756715   3.7342058  35.6000065
  74.3968709   4.9872063  36.2219861  72.7938880   7.2369838  26.0184077
  73.5147243   7.6151091  25.5147794  72.1704184   7.9558715  26.1219055
  76.9370003   7.9414987  26.9542409  77.1533618   8.8239625  26.6531237
  76.4564070   7.5501200  26.2248051  71.6769225  10.9000700  33.5313154
  71.5313805  11.2141003  34.4237435  71.1994428  11.5185601  32.9784052
  73.5365607   7.8903248  33.5794043  73.5227176   6.9944342  33.2426341
  74.2538036   7.8973912  34.2132329  75.3891738   8.3240588  35.6247171
  75.1309516   9.2457659  35.6231501  74.8576779   7.9271023  36.3147635
  80.3337927  21.4291376  28.4037256  80.5074804  20.8637798  27.6511109
  80.8266818  22.2292270  28.2216746  66.1514887  13.4406045  36.4700815
  65.6068355  14.2165853  36.6021089  67.0294237  13.7876849  36.3119936
  72.9402503   6.7717629  28.8481613  73.0618415   5.8434275  29.0472501
  72.6504546   6.7856314  27.9359929  75.8093694   4.4572539  31.9848333
  75.8315391   4.5211872  31.0300313  76.2261753   3.6177048  32.1788839
  86.1877318  14.1927798  30.0227556  86.6308464  13.4435124  29.6246679
  85.3103828  14.1837935  29.6401288  81.3213099  20.7458140  25.5034154
  82.0164004  21.3664833  25.7221469  81.6636250  19.8953491  25.7786532
  66.9380909  12.5675941  39.3630972  66.1962645  12.7158576  39.9495602
  66.6173653  12.8284207  38.4997721  83.2204523  18.1957845  27.0321485
  83.7455847  18.5345118  26.3070805  83.1326875  17.2604861  26.8484620
  74.8824571  22.1091919  39.1611362  75.1911698  21.8641066  40.0334061
  75.6800053  22.3138558  38.6730232  74.9045183  24.2629829  31.3916738
  74.4650174  23.7706207  32.0849595  75.6553300  23.7202796  31.1508814
  67.3837522  20.4541370  31.3941366  68.2095542  20.1545141  31.0140010
  67.0331574  19.6848992  31.8431155  72.3519055  19.8067838  33.4639040
  71.7299065  19.1438543  33.1641268  73.0223922  19.8328970  32.7812688
  65.5846127  18.3727696  32.3530300  64.7478036  17.9449870  32.1714301
  65.5569773  18.5660139  33.2901091  72.4243583   8.2849626  43.0571546
  72.4731738   9.1611749  42.6749316  72.9666097   7.7427019  42.4843189
  82.9098429  18.8290749  42.3372683  82.1193972  18.8114888  41.7977183
  82.6731783  19.3679043  43.0921720  83.0296304  15.6783215  39.6505412
  83.0794309  15.5133223  40.5920934  82.9210227  14.8110475  39.2603292
  71.9132562  18.3571761  26.9397501  72.0620683  19.0407226  26.2864173
  72.7199006  18.3376851  27.4546956  80.3200066  11.6614144  40.9664718
  81.2209929  11.5220608  40.6748716  80.3948041  11.8268598  41.9062896
  74.6542871   9.0380998  39.8117905  73.7846181   9.3314564  39.5400493
  74.8902352   9.6221443  40.5325168  84.5314500  18.0980157  39.8947433
  84.2399309  18.4610138  40.7310894  83.9186632  17.3847165  39.7160765
  85.7310183  15.6633037  32.4150003  86.5657074  16.1022841  32.5787564
  85.8669312  15.1871690  31.5958249  82.7801689  13.2212772  38.3627491
  83.2555810  13.4140418  37.5546343  81.8567254  13.2771957  38.1170875
  69.6685195  14.3836939  27.9458569  69.4231237  13.4799269  28.1438780
  69.8381110  14.3854089  27.0038047  77.3581905   5.2560615  37.3283325
  77.8763849   5.9921642  37.0029814  77.0037038   5.5624608  38.1630084
  68.9380843  10.1165296  25.4444731  68.2450088  10.1909651  24.7884767
  68.6932595   9.3525640  25.9666248  75.4127968  20.8519892  24.4109248
  74.8401935  21.4710079  23.9579720  75.9860762  21.4019253  24.9449170
  81.4803358  10.0978532  36.5955797  82.4320781  10.1976629  36.6168021
  81.3106808   9.3056800  37.1053881  79.5017737   7.1834115  36.7815198
  78.9067669   7.4639128  36.0861686  79.2167434   7.6728016  37.5531939
  78.6325228  21.1357042  25.5417830  79.5655901  21.0702603  25.7450706
  78.5448440  21.9713309  25.0832363  81.2613244  20.4522912  22.5021778
  81.1826876  20.1182776  23.3957536  82.0822911  20.9444680  22.5013250
  83.9591436  13.3184651  35.7098096  83.9267756  12.3800652  35.8957780
  84.5692059  13.3968688  34.9763921  75.7974766  12.1880704  21.7525300
  76.7433871  12.0586912  21.8213718  75.4189011  11.4495366  22.2294729
  84.1085924  10.1095695  35.7556380  83.5924973   9.3254151  35.5686308
  84.9925873   9.7814411  35.9202899  89.7767985  14.3800658  34.8504133
  90.5071374  14.1185946  35.4111837  89.1674931  13.6429380  34.8906201
  87.8583282  12.5208521  35.4478584  87.1316446  12.3864486  34.8395076
  87.4430569  12.8285349  36.2535302  75.6813459  16.2398451  43.2125957
  76.6016468  16.4177050  43.4066004  75.6463042  15.2954496  43.0605657
  73.9817684  10.1130681  21.6880186  73.0749139   9.8163793  21.7642899
  74.2593665   9.8160499  20.8214472  64.8995624  11.4337044  32.1379232
  64.5798408  10.5802352  31.8453606  64.3529052  11.6485622  32.8937199
  68.6775531  14.1499485  35.8548739  68.8961541  15.0816593  35.8736772
  69.0901305  13.7907460  36.6403542  75.5979749   4.6567570  27.8424427
  74.7880478   4.3114655  28.2179673  76.2864166   4.3475114  28.4312039
  73.5503397   9.7232691  45.2451488  73.4500124  10.6727048  45.1763579
  73.3324939   9.3950930  44.3727558  72.7516468   6.9717616  21.8292165
  73.6135632   7.2972514  22.0887982  72.9366812   6.1849112  21.3165231
  64.7683884  15.0539956  34.1072354  64.0747355  14.6393908  33.5942308
  65.5156875  15.0960492  33.5105773  80.9049105   5.8446142  28.9727388
  80.3247774   6.5030946  28.5905440  80.6385037   5.0223487  28.5614805
  79.3552671   5.2451200  31.1748708  79.8552449   5.3567735  30.3663027
  79.9988279   4.9412253  31.8149517  73.4134667  13.1529830  44.0616549
  72.9301749  13.9530190  44.2680438  73.4995606  13.1637775  43.1083993
  66.6820626  14.9858209  31.9838369  66.6591315  15.0845897  31.0320252
  66.9921263  15.8323360  32.3055535  69.3408004  17.0434364  36.0984983
  70.2951258  17.0118307  36.0314915  69.1420528  16.5824988  36.9135209
  69.9307386  15.6135481  38.6655781  70.7500275  16.1079559  38.6890618
  70.2044194  14.6967449  38.6373348  79.6873983   8.0046233  28.0283736
  78.7999838   8.2895883  27.8103931  80.1027972   7.8439996  27.1811013
  83.0388519   8.0292754  31.7438075  83.8148909   8.5189206  32.0162692
  82.3136653   8.4550808  32.2009945  85.4761077   8.7420373  32.8012016
  86.0705568   8.5016109  32.0905324  85.5487661   8.0227504  33.4285552
  67.6958233  22.5853984  33.1155181  67.5612701  21.8254385  32.5493179
  67.2790295  23.3094884  32.6483970  78.8317196  17.7690908  22.1231756
  79.5353046  17.9740910  22.7389412  78.1079845  18.3367669  22.3880840
  79.6615006  13.5200769  28.2434026  79.6050208  13.9769320  27.4041659
  80.2143349  12.7591453  28.0656869  83.4719812   9.3090501  29.0684146
  83.2156747   8.9087136  29.8992353  82.8472680  10.0234295  28.9434285
  87.7832150  12.0486574  31.5755437  87.2231708  12.1179763  32.3486999
  87.1775654  11.8727559  30.8554933  70.8527359  23.4823301  33.3273623
  70.7359743  24.4268733  33.2252314  70.0319805  23.1796863  33.7159423
  80.7403894  18.2073437  24.1730216  81.5749497  17.7754635  23.9907691
  80.5788236  18.0355450  25.1007111  80.3949786  14.7105550  25.5386555
  80.3398589  14.5449821  24.5975000  79.7695841  15.4181583  25.6948745
  65.1842301   9.9473614  39.3647978  65.8301164   9.4372568  39.8535203
  64.9759452  10.6842296  39.9391403  77.7095693  17.0154462  44.8640118
  78.5786852  17.1895114  44.5026753  77.2302444  17.8348879  44.7415848
  73.7045911   4.2113659  25.1171874  73.6924581   5.1555499  25.2740145
  74.5969333   4.0283804  24.8231335  71.8781873  24.1351563  36.5429552
  72.7809120  24.1675173  36.8596047  71.6519243  23.2052014  36.5575888
  73.6335475  22.8882549  33.2039631  72.6831106  22.8884411  33.0904003
  73.9367961  22.1415284  32.6875665  69.5239792   7.0941231  43.4622992
  70.3871253   6.7378036  43.6726316  68.9505202   6.7555126  44.1498396
  89.3688169  28.7243088  34.2685393  90.0066579  28.6049835  33.5648733
  89.2509011  29.6723932  34.3273345  86.1777875  28.6770516  34.2046918
  85.8396386  28.5611581  33.3167452  87.0467643  28.2761681  34.1847924
  82.0364691  30.5305992  30.1943809  81.4729556  30.4395929  29.4260096
  81.9217086  29.7105897  30.6746301  86.6597658  29.8305368  40.1633123
  86.6486299  29.4358166  39.2913627  86.8218297  29.0971440  40.7566895
  79.5829123  32.0257184  33.0328029  80.3750414  31.6848009  32.6174328
  79.8225773  32.1352159  33.9530182  87.6164249  34.1976960  25.5058273
  86.9652229  34.7831040  25.1192287  88.4108612  34.7283155  25.5653311
  81.5419876  31.2866097  25.9045408  82.3150752  30.7395084  25.7658284
  81.8945275  32.1510347  26.1159869  83.3804919  32.6142479  39.1112307
  83.0894785  33.5188110  38.9958973  84.0161903  32.6559007  39.8256377
  84.3061126  29.9919328  35.7013667  84.9024698  29.7675350  34.9870630
  84.3636097  29.2504073  36.3039115  83.8786154  27.4458763  23.5363858
  84.1311675  26.9240285  22.7747321  82.9410713  27.2824909  23.6390541
  88.9229437  26.4494542  31.3438601  89.7092526  26.0313965  30.9929018
  89.1868141  27.3540634  31.5120249  89.0939514  31.8867392  26.0427258
  88.4585347  31.9602018  26.7548162  88.7636921  32.4760991  25.3646337
  94.3237864  26.3869775  32.2471579  95.0563036  25.8168992  32.4809409
  93.5677220  25.9991375  32.6878085  83.5982443  29.3486869  25.7388233
  83.4818701  28.6731773  26.4069317  83.7084703  28.8619243  24.9220386
  85.9413984  28.8097016  29.4434922  85.5772191  28.2827637  30.1547843
  86.7981100  28.4195485  29.2701407  91.8463285  20.0991349  36.7066188
  91.5146609  20.9686760  36.4827403  91.2508898  19.7827633  37.3860218
  85.5819471  23.8386916  24.4396270  85.7493873  24.7067152  24.8066741
  85.3916640  24.0014198  23.5157560  88.3394804  32.3003895  36.1062101
  88.0395527  33.2028934  35.9977908  87.9945864  32.0336078  36.9583254
  81.7907286  28.7517692  32.1398805  80.8657782  28.6193906  32.3476497
  82.0391699  29.5311911  32.6368748  91.7391948  24.8186435  33.7859538
  90.8308825  24.7501844  33.4918299  91.6879544  25.2958380  34.6141364
  85.5608692  26.2944574  25.4242937  85.4408317  26.7401624  26.2628418
  84.8661280  26.6429891  24.8656475  79.1516097  28.3950965  32.9742594
  79.2808478  28.6485444  33.8882006  78.4713548  28.9878673  32.6547249
  83.3215584  39.0648215  29.0733068  83.2439614  40.0156040  29.1521549
  82.7177227  38.7194088  29.7307995  85.8132814  26.2376081  41.7294435
  85.0366148  26.7970001  41.7197300  86.4523377  26.7232864  42.2509306
  93.6053594  23.0202874  35.5637412  92.9627975  23.3135407  34.9177207
  93.1008523  22.9055794  36.3690609  91.2593758  26.7666047  26.2523271
  92.1711614  26.9993433  26.0770969  90.7503405  27.3503091  25.6898350
  84.0679186  29.0461534  41.2912402  84.8093870  29.5846578  41.0147226
  83.3616171  29.6727823  41.4483954  89.5434526  31.1890675  39.8884564
  89.9517882  30.7473085  39.1439196  88.8211787  30.6143302  40.1418757
  85.8965596  26.1263281  37.2618121  86.7426791  26.5502695  37.4052770
  85.8364233  25.4696906  37.9556684  89.8663340  31.7491865  33.6436853
  89.2372203  31.9137579  32.9412921  89.4789002  32.1633475  34.4147817
  93.7452572  32.6846303  30.9981217  93.0603610  33.0645204  30.4478250
  93.8296421  33.2941630  31.7313164  89.0465041  23.7867650  38.9199294
  88.8025973  24.5409710  38.3833570  89.3224971  24.1652997  39.7546542
  91.0003504  30.3306262  37.5976560  91.2120399  30.9738022  36.9210941
  90.9533252  29.4968579  37.1298490  88.6029733  22.9424083  34.5013132
  87.7414212  23.2405336  34.7929870  88.6292167  23.1594482  33.5694165
  85.4191302  31.4866273  30.9086938  85.8829648  31.7653976  30.1191560
  85.1548100  30.5849718  30.7260029  82.3115383  31.0337755  33.8466701
  82.8816740  31.4625023  33.2084186  82.9023495  30.7520340  34.5450887
  84.3560188  27.6089426  27.7176503  85.0584232  28.0610469  28.1850429
  84.0240817  26.9673245  28.3456396  82.8040550  26.2001182  42.0927712
  82.1739210  26.8817463  42.3263109  82.6976638  26.0884264  41.1480851
  78.0985522  25.8672978  33.0193637  77.3084576  26.1230507  32.5433747
  78.5896770  26.6821316  33.1245677  92.1149332  33.2078217  35.7698917
  92.9366775  32.8058405  35.4881599  92.1111735  33.1046452  36.7215033
  80.0500268  26.2317558  29.9777113  79.2531431  26.3436252  30.4960609
  79.8225860  26.5704210  29.1118004  85.8805935  32.7562261  37.9259628
  85.9450368  33.2182668  38.7617800  85.1716859  32.1259626  38.0541938
  76.3823225  26.1203469  35.4508627  76.6331264  27.0050479  35.7166203
  76.9182774  25.9408070  34.6783719 100.2055325  29.5516966  32.1183889
  99.4519033  28.9824364  31.9627893 100.3402866  29.5179630  33.0654524
  85.5953953  34.4230368  27.7938608  85.4599628  35.2681904  28.2223456
  86.1363765  34.6249646  27.0304542  82.0821292  20.5021948  44.4552963
  81.6888238  19.9488147  45.1300608  82.8987433  20.8132527  44.8459481
  79.0483350  31.9405806  28.3666533  79.5607871  32.7349057  28.5172098
  79.7006063  31.2432097  28.3000135  80.8578235  35.0571563  30.4489286
  81.0344863  35.9789527  30.2610270  81.6535068  34.7429982  30.8783666
  84.9989253  21.9179827  42.0473220  85.7398967  22.5186980  41.9677682
  85.2307176  21.1757465  41.4891263  80.1430591  27.1036194  40.3251450
  80.0284107  26.2021452  40.6258549  79.2875109  27.3499891  39.9736266
  87.2222429  35.0453935  41.9238950  86.7786283  34.2590313  41.6059855
  87.8839643  35.2333085  41.2582841  81.9809550  36.5749736  36.4499629
  82.5316975  36.4466800  35.6776623  81.1421026  36.8744625  36.0994522
  89.3203667  35.3256735  39.9520352  89.3022143  36.1465616  39.4600621
  90.2423587  35.2010810  40.1770493  85.7776721  32.8400864  40.7943860
  86.3105058  32.0789152  40.5643168  85.2490803  32.5474516  41.5368014
  88.9446416  17.9460930  36.3237502  88.6010686  18.8362572  36.2476612
  89.3125379  17.7562588  35.4607087  77.0132267  30.2694461  29.1426104
  77.8507489  30.6791469  28.9259812  77.1910535  29.3293903  29.1126298
  88.9096699  27.9369541  24.8309937  88.3943323  28.7074146  25.0698324
  88.6374008  27.2634677  25.4542998  86.4943810  22.7819242  29.8895175
  85.6385406  22.3926092  29.7100814  86.9070762  22.8611203  29.0294961
  88.0242957  20.3165585  34.2886735  87.5207752  20.2795720  33.4754540
  88.3173564  21.2258328  34.3483392  84.2685843  20.4004315  33.2952917
  85.1338839  20.2047124  32.9358806  84.3363352  20.1714667  34.2222273
  93.8830973  30.6901896  26.7663110  93.1060416  30.3513055  26.3218272
  94.5622454  30.6954519  26.0918075  88.6983002  25.8096633  26.6569718
  88.3933138  26.1242783  27.5079861  89.6513444  25.8878053  26.6997051
  87.1429434  31.9686857  28.3062672  86.6150796  31.2339616  27.9935909
  86.6416937  32.7461533  28.0602640  92.1222280  30.1635877  33.4229718
  91.4645955  30.8535139  33.5109847  92.9262679  30.5532309  33.7663705
  81.8748162  22.6306523  30.6669283  82.4491914  22.4081704  29.9342476
  82.4619144  22.6995217  31.4197885  90.9327739  28.5180250  31.4733660
  91.4459621  29.1510242  31.9755370  91.5828963  27.9181445  31.1077020
  82.2017749  24.6610984  24.6865169  81.3655061  24.9985671  25.0074443
  82.0622518  24.5259964  23.7492306  84.1770829  19.5047772  29.3944353
  83.5235242  19.1896789  28.7700968  84.1351304  18.8823512  30.1204176
  85.2882034  29.7867067  21.3097645  84.3809096  29.5556320  21.5088794
  85.7853066  28.9904686  21.4971627  88.1950113  38.4964574  24.2294331
  87.5211812  38.7996271  24.8379289  88.5815935  39.2993654  23.8799788
  87.4108570  25.9929705  33.7192001  86.4931131  26.2144652  33.5613689
  87.8268713  26.0676016  32.8603708  88.1943618  27.3921121  28.8494681
  88.9415437  27.9042518  28.5401803  88.4635207  27.0705174  29.7099074
  86.4670268  29.8879662  25.8321635  85.5581487  29.6038695  25.9294105
  86.4965352  30.3078740  24.9724942  91.6989535  33.4986251  29.6012803
  91.2451862  32.6577161  29.6577993  91.0683502  34.1347650  29.9387583
  90.6422455  24.4278237  30.8313470  89.9045212  23.9155624  31.1623713
  90.8949228  23.9878619  30.0196747  90.1422474  35.3362748  30.5362621
  90.4345449  35.8967805  29.8174986  90.6521095  35.6291309  31.2915780
  90.7434082  17.2054489  31.4255239  91.0492959  16.3451853  31.1381154
  91.4686687  17.7972110  31.2254233  77.0358438  27.6085176  29.8136837
  76.8382838  27.0154537  29.0887904  76.4805102  27.3037386  30.5312776
  85.0155162  27.5008282  31.9331430  85.0703772  26.5482119  31.8573907
  84.2046364  27.6567722  32.4172729  86.1646356  31.4288405  23.1709714
  85.7265785  30.7124264  22.7115351  86.9056796  31.6564520  22.6094805
  82.9547522  26.1185342  29.6921809  82.1415387  26.4179513  30.0987001
  83.4506516  25.7241031  30.4096292  85.1056100  36.1143099  31.6256074
  85.0632278  36.3403945  30.6964606  86.0218798  35.8806474  31.7741875
  88.5521733  26.5827167  38.5236703  88.9071121  26.8098640  39.3831169
  89.1993865  26.9145543  37.9013958  94.2819470  29.7045603  29.2286032
  94.1437369  29.8947198  28.3007221  93.9255689  30.4664985  29.6854083
  82.4461596  23.6903698  35.3083044  83.0860976  23.5492457  34.6106008
  81.6139127  23.4038211  34.9321646  94.3088850  31.7722130  34.2397304
  94.7425357  31.6797419  35.0880358  95.0220431  31.7479630  33.6017320
  83.2221900  32.9906128  31.4218037  84.0162499  32.4956448  31.2200612
  82.5113593  32.4623991  31.0585742  88.0416745  35.3724224  35.7730404
  88.0953767  35.9415160  36.5408120  87.1731526  35.5426109  35.4084441
  79.5304664  27.1349210  27.4977789  78.6002252  27.0733665  27.7147752
  79.6262136  26.6125163  26.7014431  79.4490213  23.6604023  30.0856031
  79.7097030  24.5749356  29.9765192  80.2707385  23.1928465  30.2352644
  80.9215138  25.0741780  37.2554856  81.5938192  24.8659142  36.6067505
  80.0944925  24.8763866  36.8160088  95.1704399  31.8145830  36.7730189
  95.3640290  32.7191641  37.0189464  95.0705018  31.3553249  37.6068774
  86.8240710  21.7003721  39.2720516  86.1768625  22.3993670  39.1784993
  87.5941726  22.1339865  39.6396765  90.2319508  31.9652573  42.3471070
  90.0805015  31.7363125  41.4301153  90.2224188  32.9223174  42.3602415
  87.0004845  29.5384486  37.3317336  87.9296905  29.6895645  37.1586304
  86.5795875  29.6268506  36.4765983  85.7993176  33.5635150  35.1015874
  85.6604262  33.1953934  35.9741812  85.0107773  34.0782790  34.9299832
  86.3941328  38.6644247  26.4441410  86.5693084  38.1932290  27.2587033
  85.7074116  39.2910013  26.6722671  87.3498392  32.9416753  32.4904712
  87.0148224  32.9017523  33.3862361  86.8502337  32.2761469  32.0175122
  81.3242635  28.3484383  38.0157293  81.1862433  27.6164622  38.6168832
  82.2347559  28.2593283  37.7341481  90.2857583  30.2872787  22.7641771
  89.6686754  29.5619615  22.6674824  89.8174072  31.0482147  22.4208846
  83.9524936  28.0604342  37.5040972  84.6624555  27.4197534  37.4627591
  83.9094244  28.3117237  38.4267153  91.9411715  34.9971695  40.4247552
  91.8824261  34.3130916  39.7578135  92.3431233  35.7390685  39.9728178
  82.6653870  25.0469560  39.3236612  82.1291227  24.5960298  39.9758208
  82.0770579  25.1815469  38.5807076  80.9602414  41.8133609  33.2181271
  81.1999012  42.4452133  33.8960289  80.1171610  41.4621649  33.5046630
  82.0756129  24.5058211  21.8863076  81.1985595  24.3847012  21.5225322
  82.5513882  23.7144290  21.6341964  91.9429122  32.9611279  38.6561531
  91.0555901  32.6237201  38.7787930  92.5127673  32.2294311  38.8930297
  73.5958269  29.2935371  31.9804583  74.2829309  28.9797101  31.3925598
  73.4406398  30.1976736  31.7071834  78.3992991  24.1825568  36.4089606
  78.3151180  23.5751237  35.6740016  77.5775698  24.6734586  36.4099103
  85.4730275  37.6212732  35.6222774  85.4000447  38.4267703  36.1342079
  85.0307669  37.8204698  34.7970796  85.2620055  36.8584502  29.1325596
  84.4787577  37.4006182  29.2263821  85.9612800  37.3758481  29.5319837
  88.5716705  22.6679131  31.7759801  89.0685405  21.9149094  31.4560872
  87.8003687  22.7043448  31.2103011  96.4246463  28.3719497  33.4178093
  96.4136339  29.2544212  33.0472026  95.5563842  28.0191048  33.2232630
  87.9328959  37.5199566  37.7780933  88.6456931  38.1547031  37.7056835
  87.4418988  37.6163432  36.9620935  89.6546486  31.4250818  29.3498225
  88.7202765  31.5452281  29.1802929  89.8323154  30.5223285  29.0858235
  85.1551674  24.8096514  31.5031486  84.7849461  24.2567555  32.1912392
  85.6510766  24.2054648  30.9506486  93.0419037  27.2668138  29.8848259
  93.5079489  28.0996129  29.8108562  93.4926538  26.8013119  30.5893517
  82.9840873  35.2694009  38.5986504  83.6850332  35.9030492  38.7515898
  82.5135988  35.6108741  37.8382143  91.1095268  33.6111959  26.8834411
  91.3855112  33.4968554  27.7928285  90.2399767  33.2129444  26.8446584
  91.0135700  19.6348725  33.9239160  90.0998780  19.8652952  34.0921367
  91.4428801  19.7187169  34.7753193  90.7842158  27.8238617  36.4239054
  90.1313609  28.0714524  35.7691507  91.1622538  27.0102755  36.0901532
  87.7449332  37.8598310  30.5267225  87.9271727  37.0419966  30.9894977
  88.5682318  38.0766002  30.0892115  88.0791498  36.7866495  27.7882273
  88.6079264  36.2758950  27.1752435  88.3419717  36.4709025  28.6527806
  86.8329732  28.5658428  42.9105091  86.1570369  28.4652557  43.5807467
  87.6557365  28.4097642  43.3741089  78.5808591  34.8030364  35.5317607
  79.1662027  34.0574052  35.6645511  78.3833429  35.1134321  36.4154271
  81.4347246  37.8381612  30.5480049  80.7657621  38.3227739  30.0644089
  81.2960116  38.0850832  31.4623428  73.1726245  27.3735965  34.2522050
  73.2110345  26.8399555  35.0459168  72.6666538  26.8471170  33.6333027
  85.5752514  39.8725355  37.1462707  86.1270822  40.0356977  37.9111793
  85.9158708  40.4629793  36.4742732  80.5517008  22.2200505  37.7484592
  80.6158334  23.0815336  37.3361990  80.4884128  21.6074507  37.0156951
  80.0269280  24.2923638  41.3957626  80.6541319  23.9100715  42.0095151
  79.1697199  24.0737839  41.7613319  90.4263389  34.6986613  43.0011362
  90.9703293  35.3116571  42.5066317  89.8450234  35.2566191  43.5178375
  76.8034823  26.1000067  27.3275981  77.0988264  25.1910745  27.2743035
  75.9022859  26.0787806  27.0056984  88.7120902  37.8207331  34.1326390
  88.5872041  37.0197071  33.6237335  89.3699993  38.3153524  33.6440360
  80.3329070  24.1756063  33.3103530  79.6115656  24.7892031  33.1711003
  81.1222326  24.7113828  33.2320176  90.7755810  35.6216351  35.7605940
  89.8286146  35.5021702  35.6884266  91.1238583  34.7338849  35.8432201
  83.1355383  21.5110490  39.5844182  83.6589785  21.7572786  40.3470491
  82.9167717  22.3430525  39.1647319  78.5322664  23.7814164  27.4515306
  78.2035371  22.9011543  27.2690412  78.8862035  23.7261833  28.3391696
  87.7802243  35.4169067  31.9610292  87.6327206  34.4885774  32.1417862
  88.6055737  35.4389158  31.4767367  81.6464488  24.0687134  27.8190784
  81.9860560  24.5973055  27.0969392  82.0936608  24.4067540  28.5949351
  91.3836365  36.2397626  33.0475165  92.3082913  36.0340487  32.9099616
  91.2151669  35.9914027  33.9564506  84.3407928  22.4524185  37.2693852
  84.0004749  21.6531998  37.6714532  83.6346935  22.7525896  36.6970685
  84.9924400  19.5373497  35.7221175  85.8150470  19.0633975  35.6000065
  85.2362464  20.3163981  36.2219861  83.6332635  22.5661756  26.0184077
  84.3540997  22.9443009  25.5147794  83.0097939  23.2850633  26.1219055
  87.7763758  23.2706905  26.9542409  87.9927372  24.1531543  26.6531237
  87.2957825  22.8793118  26.2248051  82.5162979  26.2292618  33.5313154
  82.3707560  26.5432921  34.4237435  82.0388183  26.8477518  32.9784052
  84.3759362  23.2195166  33.5794043  84.3620931  22.3236259  33.2426341
  85.0931790  23.2265830  34.2132329  86.2285493  23.6532506  35.6247171
  85.9703270  24.5749577  35.6231501  85.6970533  23.2562941  36.3147635
  91.1731681  36.7583293  28.4037256  91.3468559  36.1929716  27.6511109
  91.6660573  37.5584188  28.2216746  76.9908641  28.7697962  36.4700815
  76.4462109  29.5457770  36.6021089  77.8687991  29.1168767  36.3119936
  83.7796258  22.1009546  28.8481613  83.9012169  21.1726192  29.0472501
  83.4898300  22.1148232  27.9359929  86.6487448  19.7864457  31.9848333
  86.6709145  19.8503790  31.0300313  87.0655507  18.9468965  32.1788839
  97.0271073  29.5219716  30.0227556  97.4702219  28.7727041  29.6246679
  96.1497583  29.5129853  29.6401288  92.1606854  36.0750058  25.5034154
  92.8557759  36.6956750  25.7221469  92.5030004  35.2245409  25.7786532
  77.7774663  27.8967859  39.3630972  77.0356399  28.0450494  39.9495602
  77.4567407  28.1576124  38.4997721  94.0598277  33.5249763  27.0321485
  94.5849601  33.8637036  26.3070805  93.9720630  32.5896778  26.8484620
  85.7218326  37.4383837  39.1611362  86.0305452  37.1932984  40.0334061
  86.5193808  37.6430475  38.6730232  85.7438938  39.5921746  31.3916738
  85.3043928  39.0998125  32.0849595  86.4947055  39.0494714  31.1508814
  78.2231277  35.7833287  31.3941366  79.0489297  35.4837059  31.0140010
  77.8725329  35.0140910  31.8431155  83.1912810  35.1359756  33.4639040
  82.5692819  34.4730461  33.1641268  83.8617677  35.1620887  32.7812688
  76.4239882  33.7019614  32.3530300  75.5871790  33.2741788  32.1714301
  76.3963527  33.8952057  33.2901091  83.2637337  23.6141544  43.0571546
  83.3125493  24.4903666  42.6749316  83.8059852  23.0718937  42.4843189
  93.7492183  34.1582667  42.3372683  92.9587727  34.1406806  41.7977183
  93.5125538  34.6970960  43.0921720  93.8690058  31.0075133  39.6505412
  93.9188063  30.8425141  40.5920934  93.7603981  30.1402392  39.2603292
  82.7526317  33.6863679  26.9397501  82.9014437  34.3699143  26.2864173
  83.5592760  33.6668769  27.4546956  91.1593821  26.9906061  40.9664718
  92.0603683  26.8512526  40.6748716  91.2341795  27.1560516  41.9062896
  85.4936626  24.3672916  39.8117905  84.6239935  24.6606482  39.5400493
  85.7296106  24.9513361  40.5325168  95.3708255  33.4272075  39.8947433
  95.0793063  33.7902055  40.7310894  94.7580386  32.7139083  39.7160765
  96.5703937  30.9924954  32.4150003  97.4050829  31.4314759  32.5787564
  96.7063066  30.5163608  31.5958249  93.6195443  28.5504689  38.3627491
  94.0949565  28.7432336  37.5546343  92.6961009  28.6063875  38.1170875
  80.5078950  29.7128856  27.9458569  80.2624992  28.8091186  28.1438780
  80.6774864  29.7146007  27.0038047  88.1975660  20.5852533  37.3283325
  88.7157604  21.3213560  37.0029814  87.8430792  20.8916526  38.1630084
  79.7774597  25.4457214  25.4444731  79.0843842  25.5201569  24.7884767
  79.5326349  24.6817558  25.9666248  88.4488254  17.0052815  32.8484222
  88.7290008  16.3376004  33.4744648  89.2338861  17.1981911  32.3358885
  86.2521722  36.1811809  24.4109248  85.6795689  36.8001996  23.9579720
  86.8254516  36.7311171  24.9449170  92.3197112  25.4270449  36.5955797
  93.2714535  25.5268547  36.6168021  92.1500563  24.6348718  37.1053881
  90.3411492  22.5126033  36.7815198  89.7461424  22.7931045  36.0861686
  90.0561188  23.0019934  37.5531939  89.4718982  36.4648959  25.5417830
  90.4049655  36.3994521  25.7450706  89.3842195  37.3005226  25.0832363
  92.1006999  35.7814830  22.5021778  92.0220630  35.4474693  23.3957536
  92.9216666  36.2736598  22.5013250  94.7985190  28.6476569  35.7098096
  94.7661510  27.7092570  35.8957780  95.4085814  28.7260606  34.9763921
  86.6368521  27.5172622  21.7525300  87.5827626  27.3878830  21.8213718
  86.2582766  26.7787284  22.2294729  94.9479678  25.4387613  35.7556380
  94.4318727  24.6546069  35.5686308  95.8319627  25.1106329  35.9202899
  92.6090405  19.1828628  31.7152192  92.4115227  18.8743716  32.5995524
  93.2190111  19.9090267  31.8450122 100.6161740  29.7092576  34.8504133
 101.3465128  29.4477864  35.4111837 100.0068685  28.9721298  34.8906201
  98.6977037  27.8500439  35.4478584  97.9710201  27.7156403  34.8395076
  98.2824324  28.1577267  36.2535302  86.5207213  31.5690368  43.2125957
  87.4410223  31.7468967  43.4066004  86.4856796  30.6246414  43.0605657
  84.8211438  25.4422598  21.6880186  83.9142893  25.1455711  21.7642899
  85.0987419  25.1452417  20.8214472  75.7389378  26.7628962  32.1379232
  75.4192163  25.9094270  31.8453606  75.1922807  26.9777540  32.8937199
  79.5169286  29.4791403  35.8548739  79.7355296  30.4108511  35.8736772
  79.9295060  29.1199377  36.6403542  86.4373504  19.9859488  27.8424427
  85.6274232  19.6406573  28.2179673  87.1257921  19.6767032  28.4312039
  88.3664052  19.0637535  29.4648724  88.9195091  19.4832988  30.1238747
  88.6034138  18.1373283  29.5071680  84.3897151  25.0524609  45.2451488
  84.2893878  26.0018966  45.1763579  84.1718693  24.7242848  44.3727558
  83.5910223  22.3009534  21.8292165  84.4529387  22.6264432  22.0887982
  83.7760567  21.5141030  21.3165231  75.6077638  30.3831873  34.1072354
  74.9141110  29.9685826  33.5942308  76.3550629  30.4252410  33.5105773
  91.7442859  21.1738060  28.9727388  91.1641528  21.8322864  28.5905440
  91.4778792  20.3515405  28.5614805  90.1946425  20.5743118  31.1748708
  90.6946204  20.6859652  30.3663027  90.8382033  20.2704171  31.8149517
  84.2528421  28.4821747  44.0616549  83.7695503  29.2822108  44.2680438
  84.3389360  28.4929692  43.1083993  77.5214381  30.3150127  31.9838369
  77.4985069  30.4137814  31.0320252  77.8315017  31.1615278  32.3055535
  80.1801759  32.3726282  36.0984983  81.1345012  32.3410224  36.0314915
  79.9814282  31.9116906  36.9135209  80.7701141  30.9427398  38.6655781
  81.5894030  31.4371477  38.6890618  81.0437949  30.0259366  38.6373348
  90.5267737  23.3338151  28.0283736  89.6393592  23.6187801  27.8103931
  90.9421726  23.1731914  27.1811013  93.8782273  23.3584671  31.7438075
  94.6542663  23.8481124  32.0162692  93.1530407  23.7842726  32.2009945
  96.3154832  24.0712291  32.8012016  96.9099323  23.8308027  32.0905324
  96.3881416  23.3519421  33.4285552  78.5351988  37.9145902  33.1155181
  78.4006456  37.1546303  32.5493179  78.1184050  38.6386802  32.6483970
  89.6710951  33.0982825  22.1231756  90.3746801  33.3032828  22.7389412
  88.9473599  33.6659587  22.3880840  90.5008761  28.8492686  28.2434026
  90.4443962  29.3061238  27.4041659  91.0537103  28.0883371  28.0656869
  94.3113567  24.6382418  29.0684146  94.0550501  24.2379054  29.8992353
  93.6866435  25.3526212  28.9434285  98.6225905  27.3778492  31.5755437
  98.0625463  27.4471681  32.3486999  98.0169408  27.2019476  30.8554933
  81.6921113  38.8115219  33.3273623  81.5753498  39.7560651  33.2252314
  80.8713560  38.5088780  33.7159423  91.5797648  33.5365354  24.1730216
  92.4143252  33.1046553  23.9907691  91.4181991  33.3647368  25.1007111
  91.2343540  30.0397468  25.5386555  91.1792344  29.8741739  24.5975000
  90.6089595  30.7473501  25.6948745  76.0236055  25.2765532  39.3647978
  76.6694919  24.7664486  39.8535203  75.8153206  26.0134214  39.9391403
  88.5489447  32.3446380  44.8640118  89.4180607  32.5187032  44.5026753
  88.0696199  33.1640796  44.7415848  84.5439666  19.5405577  25.1171874
  84.5318335  20.4847417  25.2740145  85.4363088  19.3575722  24.8231335
  82.7175628  39.4643481  36.5429552  83.6202874  39.4967091  36.8596047
  82.4912998  38.5343932  36.5575888  84.4729230  38.2174467  33.2039631
  83.5224861  38.2176329  33.0904003  84.7761716  37.4707202  32.6875665
  88.3591785  16.1348353  29.3717811  87.5924181  15.5806840  29.5174493
  88.7702490  16.2070222  30.2331962  80.3633546  22.4233149  43.4622992
  81.2265008  22.0669954  43.6726316  79.7898957  22.0847044  44.1498396
 100.2081923  44.0535006  34.2685393 100.8460333  43.9341753  33.5648733
 100.0902766  45.0015849  34.3273345  97.0171629  44.0062434  34.2046918
  96.6790141  43.8903498  33.3167452  97.8861398  43.6053599  34.1847924
  92.8758445  45.8597910  30.1943809  92.3123310  45.7687847  29.4260096
  92.7610840  45.0397814  30.6746301  97.4991412  45.1597285  40.1633123
  97.4880053  44.7650084  39.2913627  97.6612052  44.4263358  40.7566895
  90.4222877  47.3549102  33.0328029  91.2144169  47.0139926  32.6174328
  90.6619527  47.4644077  33.9530182  98.4558004  49.5268878  25.5058273
  97.8045984  50.1122958  25.1192287  99.2502367  50.0575073  25.5653311
  92.3813631  46.6158015  25.9045408  93.1544507  46.0687002  25.7658284
  92.7339030  47.4802264  26.1159869  94.2198674  47.9434397  39.1112307
  93.9288539  48.8480028  38.9958973  94.8555658  47.9850925  39.8256377
  95.1454880  45.3211246  35.7013667  95.7418453  45.0967268  34.9870630
  95.2029852  44.5795991  36.3039115  94.7179909  42.7750681  23.5363858
  94.9705429  42.2532202  22.7747321  93.7804468  42.6116826  23.6390541
  99.7623192  41.7786459  31.3438601 100.5486281  41.3605883  30.9929018
 100.0261896  42.6832552  31.5120249  99.9333269  47.2159310  26.0427258
  99.2979102  47.2893936  26.7548162  99.6030675  47.8052908  25.3646337
 105.1631619  41.7161693  32.2471579 105.8956791  41.1460909  32.4809409
 104.4070974  41.3283293  32.6878085  94.4376197  44.6778787  25.7388233
  94.3212456  44.0023690  26.4069317  94.5478457  44.1911161  24.9220386
  96.7807738  44.1388934  29.4434922  96.4165946  43.6119555  30.1547843
  97.6374854  43.7487403  29.2701407 102.6857039  35.4283267  36.7066188
 102.3540364  36.2978678  36.4827403 102.0902652  35.1119551  37.3860218
  96.4213225  39.1678834  24.4396270  96.5887628  40.0359070  24.8066741
  96.2310394  39.3306115  23.5157560  99.1788559  47.6295813  36.1062101
  98.8789282  48.5320851  35.9977908  98.8339618  47.3627996  36.9583254
  92.6301040  44.0809609  32.1398805  91.7051537  43.9485824  32.3476497
  92.8785453  44.8603829  32.6368748 102.5785702  40.1478353  33.7859538
 101.6702580  40.0793761  33.4918299 102.5273298  40.6250298  34.6141364
  96.4002446  41.6236491  25.4242937  96.2802071  42.0693542  26.2628418
  95.7055035  41.9721809  24.8656475  89.9909851  43.7242883  32.9742594
  90.1202232  43.9777362  33.8882006  89.3107302  44.3170591  32.6547249
  94.1609338  54.3940133  29.0733068  94.0833368  55.3447958  29.1521549
  93.5570982  54.0486005  29.7307995  96.6526568  41.5667998  41.7294435
  95.8759902  42.1261919  41.7197300  97.2917131  42.0524781  42.2509306
 104.4447349  38.3494791  35.5637412 103.8021729  38.6427324  34.9177207
 103.9402277  38.2347712  36.3690609 102.0987512  42.0957964  26.2523271
 103.0105369  42.3285351  26.0770969 101.5897160  42.6795009  25.6898350
  94.9072940  44.3753452  41.2912402  95.6487625  44.9138496  41.0147226
  94.2009926  45.0019741  41.4483954 100.3828280  46.5182592  39.8884564
 100.7911636  46.0765003  39.1439196  99.6605542  45.9435220  40.1418757
  96.7359350  41.4555199  37.2618121  97.5820545  41.8794613  37.4052770
  96.6757988  40.7988823  37.9556684 100.7057095  47.0783783  33.6436853
 100.0765957  47.2429497  32.9412921 100.3182757  47.4925392  34.4147817
 104.5846327  48.0138221  30.9981217 103.8997365  48.3937122  30.4478250
 104.6690176  48.6233547  31.7313164  99.8858795  39.1159567  38.9199294
  99.6419727  39.8701628  38.3833570 100.1618726  39.4944915  39.7546542
 101.8397258  45.6598180  37.5976560 102.0514153  46.3029940  36.9210941
 101.7927006  44.8260496  37.1298490  99.4423487  38.2716000  34.5013132
  98.5807966  38.5697254  34.7929870  99.4685922  38.4886399  33.5694165
  96.2585057  46.8158191  30.9086938  96.7223402  47.0945894  30.1191560
  95.9941855  45.9141636  30.7260029  93.1509138  46.3629673  33.8466701
  93.7210495  46.7916941  33.2084186  93.7417250  46.0812257  34.5450887
  95.1953943  42.9381343  27.7176503  95.8977986  43.3902387  28.1850429
  94.8634571  42.2965162  28.3456396  93.6434304  41.5293100  42.0927712
  93.0132965  42.2109381  42.3263109  93.5370392  41.4176182  41.1480851
  88.9379277  41.1964896  33.0193637  88.1478331  41.4522425  32.5433747
  89.4290524  42.0113234  33.1245677 102.9543086  48.5370135  35.7698917
 103.7760530  48.1350322  35.4881599 102.9505489  48.4338369  36.7215033
  90.8894022  41.5609475  29.9777113  90.0925185  41.6728169  30.4960609
  90.6619614  41.8996127  29.1118004  96.7199690  48.0854178  37.9259628
  96.7844122  48.5474586  38.7617800  96.0110614  47.4551543  38.0541938
  87.2216980  41.4495386  35.4508627  87.4725018  42.3342396  35.7166203
  87.7576528  41.2699988  34.6783719 111.0449079  44.8808884  32.1183889
 110.2912788  44.3116282  31.9627893 111.1796620  44.8471548  33.0654524
  96.4347707  49.7522286  27.7938608  96.2993382  50.5973822  28.2223456
  96.9757520  49.9541564  27.0304542  92.9215047  35.8313866  44.4552963
  92.5281993  35.2780064  45.1300608  93.7381187  36.1424444  44.8459481
  89.8877105  47.2697724  28.3666533  90.4001625  48.0640974  28.5172098
  90.5399818  46.5724014  28.3000135  91.6971989  50.3863480  30.4489286
  91.8738618  51.3081445  30.2610270  92.4928823  50.0721899  30.8783666
  95.8383008  37.2471745  42.0473220  96.5792721  37.8478898  41.9677682
  96.0700931  36.5049383  41.4891263  90.9824346  42.4328112  40.3251450
  90.8677861  41.5313369  40.6258549  90.1268864  42.6791809  39.9736266
  98.0616184  50.3745852  41.9238950  97.6180038  49.5882231  41.6059855
  98.7233397  50.5625003  41.2582841  92.8203305  51.9041654  36.4499629
  93.3710730  51.7758717  35.6776623  91.9814781  52.2036543  36.0994522
 100.1597422  50.6548652  39.9520352 100.1415897  51.4757533  39.4600621
 101.0817342  50.5302728  40.1770493  96.6170476  48.1692782  40.7943860
  97.1498813  47.4081070  40.5643168  96.0884557  47.8766434  41.5368014
  99.7840171  33.2752848  36.3237502  99.4404440  34.1654490  36.2476612
 100.1519133  33.0854505  35.4607087  87.8526021  45.5986378  29.1426104
  88.6901243  46.0083387  28.9259812  88.0304289  44.6585820  29.1126298
  99.7490454  43.2661459  24.8309937  99.2337077  44.0366064  25.0698324
  99.4767762  42.5926595  25.4542998  97.3337565  38.1111160  29.8895175
  96.4779161  37.7218010  29.7100814  97.7464516  38.1903121  29.0294961
  98.8636711  35.6457503  34.2886735  98.3601507  35.6087638  33.4754540
  99.1567318  36.5550246  34.3483392  95.1079597  35.7296233  33.2952917
  95.9732594  35.5339041  32.9358806  95.1757106  35.5006584  34.2222273
 104.7224728  46.0193814  26.7663110 103.9454170  45.6804973  26.3218272
 105.4016209  46.0246437  26.0918075  99.5376757  41.1388551  26.6569718
  99.2326892  41.4534700  27.5079861 100.4907199  41.2169971  26.6997051
  97.9823189  47.2978774  28.3062672  97.4544550  46.5631534  27.9935909
  97.4810691  48.0753451  28.0602640 102.9616035  45.4927795  33.4229718
 102.3039709  46.1827056  33.5109847 103.7656434  45.8824227  33.7663705
  92.7141916  37.9598441  30.6669283  93.2885668  37.7373622  29.9342476
  93.3012899  38.0287135  31.4197885 101.7721493  43.8472168  31.4733660
 102.2853375  44.4802159  31.9755370 102.4222717  43.2473363  31.1077020
  93.0411503  39.9902902  24.6865169  92.2048816  40.3277588  25.0074443
  92.9016273  39.8551881  23.7492306  95.0164584  34.8339690  29.3944353
  94.3628996  34.5188707  28.7700968  94.9745058  34.2115430  30.1204176
  96.1275789  45.1158985  21.3097645  95.2202851  44.8848238  21.5088794
  96.6246821  44.3196604  21.4971627  99.0343868  53.8256492  24.2294331
  98.3605566  54.1288189  24.8379289  99.4209690  54.6285572  23.8799788
  98.2502324  41.3221623  33.7192001  97.3324886  41.5436570  33.5613689
  98.6662468  41.3967934  32.8603708  99.0337372  42.7213039  28.8494681
  99.7809191  43.2334436  28.5401803  99.3028962  42.3997091  29.7099074
  97.3064022  45.2171579  25.8321635  96.3975241  44.9330612  25.9294105
  97.3359106  45.6370658  24.9724942 102.5383290  48.8278169  29.6012803
 102.0845617  47.9869079  29.6577993 101.9077256  49.4639567  29.9387583
 101.4816209  39.7570155  30.8313470 100.7438966  39.2447541  31.1623713
 101.7342983  39.3170537  30.0196747 100.9816229  50.6654666  30.5362621
 101.2739203  51.2259723  29.8174986 101.4914849  50.9583227  31.2915780
 101.5827837  32.5346407  31.4255239 101.8886713  31.6743770  31.1381154
 102.3080441  33.1264027  31.2254233  87.8752193  42.9377094  29.8136837
  87.6776592  42.3446454  29.0887904  87.3198857  42.6329304  30.5312776
  95.8548916  42.8300200  31.9331430  95.9097526  41.8774036  31.8573907
  95.0440118  42.9859639  32.4172729  97.0040110  46.7580323  23.1709714
  96.5659540  46.0416182  22.7115351  97.7450551  46.9856438  22.6094805
  93.7941276  41.4477260  29.6921809  92.9809142  41.7471430  30.0987001
  94.2900270  41.0532949  30.4096292  95.9449854  51.4435017  31.6256074
  95.9026033  51.6695863  30.6964606  96.8612553  51.2098391  31.7741875
  99.3915488  41.9119084  38.5236703  99.7464876  42.1390557  39.3831169
 100.0387619  42.2437461  37.9013958 105.1213225  45.0337520  29.2286032
 104.9831123  45.2239116  28.3007221 104.7649444  45.7956903  29.6854083
  93.2855351  39.0195615  35.3083044  93.9254730  38.8784374  34.6106008
  92.4532881  38.7330129  34.9321646 105.1482604  47.1014047  34.2397304
 105.5819111  47.0089336  35.0880358 105.8614185  47.0771548  33.6017320
  94.0615655  48.3198046  31.4218037  94.8556253  47.8248366  31.2200612
  93.3507347  47.7915909  31.0585742  98.8810499  50.7016141  35.7730404
  98.9347522  51.2707078  36.5408120  98.0125281  50.8718026  35.4084441
  90.3698418  42.4641128  27.4977789  89.4396006  42.4025583  27.7147752
  90.4655890  41.9417080  26.7014431  90.2883967  38.9895940  30.0856031
  90.5490785  39.9041274  29.9765192  91.1101140  38.5220383  30.2352644
  91.7608893  40.4033698  37.2554856  92.4331946  40.1951060  36.6067505
  90.9338679  40.2055784  36.8160088 106.0098154  47.1437748  36.7730189
 106.2034044  48.0483558  37.0189464 105.9098772  46.6845167  37.6068774
  97.6634465  37.0295638  39.2720516  97.0162380  37.7285588  39.1784993
  98.4335480  37.4631782  39.6396765 101.0713263  47.2944491  42.3471070
 100.9198769  47.0655042  41.4301153 101.0617942  48.2515092  42.3602415
  97.8398599  44.8676403  37.3317336  98.7690659  45.0187563  37.1586304
  97.4189629  44.9560424  36.4765983  96.6386931  48.8927068  35.1015874
  96.4998017  48.5245852  35.9741812  95.8501527  49.4074707  34.9299832
  97.2335083  53.9936164  26.4441410  97.4086839  53.5224207  27.2587033
  96.5467871  54.6201930  26.6722671  98.1892146  48.2708670  32.4904712
  97.8541979  48.2309440  33.3862361  97.6896092  47.6053386  32.0175122
  92.1636390  43.6776300  38.0157293  92.0256188  42.9456539  38.6168832
  93.0741313  43.5885201  37.7341481 101.1251338  45.6164705  22.7641771
 100.5080508  44.8911533  22.6674824 100.6567826  46.3774065  22.4208846
  94.7918691  43.3896260  37.5040972  95.5018309  42.7489452  37.4627591
  94.7487999  43.6409155  38.4267153 102.7805469  50.3263613  40.4247552
 102.7218015  49.6422833  39.7578135 103.1824988  51.0682603  39.9728178
  93.5047625  40.3761478  39.3236612  92.9684982  39.9252216  39.9758208
  92.9164333  40.5107387  38.5807076  91.7996168  57.1425527  33.2181271
  92.0392766  57.7744051  33.8960289  90.9565365  56.7913567  33.5046630
  92.9149884  39.8350129  21.8863076  92.0379350  39.7138930  21.5225322
  93.3907637  39.0436207  21.6341964 102.7822877  48.2903197  38.6561531
 101.8949655  47.9529119  38.7787930 103.3521428  47.5586228  38.8930297
  84.4352024  44.6227289  31.9804583  85.1223064  44.3089019  31.3925598
  84.2800152  45.5268653  31.7071834  89.2386746  39.5117485  36.4089606
  89.1544935  38.9043155  35.6740016  88.4169452  40.0026504  36.4099103
  96.3124030  52.9504649  35.6222774  96.2394201  53.7559621  36.1342079
  95.8701423  53.1496615  34.7970796  96.1013810  52.1876419  29.1325596
  95.3181331  52.7298100  29.2263821  96.8006555  52.7050399  29.5319837
  99.4110460  37.9971049  31.7759801  99.9079159  37.2441011  31.4560872
  98.6397441  38.0335366  31.2103011 107.2640217  43.7011414  33.4178093
 107.2530093  44.5836130  33.0472026 106.3957597  43.3482965  33.2232630
  98.7722713  52.8491483  37.7780933  99.4850686  53.4838948  37.7056835
  98.2812742  52.9455349  36.9620935 100.4940240  46.7542736  29.3498225
  99.5596519  46.8744199  29.1802929 100.6716909  45.8515203  29.0858235
  95.9945428  40.1388432  31.5031486  95.6243216  39.5859472  32.1912392
  96.4904521  39.5346565  30.9506486 103.8812792  42.5960055  29.8848259
 104.3473244  43.4288047  29.8108562 104.3320292  42.1305037  30.5893517
  93.8234627  50.5985927  38.5986504  94.5244087  51.2322410  38.7515898
  93.3529742  50.9400658  37.8382143 101.9489023  48.9403877  26.8834411
 102.2248867  48.8260471  27.7928285 101.0793522  48.5421362  26.8446584
 101.8529454  34.9640642  33.9239160 100.9392534  35.1944869  34.0921367
 102.2822556  35.0479086  34.7753193 101.6235913  43.1530534  36.4239054
 100.9707363  43.4006442  35.7691507 102.0016293  42.3394673  36.0901532
  98.5843087  53.1890228  30.5267225  98.7665481  52.3711883  30.9894977
  99.4076073  53.4057920  30.0892115  98.9185252  52.1158413  27.7882273
  99.4473019  51.6050867  27.1752435  99.1813472  51.8000943  28.6527806
  97.6723486  43.8950345  42.9105091  96.9964123  43.7944475  43.5807467
  98.4951120  43.7389559  43.3741089  89.4202345  50.1322282  35.5317607
  90.0055782  49.3865970  35.6645511  89.2227184  50.4426239  36.4154271
  92.2741000  53.1673529  30.5480049  91.6051376  53.6519657  30.0644089
  92.1353870  53.4142750  31.4623428  84.0120000  42.7027882  34.2522050
  84.0504099  42.1691473  35.0459168  83.5060293  42.1763088  33.6333027
  96.4146269  55.2017273  37.1462707  96.9664577  55.3648894  37.9111793
  96.7552462  55.7921711  36.4742732  91.3910762  37.5492423  37.7484592
  91.4552089  38.4107254  37.3361990  91.3277882  36.9366424  37.0156951
  90.8663035  39.6215555  41.3957626  91.4935073  39.2392633  42.0095151
  90.0090953  39.4029757  41.7613319 101.2657143  50.0278530  43.0011362
 101.8097047  50.6408489  42.5066317 100.6843988  50.5858109  43.5178375
  87.6428577  41.4291984  27.3275981  87.9382018  40.5202663  27.2743035
  86.7416613  41.4079724  27.0056984  99.5514656  53.1499248  34.1326390
  99.4265796  52.3488988  33.6237335 100.2093747  53.6445442  33.6440360
  91.1722824  39.5047981  33.3103530  90.4509410  40.1183949  33.1711003
  91.9616080  40.0405746  33.2320176 101.6149565  50.9508269  35.7605940
 100.6679900  50.8313620  35.6884266 101.9632338  50.0630767  35.8432201
  93.9749138  36.8402407  39.5844182  94.4983540  37.0864704  40.3470491
  93.7561471  37.6722442  39.1647319  89.3716419  39.1106082  27.4515306
  89.0429125  38.2303461  27.2690412  89.7255790  39.0553751  28.3391696
  98.6195998  50.7460985  31.9610292  98.4720960  49.8177692  32.1417862
  99.4449491  50.7681075  31.4767367  92.4858242  39.3979052  27.8190784
  92.8254315  39.9264973  27.0969392  92.9330363  39.7359458  28.5949351
 102.2230120  51.5689543  33.0475165 103.1476667  51.3632405  32.9099616
 102.0545423  51.3205945  33.9564506  95.1801683  37.7816103  37.2693852
  94.8398503  36.9823916  37.6714532  94.4740689  38.0817813  36.6970685
  95.8318155  34.8665415  35.7221175  96.6544224  34.3925893  35.6000065
  96.0756218  35.6455899  36.2219861  94.4726389  37.8953673  26.0184077
  95.1934752  38.2734926  25.5147794  93.8491693  38.6142550  26.1219055
  98.6157512  38.5998822  26.9542409  98.8321127  39.4823460  26.6531237
  98.1351579  38.2085036  26.2248051  93.3556734  41.5584536  33.5313154
  93.2101314  41.8724839  34.4237435  92.8781937  42.1769436  32.9784052
  95.2153116  38.5487084  33.5794043  95.2014685  37.6528177  33.2426341
  95.9325545  38.5557747  34.2132329  97.0679247  38.9824424  35.6247171
  96.8097025  39.9041494  35.6231501  96.5364288  38.5854858  36.3147635
 102.0125436  52.0875211  28.4037256 102.1862313  51.5221633  27.6511109
 102.5054327  52.8876106  28.2216746  87.8302396  44.0989880  36.4700815
  87.2855864  44.8749688  36.6021089  88.7081746  44.4460684  36.3119936
  94.6190012  37.4301464  28.8481613  94.7405924  36.5018110  29.0472501
  94.3292055  37.4440150  27.9359929  97.4881203  35.1156374  31.9848333
  97.5102900  35.1795707  31.0300313  97.9049262  34.2760883  32.1788839
 107.8664827  44.8511634  30.0227556 108.3095973  44.1018959  29.6246679
 106.9891337  44.8421770  29.6401288 103.0000608  51.4041975  25.5034154
 103.6951513  52.0248668  25.7221469 103.3423759  50.5537327  25.7786532
  88.6168418  43.2259776  39.3630972  87.8750154  43.3742412  39.9495602
  88.2961162  43.4868042  38.4997721 104.8992032  48.8541681  27.0321485
 105.4243356  49.1928954  26.3070805 104.8114384  47.9188696  26.8484620
  96.5612080  52.7675754  39.1611362  96.8699207  52.5224901  40.0334061
  97.3587562  52.9722393  38.6730232  96.5832692  54.9213664  31.3916738
  96.1437683  54.4290043  32.0849595  97.3340809  54.3786632  31.1508814
  89.0625031  51.1125205  31.3941366  89.8883051  50.8128977  31.0140010
  88.7119083  50.3432827  31.8431155  94.0306564  50.4651673  33.4639040
  93.4086574  49.8022378  33.1641268  94.7011431  50.4912805  32.7812688
  87.2633636  49.0311531  32.3530300  86.4265545  48.6033706  32.1714301
  87.2357282  49.2243975  33.2901091  94.1031092  38.9433461  43.0571546
  94.1519247  39.8195584  42.6749316  94.6453606  38.4010854  42.4843189
 104.5885938  49.4874584  42.3372683 103.7981481  49.4698723  41.7977183
 104.3519292  50.0262878  43.0921720 104.7083813  46.3367051  39.6505412
 104.7581818  46.1717058  40.5920934 104.5997736  45.4694310  39.2603292
  93.5920071  49.0155597  26.9397501  93.7408192  49.6991061  26.2864173
  94.3986515  48.9960687  27.4546956 101.9987575  42.3197979  40.9664718
 102.8997438  42.1804444  40.6748716 102.0735550  42.4852434  41.9062896
  96.3330380  39.6964834  39.8117905  95.4633690  39.9898400  39.5400493
  96.5689861  40.2805279  40.5325168 106.2102009  48.7563992  39.8947433
 105.9186818  49.1193973  40.7310894 105.5974141  48.0431001  39.7160765
 107.4097692  46.3216872  32.4150003 108.2444583  46.7606676  32.5787564
 107.5456821  45.8455525  31.5958249 104.4589198  43.8796607  38.3627491
 104.9343319  44.0724253  37.5546343 103.5354763  43.9355793  38.1170875
  91.3472704  45.0420774  27.9458569  91.1018746  44.1383104  28.1438780
  91.5168619  45.0437925  27.0038047  99.0369414  35.9144451  37.3283325
  99.5551358  36.6505477  37.0029814  98.6824547  36.2208444  38.1630084
  90.6168352  40.7749132  25.4444731  89.9237597  40.8493487  24.7884767
  90.3720104  40.0109475  25.9666248  99.2882008  32.3344733  32.8484222
  99.5683762  31.6667922  33.4744648 100.0732615  32.5273829  32.3358885
  97.0915477  51.5103727  24.4109248  96.5189444  52.1293914  23.9579720
  97.6648271  52.0603089  24.9449170 103.1590867  40.7562367  36.5955797
 104.1108290  40.8560465  36.6168021 102.9894317  39.9640636  37.1053881
 101.1805246  37.8417950  36.7815198 100.5855178  38.1222963  36.0861686
 100.8954943  38.3311851  37.5531939 100.3112737  51.7940877  25.5417830
 101.2443410  51.7286439  25.7450706 100.2235949  52.6297144  25.0832363
 102.9400753  51.1106747  22.5021778 102.8614385  50.7766611  23.3957536
 103.7610420  51.6028515  22.5013250 105.6378944  43.9768487  35.7098096
 105.6055265  43.0384488  35.8957780 106.2479568  44.0552523  34.9763921
  97.4762275  42.8464540  21.7525300  98.4221380  42.7170748  21.8213718
  97.0976520  42.1079202  22.2294729 105.7873433  40.7679530  35.7556380
 105.2712482  39.9837987  35.5686308 106.6713381  40.4398247  35.9202899
 103.4484160  34.5120546  31.7152192 103.2508981  34.2035634  32.5995524
 104.0583865  35.2382185  31.8450122 111.4555494  45.0384494  34.8504133
 112.1858883  44.7769782  35.4111837 110.8462440  44.3013216  34.8906201
 109.5370791  43.1792356  35.4478584 108.8103955  43.0448321  34.8395076
 109.1218078  43.4869185  36.2535302  97.3600968  46.8982286  43.2125957
  98.2803977  47.0760885  43.4066004  97.3250551  45.9538331  43.0605657
  95.6605192  40.7714516  21.6880186  94.7536648  40.4747629  21.7642899
  95.9381174  40.4744334  20.8214472  86.5783133  42.0920880  32.1379232
  86.2585917  41.2386188  31.8453606  86.0316561  42.3069458  32.8937199
  90.3563040  44.8083321  35.8548739  90.5749050  45.7400428  35.8736772
  90.7688814  44.4491295  36.6403542  97.2767258  35.3151406  27.8424427
  96.4667987  34.9698491  28.2179673  97.9651675  35.0058950  28.4312039
  99.2057807  34.3929453  29.4648724  99.7588845  34.8124906  30.1238747
  99.4427893  33.4665201  29.5071680  95.2290906  40.3816526  45.2451488
  95.1287633  41.3310883  45.1763579  95.0112448  40.0534765  44.3727558
  94.4303977  37.6301451  21.8292165  95.2923141  37.9556350  22.0887982
  94.6154321  36.8432947  21.3165231  86.4471393  45.7123791  34.1072354
  85.7534864  45.2977744  33.5942308  87.1944384  45.7544328  33.5105773
 102.5836614  36.5029978  28.9727388 102.0035283  37.1614782  28.5905440
 102.3172546  35.6807322  28.5614805 101.0340180  35.9035036  31.1748708
 101.5339958  36.0151570  30.3663027 101.6775788  35.5996088  31.8149517
  95.0922176  43.8113665  44.0616549  94.6089257  44.6114025  44.2680438
  95.1783115  43.8221610  43.1083993  88.3608135  45.6442045  31.9838369
  88.3378824  45.7429732  31.0320252  88.6708772  46.4907196  32.3055535
  91.0195513  47.7018200  36.0984983  91.9738767  47.6702142  36.0314915
  90.8208037  47.2408824  36.9135209  91.6094895  46.2719316  38.6655781
  92.4287784  46.7663395  38.6890618  91.8831703  45.3551284  38.6373348
 101.3661492  38.6630068  28.0283736 100.4787347  38.9479719  27.8103931
 101.7815481  38.5023832  27.1811013 104.7176028  38.6876589  31.7438075
 105.4936418  39.1773042  32.0162692 103.9924162  39.1134643  32.2009945
 107.1548586  39.4004208  32.8012016 107.7493077  39.1599944  32.0905324
 107.2275170  38.6811339  33.4285552  89.3745742  53.2437819  33.1155181
  89.2400210  52.4838220  32.5493179  88.9577804  53.9678719  32.6483970
 100.5104705  48.4274743  22.1231756 101.2140555  48.6324745  22.7389412
  99.7867354  48.9951505  22.3880840 101.3402515  44.1784604  28.2434026
 101.2837717  44.6353156  27.4041659 101.8930858  43.4175289  28.0656869
 105.1507321  39.9674336  29.0684146 104.8944256  39.5670972  29.8992353
 104.5260189  40.6818130  28.9434285 109.4619659  42.7070409  31.5755437
 108.9019217  42.7763599  32.3486999 108.8563162  42.5311394  30.8554933
  92.5314868  54.1407136  33.3273623  92.4147252  55.0852569  33.2252314
  91.7107314  53.8380698  33.7159423 102.4191402  48.8657272  24.1730216
 103.2537006  48.4338471  23.9907691 102.2575745  48.6939286  25.1007111
 102.0737295  45.3689385  25.5386555 102.0186098  45.2033657  24.5975000
 101.4483350  46.0765418  25.6948745  86.8629810  40.6057450  39.3647978
  87.5088673  40.0956404  39.8535203  86.6546961  41.3426131  39.9391403
  99.3883202  47.6738297  44.8640118 100.2574361  47.8478950  44.5026753
  98.9089953  48.4932714  44.7415848  95.3833420  34.8697494  25.1171874
  95.3712090  35.8139334  25.2740145  96.2756842  34.6867640  24.8231335
  93.5569382  54.7935398  36.5429552  94.4596629  54.8259009  36.8596047
  93.3306752  53.8635849  36.5575888  95.3122984  53.5466385  33.2039631
  94.3618615  53.5468246  33.0904003  95.6155470  52.7999119  32.6875665
  99.1985540  31.4640271  29.3717811  98.4317935  30.9098758  29.5174493
  99.6096245  31.5362140  30.2331962  91.2027301  37.7525067  43.4622992
  92.0658762  37.3961872  43.6726316  90.6292711  37.4138962  44.1498396
 111.0475678  59.3826923  34.2685393 111.6854088  59.2633671  33.5648733
 110.9296520  60.3307767  34.3273345 107.8565384  59.3354351  34.2046918
 107.5183895  59.2195416  33.3167452 108.7255152  58.9345516  34.1847924
 103.7152200  61.1889828  30.1943809 103.1517065  61.0979765  29.4260096
 103.6004595  60.3689732  30.6746301 108.3385167  60.4889203  40.1633123
 108.3273808  60.0942001  39.2913627 108.5005806  59.7555276  40.7566895
 101.2616631  62.6841019  33.0328029 102.0537923  62.3431844  32.6174328
 101.5013282  62.7935994  33.9530182 109.2951758  64.8560795  25.5058273
 108.6439738  65.4414876  25.1192287 110.0896121  65.3866990  25.5653311
 103.2207385  61.9449933  25.9045408 103.9938261  61.3978920  25.7658284
 103.5732784  62.8094182  26.1159869 105.0592428  63.2726315  39.1112307
 104.7682294  64.1771946  38.9958973 105.6949412  63.3142842  39.8256377
 105.9848635  60.6503163  35.7013667 106.5812207  60.4259186  34.9870630
 106.0423606  59.9087909  36.3039115 105.5573663  58.1042599  23.5363858
 105.8099184  57.5824120  22.7747321 104.6198222  57.9408744  23.6390541
 110.6016946  57.1078377  31.3438601 111.3880035  56.6897800  30.9929018
 110.8655650  58.0124469  31.5120249 110.7727023  62.5451227  26.0427258
 110.1372856  62.6185854  26.7548162 110.4424430  63.1344826  25.3646337
 116.0025373  57.0453610  32.2471579 116.7350545  56.4752827  32.4809409
 115.2464729  56.6575211  32.6878085 105.2769952  60.0070705  25.7388233
 105.1606210  59.3315608  26.4069317 105.3872212  59.5203079  24.9220386
 107.6201493  59.4680852  29.4434922 107.2559700  58.9411473  30.1547843
 108.4768609  59.0779321  29.2701407 113.5250794  50.7575184  36.7066188
 113.1934118  51.6270595  36.4827403 112.9296407  50.4411468  37.3860218
 107.2606980  54.4970751  24.4396270 107.4281382  55.3650988  24.8066741
 107.0704149  54.6598033  23.5157560 110.0182313  62.9587730  36.1062101
 109.7183036  63.8612769  35.9977908 109.6733373  62.6919914  36.9583254
 103.4694795  59.4101527  32.1398805 102.5445291  59.2777741  32.3476497
 103.7179208  60.1895746  32.6368748 113.4179457  55.4770271  33.7859538
 112.5096334  55.4085679  33.4918299 113.3667053  55.9542215  34.6141364
 107.2396201  56.9528409  25.4242937 107.1195826  57.3985460  26.2628418
 106.5448789  57.3013727  24.8656475 100.8303606  59.0534801  32.9742594
 100.9595987  59.3069280  33.8882006 100.1501057  59.6462509  32.6547249
 105.0003093  69.7232051  29.0733068 104.9227123  70.6739876  29.1521549
 104.3964736  69.3777923  29.7307995 107.4920323  56.8959916  41.7294435
 106.7153657  57.4553836  41.7197300 108.1310886  57.3816699  42.2509306
 115.2841103  53.6786709  35.5637412 114.6415484  53.9719242  34.9177207
 114.7796032  53.5639629  36.3690609 112.9381267  57.4249882  26.2523271
 113.8499123  57.6577269  26.0770969 112.4290914  58.0086926  25.6898350
 105.7466695  59.7045369  41.2912402 106.4881379  60.2430413  41.0147226
 105.0403680  60.3311658  41.4483954 111.2222035  61.8474510  39.8884564
 111.6305391  61.4056920  39.1439196 110.4999296  61.2727137  40.1418757
 107.5753105  56.7847117  37.2618121 108.4214300  57.2086530  37.4052770
 107.5151742  56.1280741  37.9556684 111.5450849  62.4075701  33.6436853
 110.9159712  62.5721415  32.9412921 111.1576511  62.8217310  34.4147817
 115.4240081  63.3430138  30.9981217 114.7391119  63.7229040  30.4478250
 115.5083930  63.9525465  31.7313164 110.7252550  54.4451485  38.9199294
 110.4813482  55.1993546  38.3833570 111.0012480  54.8236833  39.7546542
 112.6791013  60.9890097  37.5976560 112.8907908  61.6321857  36.9210941
 112.6320761  60.1552414  37.1298490 110.2817242  53.6007918  34.5013132
 109.4201721  53.8989172  34.7929870 110.3079676  53.8178317  33.5694165
 107.0978811  62.1450109  30.9086938 107.5617157  62.4237812  30.1191560
 106.8335609  61.2433553  30.7260029 103.9902892  61.6921590  33.8466701
 104.5604249  62.1208859  33.2084186 104.5811004  61.4104175  34.5450887
 106.0347697  58.2673261  27.7176503 106.7371741  58.7194305  28.1850429
 105.7028326  57.6257080  28.3456396 104.4828059  56.8585018  42.0927712
 103.8526719  57.5401298  42.3263109 104.3764147  56.7468099  41.1480851
  99.7773031  56.5256814  33.0193637  98.9872085  56.7814342  32.5433747
 100.2684278  57.3405152  33.1245677 113.7936841  63.8662053  35.7698917
 114.6154284  63.4642240  35.4881599 113.7899244  63.7630287  36.7215033
 101.7287777  56.8901393  29.9777113 100.9318940  57.0020087  30.4960609
 101.5013369  57.2288045  29.1118004 107.5593444  63.4146096  37.9259628
 107.6237877  63.8766503  38.7617800 106.8504368  62.7843461  38.0541938
  98.0610734  56.7787304  35.4508627  98.3118773  57.6634314  35.7166203
  98.5970283  56.5991906  34.6783719 107.2741462  65.0814204  27.7938608
 107.1387137  65.9265739  28.2223456 107.8151274  65.2833481  27.0304542
 103.7608801  51.1605783  44.4552963 103.3675747  50.6071982  45.1300608
 104.5774942  51.4716362  44.8459481 100.7270859  62.5989642  28.3666533
 101.2395380  63.3932892  28.5172098 101.3793572  61.9015932  28.3000135
 102.5365744  65.7155398  30.4489286 102.7132372  66.6373363  30.2610270
 103.3322577  65.4013817  30.8783666 106.6776762  52.5763663  42.0473220
 107.4186476  53.1770816  41.9677682 106.9094685  51.8341300  41.4891263
 101.8218100  57.7620030  40.3251450 101.7071616  56.8605287  40.6258549
 100.9662618  58.0083727  39.9736266 108.9009938  65.7037770  41.9238950
 108.4573792  64.9174149  41.6059855 109.5627152  65.8916921  41.2582841
 103.6597059  67.2333572  36.4499629 104.2104484  67.1050635  35.6776623
 102.8208535  67.5328461  36.0994522 110.9991176  65.9840570  39.9520352
 110.9809652  66.8049451  39.4600621 111.9211096  65.8594645  40.1770493
 107.4564230  63.4984700  40.7943860 107.9892567  62.7372988  40.5643168
 106.9278311  63.2058351  41.5368014 110.6233925  48.6044766  36.3237502
 110.2798195  49.4946407  36.2476612 110.9912888  48.4146423  35.4607087
  98.6919776  60.9278296  29.1426104  99.5294998  61.3375304  28.9259812
  98.8698044  59.9877738  29.1126298 110.5884208  58.5953377  24.8309937
 110.0730832  59.3657981  25.0698324 110.3161517  57.9218513  25.4542998
 108.1731319  53.4403077  29.8895175 107.3172915  53.0509928  29.7100814
 108.5858271  53.5195038  29.0294961 109.7030466  50.9749421  34.2886735
 109.1995261  50.9379556  33.4754540 109.9961073  51.8842163  34.3483392
 105.9473352  51.0588150  33.2952917 106.8126348  50.8630959  32.9358806
 106.0150861  50.8298502  34.2222273 115.5618482  61.3485731  26.7663110
 114.7847925  61.0096891  26.3218272 116.2409963  61.3538354  26.0918075
 110.3770511  56.4680469  26.6569718 110.0720647  56.7826618  27.5079861
 111.3300953  56.5461889  26.6997051 108.8216943  62.6270692  28.3062672
 108.2938305  61.8923452  27.9935909 108.3204446  63.4045368  28.0602640
 113.8009789  60.8219713  33.4229718 113.1433464  61.5118974  33.5109847
 114.6050188  61.2116144  33.7663705 103.5535671  53.2890358  30.6669283
 104.1279423  53.0665540  29.9342476 104.1406653  53.3579053  31.4197885
 112.6115248  59.1764085  31.4733660 113.1247130  59.8094077  31.9755370
 113.2616472  58.5765281  31.1077020 103.8805258  55.3194819  24.6865169
 103.0442570  55.6569506  25.0074443 103.7410027  55.1843799  23.7492306
 105.8558338  50.1631607  29.3944353 105.2022751  49.8480624  28.7700968
 105.8138813  49.5407348  30.1204176 106.9669543  60.4450902  21.3097645
 106.0596605  60.2140156  21.5088794 107.4640575  59.6488522  21.4971627
 109.8737622  69.1548409  24.2294331 109.1999321  69.4580106  24.8379289
 110.2603444  69.9577490  23.8799788 109.0896079  56.6513541  33.7192001
 108.1718640  56.8728488  33.5613689 109.5056222  56.7259851  32.8603708
 109.8731127  58.0504956  28.8494681 110.6202945  58.5626354  28.5401803
 110.1422716  57.7289009  29.7099074 108.1457777  60.5463497  25.8321635
 107.2368996  60.2622530  25.9294105 108.1752861  60.9662576  24.9724942
 113.3777044  64.1570087  29.6012803 112.9239371  63.3160997  29.6577993
 112.7471011  64.7931485  29.9387583 112.3209964  55.0862073  30.8313470
 111.5832720  54.5739459  31.1623713 112.5736737  54.6462454  30.0196747
 111.8209983  65.9946583  30.5362621 112.1132958  66.5551640  29.8174986
 112.3308604  66.2875144  31.2915780 112.4221591  47.8638325  31.4255239
 112.7280468  47.0035688  31.1381154 113.1474196  48.4555945  31.2254233
  98.7145947  58.2669011  29.8136837  98.5170347  57.6738372  29.0887904
  98.1592611  57.9621221  30.5312776 106.6942671  58.1592118  31.9331430
 106.7491281  57.2065954  31.8573907 105.8833873  58.3151557  32.4172729
 107.8433865  62.0872241  23.1709714 107.4053294  61.3708100  22.7115351
 108.5844305  62.3148356  22.6094805 104.6335031  56.7769178  29.6921809
 103.8202896  57.0763348  30.0987001 105.1294025  56.3824866  30.4096292
 106.7843609  66.7726934  31.6256074 106.7419787  66.9987781  30.6964606
 107.7006307  66.5390309  31.7741875 110.2309242  57.2411002  38.5236703
 110.5858630  57.4682475  39.3831169 110.8781374  57.5729379  37.9013958
 115.9606979  60.3629438  29.2286032 115.8224878  60.5531034  28.3007221
 115.6043198  61.1248821  29.6854083 104.1249105  54.3487533  35.3083044
 104.7648485  54.2076292  34.6106008 103.2926636  54.0622046  34.9321646
 115.9876359  62.4305965  34.2397304 116.4212866  62.3381254  35.0880358
 116.7007940  62.4063465  33.6017320 104.9009409  63.6489963  31.4218037
 105.6950008  63.1540284  31.2200612 104.1901102  63.1207827  31.0585742
 109.7204254  66.0308059  35.7730404 109.7741276  66.5998995  36.5408120
 108.8519035  66.2009944  35.4084441 101.2092173  57.7933045  27.4977789
 100.2789761  57.7317501  27.7147752 101.3049645  57.2708998  26.7014431
 101.1277722  54.3187858  30.0856031 101.3884539  55.2333191  29.9765192
 101.9494894  53.8512301  30.2352644 102.6002647  55.7325615  37.2554856
 103.2725701  55.5242977  36.6067505 101.7732434  55.5347701  36.8160088
 116.8491908  62.4729666  36.7730189 117.0427799  63.3775476  37.0189464
 116.7492527  62.0137085  37.6068774 108.5028219  52.3587556  39.2720516
 107.8556134  53.0577506  39.1784993 109.2729235  52.7923700  39.6396765
 111.9107017  62.6236408  42.3471070 111.7592524  62.3946960  41.4301153
 111.9011697  63.5807010  42.3602415 108.6792354  60.1968321  37.3317336
 109.6084414  60.3479481  37.1586304 108.2583384  60.2852342  36.4765983
 107.4780685  64.2218985  35.1015874 107.3391771  63.8537770  35.9741812
 106.6895282  64.7366625  34.9299832 108.0728837  69.3228082  26.4441410
 108.2480593  68.8516125  27.2587033 107.3861625  69.9493848  26.6722671
 109.0285900  63.6000588  32.4904712 108.6935733  63.5601358  33.3862361
 108.5289846  62.9345304  32.0175122 103.0030144  59.0068218  38.0157293
 102.8649942  58.2748457  38.6168832 103.9135068  58.9177118  37.7341481
 111.9645092  60.9456622  22.7641771 111.3474263  60.2203451  22.6674824
 111.4961581  61.7065983  22.4208846 105.6312445  58.7188177  37.5040972
 106.3412064  58.0781370  37.4627591 105.5881753  58.9701072  38.4267153
 113.6199224  65.6555531  40.4247552 113.5611770  64.9714751  39.7578135
 114.0218742  66.3974521  39.9728178 104.3441379  55.7053395  39.3236612
 103.8078736  55.2544134  39.9758208 103.7558088  55.8399304  38.5807076
 102.6389923  72.4717445  33.2181271 102.8786521  73.1035969  33.8960289
 101.7959119  72.1205485  33.5046630 103.7543638  55.1642047  21.8863076
 102.8773104  55.0430848  21.5225322 104.2301391  54.3728125  21.6341964
 113.6216631  63.6195115  38.6561531 112.7343410  63.2821037  38.7787930
 114.1915182  62.8878146  38.8930297  95.2745778  59.9519207  31.9804583
  95.9616818  59.6380937  31.3925598  95.1193907  60.8560571  31.7071834
 100.0780500  54.8409403  36.4089606  99.9938689  54.2335073  35.6740016
  99.2563207  55.3318421  36.4099103 107.1517784  68.2796567  35.6222774
 107.0787956  69.0851539  36.1342079 106.7095178  68.4788533  34.7970796
 106.9407564  67.5168337  29.1325596 106.1575086  68.0590017  29.2263821
 107.6400309  68.0342317  29.5319837 110.2504214  53.3262967  31.7759801
 110.7472914  52.5732929  31.4560872 109.4791196  53.3627283  31.2103011
 118.1033972  59.0303332  33.4178093 118.0923848  59.9128048  33.0472026
 117.2351351  58.6774883  33.2232630 109.6116468  68.1783401  37.7780933
 110.3244440  68.8130866  37.7056835 109.1206497  68.2747267  36.9620935
 111.3333995  62.0834654  29.3498225 110.3990274  62.2036116  29.1802929
 111.5110663  61.1807121  29.0858235 106.8339183  55.4680350  31.5031486
 106.4636970  54.9151390  32.1912392 107.3298275  54.8638483  30.9506486
 114.7206546  57.9251973  29.8848259 115.1866998  58.7579965  29.8108562
 115.1714047  57.4596955  30.5893517 104.6628382  65.9277845  38.5986504
 105.3637841  66.5614328  38.7515898 104.1923497  66.2692576  37.8382143
 112.7882777  64.2695794  26.8834411 113.0642621  64.1552389  27.7928285
 111.9187276  63.8713279  26.8446584 112.6923209  50.2932560  33.9239160
 111.7786289  50.5236787  34.0921367 113.1216310  50.3771004  34.7753193
 112.4629667  58.4822452  36.4239054 111.8101118  58.7298360  35.7691507
 112.8410047  57.6686590  36.0901532 109.4236841  68.5182145  30.5267225
 109.6059236  67.7003801  30.9894977 110.2469827  68.7349837  30.0892115
 109.7579007  67.4450330  27.7882273 110.2866773  66.9342785  27.1752435
 110.0207226  67.1292861  28.6527806 108.5117240  59.2242263  42.9105091
 107.8357878  59.1236392  43.5807467 109.3344874  59.0681477  43.3741089
 100.2596100  65.4614200  35.5317607 100.8449536  64.7157888  35.6645511
 100.0620938  65.7718156  36.4154271 103.1134755  68.4965447  30.5480049
 102.4445130  68.9811575  30.0644089 102.9747624  68.7434667  31.4623428
  94.8513754  58.0319800  34.2522050  94.8897854  57.4983391  35.0459168
  94.3454047  57.5055005  33.6333027 107.2540023  70.5309191  37.1462707
 107.8058331  70.6940812  37.9111793 107.5946217  71.1213628  36.4742732
 102.2304517  52.8784340  37.7484592 102.2945843  53.7399171  37.3361990
 102.1671637  52.2658342  37.0156951 101.7056789  54.9507473  41.3957626
 102.3328828  54.5684550  42.0095151 100.8484708  54.7321675  41.7613319
 112.1050898  65.3570448  43.0011362 112.6490802  65.9700406  42.5066317
 111.5237743  65.9150026  43.5178375  98.4822332  56.7583902  27.3275981
  98.7775773  55.8494580  27.2743035  97.5810368  56.7371641  27.0056984
 110.3908411  68.4791166  34.1326390 110.2659550  67.6780906  33.6237335
 111.0487502  68.9737359  33.6440360 102.0116579  54.8339899  33.3103530
 101.2903165  55.4475866  33.1711003 102.8009835  55.3697663  33.2320176
 112.4543319  66.2800186  35.7605940 111.5073655  66.1605537  35.6884266
 112.8026092  65.3922684  35.8432201 104.8142892  52.1694325  39.5844182
 105.3377294  52.4156622  40.3470491 104.5955226  53.0014360  39.1647319
 100.2110173  54.4398000  27.4515306  99.8822880  53.5595379  27.2690412
 100.5649544  54.3845668  28.3391696 109.4589752  66.0752902  31.9610292
 109.3114715  65.1469610  32.1417862 110.2843246  66.0972993  31.4767367
 103.3251997  54.7270969  27.8190784 103.6648069  55.2556891  27.0969392
 103.7724117  55.0651376  28.5949351 113.0623874  66.8981461  33.0475165
 113.9870422  66.6924322  32.9099616 112.8939178  66.6497862  33.9564506
 106.0195437  53.1108020  37.2693852 105.6792258  52.3115833  37.6714532
 105.3134444  53.4109731  36.6970685 106.6711909  50.1957333  35.7221175
 107.4937979  49.7217811  35.6000065 106.9149973  50.9747816  36.2219861
 105.3120144  53.2245591  26.0184077 106.0328506  53.6026844  25.5147794
 104.6885448  53.9434468  26.1219055 109.4551267  53.9290740  26.9542409
 109.6714881  54.8115378  26.6531237 108.9745334  53.5376953  26.2248051
 104.1950488  56.8876453  33.5313154 104.0495069  57.2016756  34.4237435
 103.7175692  57.5061354  32.9784052 106.0546871  53.8779001  33.5794043
 106.0408440  52.9820095  33.2426341 106.7719299  53.8849665  34.2132329
 107.9073002  54.3116341  35.6247171 107.6490779  55.2333412  35.6231501
 107.3758042  53.9146776  36.3147635 112.8519190  67.4167129  28.4037256
 113.0256068  66.8513551  27.6511109 113.3448082  68.2168023  28.2216746
  98.6696150  59.4281798  36.4700815  98.1249618  60.2041606  36.6021089
  99.5475500  59.7752602  36.3119936 105.4583767  52.7593382  28.8481613
 105.5799678  51.8310028  29.0472501 105.1685809  52.7732068  27.9359929
 108.3274957  50.4448292  31.9848333 108.3496654  50.5087625  31.0300313
 108.7443016  49.6052801  32.1788839 113.8394363  66.7333893  25.5034154
 114.5345268  67.3540586  25.7221469 114.1817513  65.8829244  25.7786532
  99.4562172  58.5551694  39.3630972  98.7143908  58.7034329  39.9495602
  99.1354916  58.8159960  38.4997721 115.7385786  64.1833599  27.0321485
 116.2637110  64.5220871  26.3070805 115.6508139  63.2480614  26.8484620
 107.4005835  68.0967672  39.1611362 107.7092961  67.8516819  40.0334061
 108.1981317  68.3014311  38.6730232 107.4226447  70.2505582  31.3916738
 106.9831437  69.7581960  32.0849595 108.1734564  69.7078549  31.1508814
  99.9018786  66.4417123  31.3941366 100.7276806  66.1420895  31.0140010
  99.5512838  65.6724745  31.8431155 104.8700319  65.7943591  33.4639040
 104.2480328  65.1314296  33.1641268 105.5405186  65.8204723  32.7812688
  98.1027391  64.3603449  32.3530300  97.2659299  63.9325623  32.1714301
  98.0751036  64.5535892  33.2901091 104.9424846  54.2725379  43.0571546
 104.9913002  55.1487502  42.6749316 105.4847361  53.7302772  42.4843189
 115.4279692  64.8166502  42.3372683 114.6375236  64.7990641  41.7977183
 115.1913047  65.3554796  43.0921720 115.5477567  61.6658969  39.6505412
 115.5975572  61.5008976  40.5920934 115.4391490  60.7986228  39.2603292
 104.4313826  64.3447514  26.9397501 104.5801946  65.0282979  26.2864173
 105.2380269  64.3252604  27.4546956 112.8381330  57.6489897  40.9664718
 113.7391192  57.5096361  40.6748716 112.9129304  57.8144351  41.9062896
 107.1724135  55.0256751  39.8117905 106.3027444  55.3190317  39.5400493
 107.4083615  55.6097196  40.5325168 117.0495764  64.0855910  39.8947433
 116.7580572  64.4485891  40.7310894 116.4367895  63.3722918  39.7160765
 115.2982952  59.2088525  38.3627491 115.7737074  59.4016171  37.5546343
 114.3748518  59.2647710  38.1170875 102.1866459  60.3712692  27.9458569
 101.9412501  59.4675022  28.1438780 102.3562373  60.3729842  27.0038047
 109.8763169  51.2436368  37.3283325 110.3945113  51.9797395  37.0029814
 109.5218301  51.5500362  38.1630084 101.4562106  56.1041049  25.4444731
 100.7631351  56.1785404  24.7884767 101.2113858  55.3401393  25.9666248
 110.1275763  47.6636651  32.8484222 110.4077517  46.9959840  33.4744648
 110.9126370  47.8565746  32.3358885 107.9309231  66.8395645  24.4109248
 107.3583198  67.4585832  23.9579720 108.5042025  67.3895006  24.9449170
 113.9984621  56.0854285  36.5955797 114.9502044  56.1852382  36.6168021
 113.8288072  55.2932553  37.1053881 112.0199001  53.1709868  36.7815198
 111.4248933  53.4514881  36.0861686 111.7348697  53.6603769  37.5531939
 111.1506491  67.1232795  25.5417830 112.0837164  67.0578356  25.7450706
 111.0629704  67.9589062  25.0832363 113.7794508  66.4398665  22.5021778
 113.7008139  66.1058529  23.3957536 114.6004175  66.9320433  22.5013250
 116.4772699  59.3060404  35.7098096 116.4449019  58.3676405  35.8957780
 117.0873323  59.3844441  34.9763921 108.3156030  58.1756457  21.7525300
 109.2615135  58.0462666  21.8213718 107.9370275  57.4371119  22.2294729
 116.6267187  56.0971448  35.7556380 116.1106236  55.3129905  35.5686308
 117.5107136  55.7690164  35.9202899 114.2877914  49.8412463  31.7152192
 114.0902736  49.5327552  32.5995524 114.8977620  50.5674102  31.8450122
 108.1994722  62.2274204  43.2125957 109.1197732  62.4052803  43.4066004
 108.1644305  61.2830249  43.0605657 106.4998947  56.1006434  21.6880186
 105.5930402  55.8039547  21.7642899 106.7774928  55.8036252  20.8214472
  97.4176887  57.4212797  32.1379232  97.0979672  56.5678105  31.8453606
  96.8710316  57.6361375  32.8937199 101.1956795  60.1375238  35.8548739
 101.4142805  61.0692346  35.8736772 101.6082569  59.7783213  36.6403542
 108.1161013  50.6443324  27.8424427 107.3061741  50.2990408  28.2179673
 108.8045430  50.3350867  28.4312039 110.0451561  49.7221370  29.4648724
 110.5982600  50.1416824  30.1238747 110.2821647  48.7957118  29.5071680
 106.0684660  55.7108444  45.2451488 105.9681387  56.6602801  45.1763579
 105.8506202  55.3826683  44.3727558 105.2697732  52.9593369  21.8292165
 106.1316896  53.2848267  22.0887982 105.4548076  52.1724865  21.3165231
  97.2865147  61.0415709  34.1072354  96.5928619  60.6269662  33.5942308
  98.0338138  61.0836245  33.5105773 113.4230368  51.8321895  28.9727388
 112.8429037  52.4906700  28.5905440 113.1566301  51.0099240  28.5614805
 111.8733934  51.2326953  31.1748708 112.3733713  51.3443488  30.3663027
 112.5169542  50.9288006  31.8149517 105.9315930  59.1405583  44.0616549
 105.4483012  59.9405943  44.2680438 106.0176869  59.1513528  43.1083993
  99.2001890  60.9733962  31.9838369  99.1772578  61.0721650  31.0320252
  99.5102526  61.8199113  32.3055535 101.8589268  63.0310118  36.0984983
 102.8132521  62.9994060  36.0314915 101.6601791  62.5700741  36.9135209
 102.4488650  61.6011234  38.6655781 103.2681539  62.0955312  38.6890618
 102.7225458  60.6843202  38.6373348 112.2055246  53.9921986  28.0283736
 111.3181101  54.2771636  27.8103931 112.6209235  53.8315749  27.1811013
 115.5569782  54.0168507  31.7438075 116.3330172  54.5064959  32.0162692
 114.8317916  54.4426561  32.2009945 100.2139497  68.5729737  33.1155181
 100.0793964  67.8130138  32.5493179  99.7971559  69.2970637  32.6483970
 111.3498460  63.7566661  22.1231756 112.0534310  63.9616663  22.7389412
 110.6261108  64.3243422  22.3880840 112.1796270  59.5076522  28.2434026
 112.1231471  59.9645073  27.4041659 112.7324612  58.7467206  28.0656869
 115.9901076  55.2966254  29.0684146 115.7338010  54.8962889  29.8992353
 115.3653944  56.0110048  28.9434285 103.3708622  69.4699054  33.3273623
 103.2541007  70.4144487  33.2252314 102.5501069  69.1672616  33.7159423
 113.2585157  64.1949190  24.1730216 114.0930761  63.7630388  23.9907691
 113.0969500  64.0231203  25.1007111 112.9131049  60.6981303  25.5386555
 112.8579853  60.5325574  24.5975000 112.2877104  61.4057336  25.6948745
  97.7023564  55.9349367  39.3647978  98.3482428  55.4248321  39.8535203
  97.4940715  56.6718049  39.9391403 110.2276956  63.0030215  44.8640118
 111.0968116  63.1770867  44.5026753 109.7483708  63.8224632  44.7415848
 106.2227175  50.1989412  25.1171874 106.2105844  51.1431252  25.2740145
 107.1150596  50.0159557  24.8231335 104.3963137  70.1227316  36.5429552
 105.2990383  70.1550926  36.8596047 104.1700507  69.1927767  36.5575888
 106.1516739  68.8758302  33.2039631 105.2012370  68.8760164  33.0904003
 106.4549225  68.1291037  32.6875665 110.0379294  46.7932189  29.3717811
 109.2711690  46.2390675  29.5174493 110.4489999  46.8654057  30.2331962
 102.0421055  53.0816984  43.4622992 102.9052517  52.7253789  43.6726316
 101.4686466  52.7430879  44.1498396 114.5545954  76.5181745  30.1943809
 113.9910819  76.4271682  29.4260096 114.4398349  75.6981650  30.6746301
 112.1010386  78.0132937  33.0328029 112.8931678  77.6723762  32.6174328
 112.3407036  78.1227912  33.9530182 114.0601140  77.2741850  25.9045408
 114.8332016  76.7270837  25.7658284 114.4126539  78.1386100  26.1159869
 115.8986182  78.6018232  39.1112307 115.6076048  79.5063863  38.9958973
 116.5343167  78.6434760  39.8256377 116.8242389  75.9795081  35.7013667
 117.4205962  75.7551103  34.9870630 116.8817361  75.2379826  36.3039115
 116.3967418  73.4334516  23.5363858 116.6492938  72.9116038  22.7747321
 115.4591977  73.2700662  23.6390541 116.1163706  75.3362622  25.7388233
 115.9999965  74.6607526  26.4069317 116.2265966  74.8494996  24.9220386
 118.1000734  69.8262669  24.4396270 118.2675137  70.6942906  24.8066741
 117.9097903  69.9889951  23.5157560 114.3088549  74.7393445  32.1398805
 113.3839046  74.6069659  32.3476497 114.5572962  75.5187664  32.6368748
 118.0789955  72.2820327  25.4242937 117.9589580  72.7277377  26.2628418
 117.3842544  72.6305644  24.8656475 111.6697360  74.3826718  32.9742594
 111.7989741  74.6361197  33.8882006 110.9894811  74.9754426  32.6547249
 115.8396847  85.0523968  29.0733068 115.7620877  86.0031793  29.1521549
 115.2358491  84.7069841  29.7307995 116.5860449  75.0337287  41.2912402
 117.3275134  75.5722331  41.0147226 115.8797435  75.6603576  41.4483954
 114.8296647  77.0213508  33.8466701 115.3998004  77.4500776  33.2084186
 115.4204759  76.7396093  34.5450887 116.8741452  73.5965179  27.7176503
 117.5765495  74.0486222  28.1850429 116.5422080  72.9548998  28.3456396
 115.3221813  72.1876935  42.0927712 114.6920474  72.8693216  42.3263109
 115.2157901  72.0760017  41.1480851 110.6166786  71.8548731  33.0193637
 109.8265840  72.1106260  32.5433747 111.1078033  72.6697069  33.1245677
 112.5681531  72.2193311  29.9777113 111.7712694  72.3312005  30.4960609
 112.3407123  72.5579963  29.1118004 108.9004489  72.1079222  35.4508627
 109.1512527  72.9926232  35.7166203 109.4364037  71.9283823  34.6783719
 114.6002556  66.4897701  44.4552963 114.2069501  65.9363900  45.1300608
 115.4168696  66.8008280  44.8459481 111.5664614  77.9281559  28.3666533
 112.0789134  78.7224810  28.5172098 112.2187326  77.2307850  28.3000135
 113.3759498  81.0447316  30.4489286 113.5526127  81.9665280  30.2610270
 114.1716332  80.7305735  30.8783666 117.5170517  67.9055580  42.0473220
 118.2580230  68.5062733  41.9677682 117.7488440  67.1633218  41.4891263
 112.6611855  73.0911948  40.3251450 112.5465370  72.1897205  40.6258549
 111.8056373  73.3375644  39.9736266 114.4990814  82.5625489  36.4499629
 115.0498239  82.4342553  35.6776623 113.6602290  82.8620378  36.0994522
 109.5313530  76.2570214  29.1426104 110.3688752  76.6667222  28.9259812
 109.7091798  75.3169656  29.1126298 116.7867106  66.3880068  33.2952917
 117.6520103  66.1922877  32.9358806 116.8544615  66.1590420  34.2222273
 114.3929425  68.6182276  30.6669283 114.9673177  68.3957457  29.9342476
 114.9800408  68.6870970  31.4197885 114.7199012  70.6486737  24.6865169
 113.8836325  70.9861424  25.0074443 114.5803782  70.5135717  23.7492306
 116.6952093  65.4923525  29.3944353 116.0416505  65.1772542  28.7700968
 116.6532567  64.8699265  30.1204176 117.8063298  75.7742820  21.3097645
 116.8990360  75.5432073  21.5088794 118.3034330  74.9780439  21.4971627
 109.5539702  73.5960929  29.8136837 109.3564101  73.0030290  29.0887904
 108.9986366  73.2913139  30.5312776 117.5336425  73.4884035  31.9331430
 117.5885035  72.5357872  31.8573907 116.7227627  73.6443475  32.4172729
 115.4728785  72.1061095  29.6921809 114.6596651  72.4055266  30.0987001
 115.9687779  71.7116784  30.4096292 114.9642860  69.6779451  35.3083044
 115.6042239  69.5368210  34.6106008 114.1320390  69.3913964  34.9321646
 115.7403164  78.9781881  31.4218037 116.5343762  78.4832201  31.2200612
 115.0294856  78.4499744  31.0585742 112.0485927  73.1224963  27.4977789
 111.1183515  73.0609418  27.7147752 112.1443399  72.6000916  26.7014431
 111.9671476  69.6479776  30.0856031 112.2278294  70.5625109  29.9765192
 112.7888649  69.1804218  30.2352644 113.4396402  71.0617533  37.2554856
 114.1119455  70.8534895  36.6067505 112.6126188  70.8639619  36.8160088
 113.8423899  74.3360136  38.0157293 113.7043697  73.6040375  38.6168832
 114.7528822  74.2469036  37.7341481 116.4706200  74.0480095  37.5040972
 117.1805818  73.4073287  37.4627591 116.4275508  74.2992990  38.4267153
 115.1835134  71.0345313  39.3236612 114.6472491  70.5836052  39.9758208
 114.5951842  71.1691222  38.5807076 113.4783677  87.8009362  33.2181271
 113.7180275  88.4327887  33.8960289 112.6352874  87.4497402  33.5046630
 114.5937393  70.4933964  21.8863076 113.7166859  70.3722765  21.5225322
 115.0695146  69.7020043  21.6341964 106.1139533  75.2811124  31.9804583
 106.8010573  74.9672854  31.3925598 105.9587661  76.1852489  31.7071834
 110.9174255  70.1701321  36.4089606 110.8332444  69.5626990  35.6740016
 110.0956961  70.6610339  36.4099103 117.9911539  83.6088485  35.6222774
 117.9181710  84.4143456  36.1342079 117.5488932  83.8080451  34.7970796
 117.6732937  70.7972267  31.5031486 117.3030725  70.2443308  32.1912392
 118.1692030  70.1930401  30.9506486 115.5022136  81.2569762  38.5986504
 116.2031595  81.8906245  38.7515898 115.0317251  81.5984494  37.8382143
 111.0989854  80.7906117  35.5317607 111.6843291  80.0449805  35.6645511
 110.9014693  81.1010074  36.4154271 113.9528509  83.8257365  30.5480049
 113.2838885  84.3103492  30.0644089 113.8141379  84.0726585  31.4623428
 105.6907509  73.3611718  34.2522050 105.7291608  72.8275308  35.0459168
 105.1847802  72.8346923  33.6333027 113.0698271  68.2076258  37.7484592
 113.1339598  69.0691089  37.3361990 113.0065391  67.5950260  37.0156951
 112.5450544  70.2799391  41.3957626 113.1722582  69.8976468  42.0095151
 111.6878462  70.0613593  41.7613319 109.3216086  72.0875820  27.3275981
 109.6169527  71.1786498  27.2743035 108.4204122  72.0663559  27.0056984
 112.8510333  70.1631816  33.3103530 112.1296919  70.7767784  33.1711003
 113.6403589  70.6989581  33.2320176 115.6536647  67.4986243  39.5844182
 116.1771049  67.7448539  40.3470491 115.4348980  68.3306278  39.1647319
 111.0503928  69.7689917  27.4515306 110.7216634  68.8887296  27.2690412
 111.4043299  69.7137586  28.3391696 114.1645751  70.0562887  27.8190784
 114.5041824  70.5848808  27.0969392 114.6117872  70.3943293  28.5949351
 116.8589192  68.4399938  37.2693852 116.5186012  67.6407751  37.6714532
 116.1528198  68.7401649  36.6970685 116.1513898  68.5537509  26.0184077
 116.8722261  68.9318762  25.5147794 115.5279202  69.2726386  26.1219055
 115.0344243  72.2168371  33.5313154 114.8888823  72.5308674  34.4237435
 114.5569446  72.8353271  32.9784052 116.8940625  69.2070919  33.5794043
 116.8802194  68.3112012  33.2426341 117.6113054  69.2141583  34.2132329
 109.5089905  74.7573715  36.4700815 108.9643373  75.5333523  36.6021089
 110.3869255  75.1044520  36.3119936 116.2977521  68.0885299  28.8481613
 116.4193433  67.1601945  29.0472501 116.0079564  68.1023985  27.9359929
 110.2955927  73.8843612  39.3630972 109.5537663  74.0326247  39.9495602
 109.9748671  74.1451877  38.4997721 110.7412540  81.7709040  31.3941366
 111.5670560  81.4712812  31.0140010 110.3906592  81.0016663  31.8431155
 115.7094073  81.1235509  33.4639040 115.0874083  80.4606214  33.1641268
 116.3798940  81.1496640  32.7812688 108.9421145  79.6895367  32.3530300
 108.1053054  79.2617541  32.1714301 108.9144791  79.8827810  33.2901091
 115.7818601  69.6017297  43.0571546 115.8306756  70.4779419  42.6749316
 116.3241115  69.0594690  42.4843189 115.2707580  79.6739432  26.9397501
 115.4195701  80.3574896  26.2864173 116.0774024  79.6544522  27.4546956
 118.0117889  70.3548669  39.8117905 117.1421199  70.6482235  39.5400493
 118.2477370  70.9389114  40.5325168 113.0260213  75.7004610  27.9458569
 112.7806255  74.7966940  28.1438780 113.1956128  75.7021760  27.0038047
 112.2955861  71.4332967  25.4444731 111.6025106  71.5077322  24.7884767
 112.0507613  70.6693311  25.9666248 117.3392701  71.4298351  21.6880186
 116.4324157  71.1331464  21.7642899 117.6168682  71.1328170  20.8214472
 108.2570642  72.7504715  32.1379232 107.9373426  71.8970023  31.8453606
 107.7104070  72.9653293  32.8937199 112.0350549  75.4667156  35.8548739
 112.2536559  76.3984264  35.8736772 112.4476323  75.1075130  36.6403542
 116.9078415  71.0400362  45.2451488 116.8075142  71.9894719  45.1763579
 116.6899957  70.7118601  44.3727558 116.1091486  68.2885287  21.8292165
 116.9710650  68.6140185  22.0887982 116.2941830  67.5016783  21.3165231
 108.1258902  76.3707626  34.1072354 107.4322373  75.9561579  33.5942308
 108.8731893  76.4128163  33.5105773 116.7709685  74.4697500  44.0616549
 116.2876766  75.2697861  44.2680438 116.8570624  74.4805445  43.1083993
 110.0395644  76.3025880  31.9838369 110.0166332  76.4013567  31.0320252
 110.3496281  77.1491031  32.3055535 112.6983022  78.3602035  36.0984983
 113.6526276  78.3285978  36.0314915 112.4995546  77.8992659  36.9135209
 113.2882404  76.9303151  38.6655781 114.1075293  77.4247230  38.6890618
 113.5619212  76.0135119  38.6373348 111.0533251  83.9021655  33.1155181
 110.9187719  83.1422056  32.5493179 110.6365313  84.6262555  32.6483970
 114.2102377  84.7990972  33.3273623 114.0934761  85.7436404  33.2252314
 113.3894823  84.4964533  33.7159423 108.5417319  71.2641285  39.3647978
 109.1876182  70.7540239  39.8535203 108.3334470  72.0009967  39.9391403
 117.0620929  65.5281330  25.1171874 117.0499599  66.4723170  25.2740145
 117.9544351  65.3451475  24.8231335 115.2356891  85.4519234  36.5429552
 116.1384138  85.4842844  36.8596047 115.0094261  84.5219685  36.5575888
 116.9910493  84.2050220  33.2039631 116.0406124  84.2052082  33.0904003
 117.2942979  83.4582955  32.6875665 112.8814810  68.4108902  43.4622992
 113.7446271  68.0545707  43.6726316 112.3080220  68.0722797  44.1498396
 116.9533287  90.6103042  31.9804583 117.6404327  90.2964772  31.3925598
 116.7981416  91.5144407  31.7071834 116.5301263  88.6903635  34.2522050
 116.5685363  88.1567226  35.0459168 116.0241556  88.1638841  33.6333027
  70.1208660   3.4903814  19.9426577  70.3605259   4.1222338  20.6205596
  69.2777857   3.1391854  20.2291936  82.0364692   7.5368115  16.9189115
  81.4729557   7.4458052  16.1505403  81.9217087   6.7168019  17.3991608
  79.5829124   9.0319307  19.7573336  80.3750416   8.6910131  19.3419635
  79.8225774   9.1414282  20.6775489  81.5419878   8.2928220  12.6290714
  82.3150754   7.7457207  12.4903590  81.8945277   9.1572469  12.8405176
  83.3804920   9.6204602  25.8357614  83.0894786  10.5250233  25.7204280
  84.0161905   9.6621130  26.5501683  84.3061127   6.9981451  22.4258973
  84.9024699   6.7737473  21.7115936  84.3636099   6.2566196  23.0284421
  88.3394805   9.3066018  22.8307407  88.0395528  10.2091056  22.7223215
  87.9945865   9.0398201  23.6828560  81.7907287   5.7579814  18.8644112
  80.8657783   5.6256029  19.0721804  82.0391700   6.5374034  19.3614054
  79.1516098   5.4013088  19.6987901  79.2808479   5.6547567  20.6127313
  78.4713549   5.9940796  19.3792556  83.3215585  16.0710338  15.7978375
  83.2439615  17.0218163  15.8766856  82.7177229  15.7256210  16.4553301
  84.0679187   6.0523657  28.0157709  84.8093872   6.5908701  27.7392533
  83.3616173   6.6789945  28.1729261  89.8663342   8.7553988  20.3682159
  89.2372204   8.9199702  19.6658227  89.4789004   9.1695597  21.1393123
  85.4191303   8.4928396  17.6332245  85.8829649   8.7716099  16.8436867
  85.1548101   7.5911840  17.4505335  82.3115384   8.0399877  20.5712008
  82.8816742   8.4687146  19.9329492  82.9023496   7.7582462  21.2696193
  92.1149333  10.2140340  22.4944224  92.9366777   9.8120527  22.2126906
  92.1111736  10.1108574  23.4460340  85.8805936   9.7624383  24.6504935
  85.9450369  10.2244791  25.4863106  85.1716860   9.1321748  24.7787244
  85.5953954  11.4292491  14.5183915  85.4599629  12.2744027  14.9468763
  86.1363767  11.6311769  13.7549849  79.0483351   8.9467929  15.0911840
  79.5607872   9.7411179  15.2417405  79.7006064   8.2494219  15.0245441
  80.8578236  12.0633685  17.1734593  81.0344864  12.9851650  16.9855577
  81.6535070  11.7492104  17.6028973  87.2222430  12.0516057  28.6484257
  86.7786285  11.2652436  28.3305161  87.8839644  12.2395208  27.9828148
  81.9809552  13.5811859  23.1744935  82.5316977  13.4528922  22.4021929
  81.1421028  13.8806748  22.8239828  89.3203669  12.3318857  26.6765658
  89.3022144  13.1527738  26.1845927  90.2423589  12.2072933  26.9015799
  85.7776723   9.8462987  27.5189167  86.3105059   9.0851275  27.2888475
  85.2490804   9.5536639  28.2613321  77.0132268   7.2756583  15.8671410
  77.8507490   7.6853592  15.6505118  77.1910536   6.3356025  15.8371604
  90.1422476  12.3424871  17.2607927  90.4345450  12.9029928  16.5420293
  90.6521096  12.6353432  18.0161087  77.0358439   4.6147299  16.5382144
  76.8382839   4.0216659  15.8133210  76.4805103   4.3099509  17.2558083
  85.1056101  13.1205222  18.3501381  85.0632280  13.3466068  17.4209913
  86.0218800  12.8868596  18.4987182  83.2221902   9.9968251  18.1463343
  84.0162500   9.5018571  17.9445918  82.5113594   9.4686114  17.7831049
  88.0416746  12.3786346  22.4975711  88.0953768  12.9477283  23.2653427
  87.1731527  12.5488231  22.1329748  90.2319509   8.9714696  29.0716376
  90.0805016   8.7425247  28.1546460  90.2224189   9.9285297  29.0847721
  85.7993178  10.5697273  21.8261180  85.6604263  10.2016057  22.6987119
  85.0107774  11.0844912  21.6545138  86.3941330  15.6706369  13.1686717
  86.5693085  15.1994412  13.9832340  85.7074118  16.2972135  13.3967978
  87.3498393   9.9478875  19.2150018  87.0148225   9.9079645  20.1107668
  86.8502338   9.2823591  18.7420428  91.9411716  12.0033818  27.1492858
  91.8824262  11.3193038  26.4823441  92.3431234  12.7452808  26.6973484
  80.9602415  18.8195732  19.9426577  81.1999013  19.4514256  20.6205596
  80.1171611  18.4683772  20.2291936  91.9429123   9.9673402  25.3806838
  91.0555902   9.6299324  25.5033237  92.5127674   9.2356433  25.6175603
  73.5958270   6.2997494  18.7049889  74.2829310   5.9859224  18.1170905
  73.4406399   7.2038858  18.4317141  85.4730277  14.6274854  22.3468081
  85.4000448  15.4329826  22.8587386  85.0307670  14.8266820  21.5216103
  85.2620056  13.8646624  15.8570903  84.4787578  14.4068305  15.9509127
  85.9612802  14.3820604  16.2565144  87.9328960  14.5261688  24.5026240
  88.6456932  15.1609153  24.4302141  87.4418989  14.6225554  23.6866242
  82.9840874  12.2756132  25.3231811  83.6850333  12.9092615  25.4761205
  82.5135989  12.6170863  24.5627450  87.7449334  14.8660432  17.2512531
  87.9271728  14.0482088  17.7140284  88.5682320  15.0828125  16.8137421
  88.0791499  13.7928618  14.5127580  88.6079266  13.2821072  13.8997742
  88.3419719  13.4771148  15.3773113  78.5808592  11.8092487  22.2562913
  79.1662029  11.0636175  22.3890817  78.3833430  12.1196444  23.1399577
  81.4347247  14.8443734  17.2725356  80.7657622  15.3289862  16.7889396
  81.2960117  15.0912955  18.1868734  73.1726247   4.3798087  20.9767356
  73.2110346   3.8461678  21.7704475  72.6666539   3.8533293  20.3578334
  85.5752516  16.8787478  23.8708014  86.1270824  17.0419099  24.6357099
  85.9158709  17.4691916  23.1988039  90.4263390  11.7048735  29.7256668
  90.9703294  12.3178694  29.2311623  89.8450235  12.2628314  30.2423681
  88.7120903  14.8269453  20.8571696  88.5872042  14.0259193  20.3482642
  89.3699994  15.3215647  20.3685666  90.7755811  12.6278473  22.4851246
  89.8286147  12.5083825  22.4129573  91.1238584  11.7400971  22.5677508
  87.7802245  12.4231190  18.6855599  87.6327207  11.4947897  18.8663169
  88.6055738  12.4451280  18.2012674  91.3836366  13.2459748  19.7720471
  92.3082914  13.0402610  19.6344922  91.2151670  12.9976150  20.6809813
  76.9908642   5.7760085  23.1946122  76.4462111   6.5519893  23.3266396
  77.8687992   6.1230889  23.0365243  77.7774664   4.9029981  26.0876278
  77.0356400   5.0512617  26.6740909  77.4567409   5.1638247  25.2243028
  85.7218327  14.4445959  25.8856668  86.0305453  14.1995106  26.7579368
  86.5193809  14.6492598  25.3975539  85.7438939  16.5983869  18.1162045
  85.3043929  16.1060248  18.8094902  86.4947056  16.0556837  17.8754120
  78.2231278  12.7895410  18.1186673  79.0489298  12.4899182  17.7385317
  77.8725330  12.0203032  18.5676462  83.1912811  12.1421878  20.1884347
  82.5692820  11.4792583  19.8886574  83.8617678  12.1683010  19.5057994
  76.4239883  10.7081736  19.0775607  75.5871791  10.2803911  18.8959608
  76.3963528  10.9014180  20.0146398  93.7492184  11.1644789  29.0617990
  92.9587728  11.1468928  28.5222489  93.5125539  11.7033083  29.8167026
  82.7526318  10.6925801  13.6642807  82.9014438  11.3761266  13.0109480
  83.5592762  10.6730892  14.1792263  95.3708256  10.4334197  26.6192740
  95.0793065  10.7964178  27.4556201  94.7580388   9.7201206  26.4406072
  80.5078951   6.7190979  14.6703876  80.2624993   5.8153309  14.8684086
  80.6774866   6.7208130  13.7283354  86.5207215   8.5752491  29.9371264
  87.4410224   8.7531090  30.1311311  86.4856798   7.6308536  29.7850963
  75.7389380   3.7691084  18.8624539  75.4192164   2.9156393  18.5698913
  75.1922808   3.9839663  19.6182506  79.5169287   6.4853525  22.5794045
  79.7355297   7.4170633  22.5982079  79.9295061   6.1261500  23.3648849
  75.6077640   7.3893996  20.8317660  74.9141111   6.9747949  20.3187615
  76.3550631   7.4314532  20.2351079  77.5214382   7.3212250  18.7083675
  77.4985070   7.4199937  17.7565558  77.8315019   8.1677401  19.0300841
  80.1801760   9.3788405  22.8230290  81.1345014   9.3472347  22.7560221
  79.9814284   8.9179028  23.6380516  80.7701142   7.9489521  25.3901087
  81.5894031   8.4433599  25.4135925  81.0437950   7.0321489  25.3618655
  78.5351989  14.9208024  19.8400487  78.4006457  14.1608425  19.2738486
  78.1184051  15.6448924  19.3729276  81.6921115  15.8177341  20.0518930
  81.5753499  16.7622774  19.9497620  80.8713561  15.5150903  20.4404729
  88.5489449   9.3508502  31.5885425  89.4180608   9.5249154  31.2272060
  88.0696200  10.1702919  31.4661154  82.7175629  16.4705603  23.2674859
  83.6202876  16.5029213  23.5841353  82.4912999  15.5406054  23.2821194
  84.4729231  15.2236590  19.9284937  83.5224862  15.2238451  19.8149309
  84.7761717  14.4769324  19.4120972 100.2081924  21.0597128  20.9930700
 100.8460334  20.9403875  20.2894040 100.0902767  22.0077972  21.0518652
  97.0171631  21.0124556  20.9292224  96.6790142  20.8965621  20.0412759
  97.8861399  20.6115721  20.9093230  92.8758446  22.8660033  16.9189115
  92.3123311  22.7749970  16.1505403  92.7610841  22.0459937  17.3991608
  97.4991414  22.1659408  26.8878430  97.4880054  21.7712206  26.0158933
  97.6612053  21.4325481  27.4812201  90.4222878  24.3611224  19.7573336
  91.2144170  24.0202049  19.3419635  90.6619528  24.4706199  20.6775489
  92.3813632  23.6220137  12.6290714  93.1544508  23.0749125  12.4903590
  92.7339031  24.4864387  12.8405176  94.2198675  24.9496520  25.8357614
  93.9288541  25.8542151  25.7204280  94.8555659  24.9913047  26.5501683
  95.1454882  22.3273368  22.4258973  95.7418454  22.1029391  21.7115936
  95.2029853  21.5858114  23.0284421  99.1788560  24.6357935  22.8307407
  98.8789283  25.5382974  22.7223215  98.8339619  24.3690118  23.6828560
  92.6301041  21.0871732  18.8644112  91.7051538  20.9547946  19.0721804
  92.8785455  21.8665951  19.3614054  89.9909852  20.7305006  19.6987901
  90.1202234  20.9839485  20.6127313  89.3107304  21.3232714  19.3792556
  94.1609340  31.4002256  15.7978375  94.0833369  32.3510081  15.8766856
  93.5570983  31.0548128  16.4553301  96.6526569  18.5730121  28.4539742
  95.8759903  19.1324041  28.4442607  97.2917132  19.0586904  28.9754612
  94.9072942  21.3815574  28.0157709  95.6487626  21.9200618  27.7392533
  94.2009927  22.0081863  28.1729261 100.3828281  23.5244715  26.6129871
 100.7911637  23.0827125  25.8684503  99.6605543  22.9497342  26.8664063
  96.7359351  18.4617322  23.9863427  97.5820547  18.8856735  24.1298076
  96.6757989  17.8050946  24.6801991 100.7057096  24.0845905  20.3682159
 100.0765958  24.2491620  19.6658227 100.3182758  24.4987515  21.1393123
  99.8858797  16.1221690  25.6444601  99.6419729  16.8763751  25.1078877
 100.1618727  16.5007038  26.4791848 101.8397260  22.6660302  24.3221867
 102.0514155  23.3092062  23.6456248 101.7927008  21.8322619  23.8543797
  96.2585058  23.8220314  17.6332245  96.7223403  24.1008017  16.8436867
  95.9941856  22.9203758  17.4505335  93.1509139  23.3691795  20.5712008
  93.7210496  23.7979063  19.9329492  93.7417251  23.0874380  21.2696193
  93.6434305  18.5355223  28.8173019  93.0132966  19.2171503  29.0508416
  93.5370393  18.4238304  27.8726157  88.9379278  18.2027019  19.7438943
  88.1478332  18.4584547  19.2679054  89.4290525  19.0175356  19.8490984
 102.9543087  25.5432258  22.4944224 103.7760531  25.1412445  22.2126906
 102.9505490  25.4400492  23.4460340  90.8894023  18.5671598  16.7022420
  90.0925187  18.6790292  17.2205916  90.6619615  18.9058250  15.8363310
  96.7199691  25.0916301  24.6504935  96.7844123  25.5536708  25.4863106
  96.0110615  24.4613666  24.7787244  87.2216981  18.4557509  22.1753934
  87.4725019  19.3404519  22.4411510  87.7576529  18.2762111  21.4029026
  96.4347709  26.7584409  14.5183915  96.2993383  27.6035944  14.9468763
  96.9757521  26.9603686  13.7549849  92.9215048  12.8375988  31.1798270
  92.5281994  12.2842187  31.8545914  93.7381189  13.1486567  31.5704788
  89.8877106  24.2759847  15.0911840  90.4001627  25.0703097  15.2417405
  90.5399819  23.5786137  15.0245441  91.6971991  27.3925603  17.1734593
  91.8738619  28.3143568  16.9855577  92.4928824  27.0784022  17.6028973
  95.8383009  14.2533867  28.7718527  96.5792723  14.8541021  28.6922989
  96.0700932  13.5111505  28.2136569  90.9824347  19.4390235  27.0496756
  90.8677862  18.5375492  27.3503855  90.1268865  19.6853932  26.6981573
  98.0616185  27.3807975  28.6484257  97.6180039  26.5944354  28.3305161
  98.7233399  27.5687126  27.9828148  92.8203306  28.9103777  23.1744935
  93.3710731  28.7820840  22.4021929  91.9814782  29.2098666  22.8239828
 100.1597423  27.6610775  26.6765658 100.1415898  28.4819656  26.1845927
 101.0817343  27.5364850  26.9015799  96.6170477  25.1754904  27.5189167
  97.1498814  24.4143193  27.2888475  96.0884558  24.8828556  28.2613321
  87.8526023  22.6048501  15.8671410  88.6901245  23.0145509  15.6505118
  88.0304290  21.6647943  15.8371604  98.2502326  18.3283746  20.4437307
  97.3324887  18.5498693  20.2858995  98.6662469  18.4030056  19.5849015
 100.9816230  27.6716788  17.2607927 101.2739205  28.2321845  16.5420293
 101.4914851  27.9645349  18.0161087  87.8752194  19.9439216  16.5382144
  87.6776594  19.3508577  15.8133210  87.3198858  19.6391426  17.2558083
  95.8548918  19.8362323  18.6576737  95.9097527  18.8836159  18.5819214
  95.0440120  19.9921762  19.1418035  93.7941277  18.4539382  16.4167116
  92.9809143  18.7533553  16.8232308  94.2900272  18.0595071  17.1341598
  95.9449855  28.4497139  18.3501381  95.9026034  28.6757986  17.4209913
  96.8612554  28.2160514  18.4987182  99.3915489  18.9181207  25.2482010
  99.7464877  19.1452680  26.1076476 100.0387620  19.2499584  24.6259265
  93.2855352  16.0257738  22.0328351  93.9254732  15.8846497  21.3351314
  92.4532883  15.7392251  21.6566953  94.0615656  25.3260168  18.1463343
  94.8556255  24.8310489  17.9445918  93.3507348  24.7978032  17.7831049
  98.8810501  27.7078264  22.4975711  98.9347523  28.2769200  23.2653427
  98.0125282  27.8780149  22.1329748  90.3698420  19.4703250  14.2223096
  89.4396008  19.4087706  14.4393058  90.4655892  18.9479203  13.4259737
  90.2883969  15.9958063  16.8101338  90.5490786  16.9103396  16.7010498
  91.1101141  15.5282506  16.9597951  91.7608894  17.4095820  23.9800162
  92.4331947  17.2013182  23.3312811  90.9338680  17.2117906  23.5405395
 106.0098155  24.1499870  23.4975496 106.2034045  25.0545681  23.7434771
 105.9098773  23.6907290  24.3314081  97.6634466  14.0357761  25.9965823
  97.0162381  14.7347711  25.9030300  98.4335481  14.4693905  26.3642071
 101.0713264  24.3006613  29.0716376 100.9198770  24.0717165  28.1546460
 101.0617943  25.2577215  29.0847721  97.8398600  21.8738526  24.0562643
  98.7690660  22.0249686  23.8831610  97.4189630  21.9622547  23.2011289
  96.6386932  25.8989190  21.8261180  96.4998018  25.5307975  22.6987119
  95.8501528  26.4136830  21.6545138  97.2335084  30.9998287  13.1686717
  97.4086840  30.5286330  13.9832340  96.5467872  31.6264053  13.3967978
  98.1892147  25.2770793  19.2150018  97.8541980  25.2371563  20.1107668
  97.6896093  24.6115509  18.7420428  92.1636391  20.6838423  24.7402599
  92.0256189  19.9518662  25.3414138  93.0741315  20.5947323  24.4586787
  94.7918692  20.3958382  24.2286279  95.5018310  19.7551575  24.1872897
  94.7488000  20.6471277  25.1512460 102.7805471  27.3325736  27.1492858
 102.7218017  26.6484956  26.4823441 103.1824989  28.0744726  26.6973484
  93.5047626  17.3823600  26.0481919  92.9684983  16.9314339  26.7003515
  92.9164334  17.5169509  25.3052383  91.7996169  34.1487650  19.9426577
  92.0392768  34.7806174  20.6205596  90.9565366  33.7975690  20.2291936
 102.7822878  25.2965320  25.3806838 101.8949657  24.9591241  25.5033237
 103.3521429  24.5648351  25.6175603  84.4352025  21.6289411  18.7049889
  85.1223065  21.3151141  18.1170905  84.2800154  22.5330776  18.4317141
  89.2386747  16.5179608  23.1334913  89.1544936  15.9105278  22.3985323
  88.4169453  17.0088626  23.1344409  96.3124031  29.9566772  22.3468081
  96.2394203  30.7621744  22.8587386  95.8701424  30.1558738  21.5216103
  96.1013811  29.1938542  15.8570903  95.3181333  29.7360222  15.9509127
  96.8006556  29.7112522  16.2565144  98.7722715  29.8553606  24.5026240
  99.4850687  30.4901071  24.4302141  98.2812743  29.9517472  23.6866242
  93.8234628  27.6048050  25.3231811  94.5244088  28.2384532  25.4761205
  93.3529743  27.9462781  24.5627450 101.6235914  20.1592657  23.1484361
 100.9707364  20.4068564  22.4936814 102.0016294  19.3456795  22.8146838
  98.5843088  30.1952350  17.2512531  98.7665483  29.3774006  17.7140284
  99.4076074  30.4120042  16.8137421  98.9185254  29.1220535  14.5127580
  99.4473020  28.6112990  13.8997742  99.1813473  28.8063066  15.3773113
  97.6723487  20.9012468  29.6350398  96.9964124  20.8006597  30.3052773
  98.4951121  20.7451682  30.0986395  89.4202346  27.1384405  22.2562913
  90.0055783  26.3928092  22.3890817  89.2227185  27.4488361  23.1399577
  92.2741002  30.1735652  17.2725356  91.6051377  30.6581780  16.7889396
  92.1353871  30.4204872  18.1868734  84.0120001  19.7090005  20.9767356
  84.0504101  19.1753595  21.7704475  83.5060294  19.1825210  20.3578334
  96.4146270  32.2079395  23.8708014  96.9664578  32.3711017  24.6357099
  96.7552464  32.7983833  23.1988039  91.3910763  14.5554545  24.4729899
  91.4552090  15.4169376  24.0607296  91.3277884  13.9428547  23.7402257
  90.8663036  16.6277678  28.1202933  91.4935075  16.2454755  28.7340457
  90.0090955  16.4091880  28.4858625 101.2657144  27.0340653  29.7256668
 101.8097048  27.6470611  29.2311623 100.6843989  27.5920231  30.2423681
  87.6428579  18.4354107  14.0521288  87.9382020  17.5264785  13.9988342
  86.7416614  18.4141846  13.7302290  99.5514657  30.1561371  20.8571696
  99.4265797  29.3551111  20.3482642 100.2093749  30.6507564  20.3685666
  91.1722826  16.5110104  20.0348836  90.4509411  17.1246071  19.8956310
  91.9616081  17.0467868  19.9565482 101.6149566  27.9570391  22.4851246
 100.6679901  27.8375742  22.4129573 101.9632339  27.0692889  22.5677508
  93.9749139  13.8464530  26.3089488  94.4983541  14.0926827  27.0715797
  93.7561472  14.6784565  25.8892626  89.3716420  16.1168205  14.1760613
  89.0429126  15.2365584  13.9935719  89.7255791  16.0615873  15.0637002
  98.6195999  27.7523107  18.6855599  98.4720962  26.8239815  18.8663169
  99.4449493  27.7743198  18.2012674 102.2230121  28.5751666  19.7720471
 103.1476668  28.3694527  19.6344922 102.0545424  28.3268067  20.6809813
  95.1801684  14.7878225  23.9939159  94.8398505  13.9886038  24.3959839
  94.4740690  15.0879936  23.4215992  95.8318156  11.8727538  22.4466482
  96.6544225  11.3988016  22.3245372  96.0756220  12.6518021  22.9465168
  93.3556735  18.5646658  20.2558460  93.2101316  18.8786961  21.1482742
  92.8781938  19.1831559  19.7029359  95.2153118  15.5549206  20.3039350
  95.2014686  14.6590299  19.9671648  95.9325546  15.5619870  20.9377636
  97.0679248  15.9886546  22.3492477  96.8097026  16.9103617  22.3476808
  96.5364289  15.5916981  23.0392941  87.8302397  21.1052003  23.1946122
  87.2855865  21.8811811  23.3266396  88.7081747  21.4522807  23.0365243
  88.6168419  20.2321899  26.0876278  87.8750155  20.3804534  26.6740909
  88.2961163  20.4930164  25.2243028  96.5612081  29.7737877  25.8856668
  96.8699208  29.5287024  26.7579368  97.3587563  29.9784516  25.3975539
  96.5832694  31.9275787  18.1162045  96.1437684  31.4352165  18.8094902
  97.3340810  31.3848754  17.8754120  89.0625032  28.1187328  18.1186673
  89.8883052  27.8191099  17.7385317  88.7119084  27.3494950  18.5676462
  94.0306566  27.4713796  20.1884347  93.4086575  26.8084501  19.8886574
  94.7011433  27.4974928  19.5057994  87.2633638  26.0373654  19.0775607
  86.4265546  25.6095828  18.8959608  87.2357283  26.2306097  20.0146398
  94.1031093  15.9495584  29.7816853  94.1519249  16.8257707  29.3994622
  94.6453607  15.4072977  29.2088496 104.5885939  26.4936707  29.0617990
 103.7981483  26.4760846  28.5222489 104.3519293  27.0325001  29.8167026
 104.7083814  23.3429173  26.3750718 104.7581819  23.1779181  27.3166241
 104.5997737  22.4756432  25.9848599  93.5920073  26.0217719  13.6642807
  93.7408193  26.7053184  13.0109480  94.3986516  26.0022809  14.1792263
 101.9987576  19.3260101  27.6910025 102.8997439  19.1866566  27.3994023
 102.0735551  19.4914556  28.6308202  96.3330382  16.7026956  26.5363211
  95.4633691  16.9960522  26.2645800  96.5689862  17.2867401  27.2570475
 106.2102011  25.7626115  26.6192740 105.9186819  26.1256096  27.4556201
 105.5974142  25.0493123  26.4406072 104.4589199  20.8858730  25.0872798
 104.9343321  21.0786376  24.2791649 103.5354764  20.9417915  24.8416181
  91.3472706  22.0482897  14.6703876  91.1018747  21.1445227  14.8684086
  91.5168620  22.0500047  13.7283354  99.0369415  12.9206573  24.0528632
  99.5551359  13.6567600  23.7275120  98.6824548  13.2270566  24.8875391
 101.1805247  14.8480073  23.5060504 100.5855180  15.1285086  22.8106993
 100.8954944  15.3373974  24.2777245  97.3600969  23.9044408  29.9371264
  98.2803979  24.0823007  30.1311311  97.3250552  22.9600454  29.7850963
  86.5783134  19.0983002  18.8624539  86.2585918  18.2448310  18.5698913
  86.0316562  19.3131580  19.6182506  90.3563042  21.8145443  22.5794045
  90.5749051  22.7462551  22.5982079  90.7688816  21.4553418  23.3648849
  95.2290907  17.3878649  31.9696794  95.1287634  18.3373006  31.9008885
  95.0112449  17.0596888  31.0972864  86.4471394  22.7185914  20.8317660
  85.7534866  22.3039866  20.3187615  87.1944385  22.7606450  20.2351079
  95.0922177  20.8175788  30.7861856  94.6089259  21.6176148  30.9925745
  95.1783116  20.8283733  29.8329300  88.3608137  22.6504167  18.7083675
  88.3378825  22.7491855  17.7565558  88.6708773  23.4969318  19.0300841
  91.0195515  24.7080322  22.8230290  91.9738768  24.6764265  22.7560221
  90.8208038  24.2470946  23.6380516  91.6094897  23.2781438  25.3901087
  92.4287786  23.7725517  25.4135925  91.8831704  22.3613407  25.3618655
  89.3745743  30.2499942  19.8400487  89.2400211  29.4900343  19.2738486
  88.9577806  30.9740842  19.3729276  92.5314869  31.1469259  20.0518930
  92.4147253  32.0914691  19.9497620  91.7107315  30.8442820  20.4404729
  86.8629811  17.6119572  26.0893284  87.5088675  17.1018526  26.5780509
  86.6546962  18.3488254  26.6636710  99.3883203  24.6800420  31.5885425
 100.2574363  24.8541072  31.2272060  98.9089955  25.4994837  31.4661154
  93.5569383  31.7997521  23.2674859  94.4596630  31.8321131  23.5841353
  93.3306753  30.8697972  23.2821194  95.3122985  30.5528507  19.9284937
  94.3618616  30.5530369  19.8149309  95.6155471  29.8061242  19.4120972
  91.2027302  14.7587189  30.1868299  92.0658763  14.4023994  30.3971623
  90.6292713  14.4201084  30.8743703 111.0475679  36.3889046  20.9930700
 111.6854089  36.2695793  20.2894040 110.9296522  37.3369890  21.0518652
 107.8565385  36.3416474  20.9292224 107.5183897  36.2257539  20.0412759
 108.7255153  35.9407639  20.9093230 103.7152201  38.1951950  16.9189115
 103.1517066  38.1041887  16.1505403 103.6004596  37.3751855  17.3991608
 108.3385168  37.4951326  26.8878430 108.3273809  37.1004124  26.0158933
 108.5005808  36.7617398  27.4812201 101.2616633  39.6903142  19.7573336
 102.0537925  39.3493967  19.3419635 101.5013283  39.7998117  20.6775489
 103.2207387  38.9512055  12.6290714 103.9938263  38.4041042  12.4903590
 103.5732786  39.8156304  12.8405176 105.0592429  40.2788437  25.8357614
 104.7682295  41.1834068  25.7204280 105.6949414  40.3204965  26.5501683
 105.9848636  37.6565286  22.4258973 106.5812208  37.4321308  21.7115936
 106.0423608  36.9150031  23.0284421 110.0182314  39.9649853  22.8307407
 109.7183037  40.8674892  22.7223215 109.6733374  39.6982036  23.6828560
 103.4694796  36.4163650  18.8644112 102.5445292  36.2839864  19.0721804
 103.7179209  37.1957869  19.3614054 100.8303607  36.0596923  19.6987901
 100.9595988  36.3131402  20.6127313 100.1501058  36.6524631  19.3792556
 105.0003094  46.7294173  15.7978375 104.9227124  47.6801998  15.8766856
 104.3964738  46.3840046  16.4553301 107.4920324  33.9022039  28.4539742
 106.7153658  34.4615959  28.4442607 108.1310887  34.3878822  28.9754612
 105.7466696  36.7107492  28.0157709 106.4881381  37.2492536  27.7392533
 105.0403682  37.3373781  28.1729261 111.2222036  38.8536633  26.6129871
 111.6305392  38.4119043  25.8684503 110.4999297  38.2789260  26.8664063
 107.5753106  33.7909239  23.9863427 108.4214301  34.2148653  24.1298076
 107.5151744  33.1342864  24.6801991 111.5450850  39.4137823  20.3682159
 110.9159713  39.5783537  19.6658227 111.1576513  39.8279433  21.1393123
 110.7252551  31.4513608  25.6444601 110.4813483  32.2055668  25.1078877
 111.0012482  31.8298955  26.4791848 112.6791014  37.9952220  24.3221867
 112.8907909  38.6383980  23.6456248 112.6320762  37.1614537  23.8543797
 107.0978812  39.1512231  17.6332245 107.5617158  39.4299934  16.8436867
 106.8335610  38.2495676  17.4505335 103.9902893  38.6983713  20.5712008
 104.5604250  39.1270981  19.9329492 104.5811005  38.4166297  21.2696193
 104.4828060  33.8647140  28.8173019 103.8526721  34.5463421  29.0508416
 104.3764148  33.7530222  27.8726157  99.7773032  33.5318936  19.7438943
  98.9872086  33.7876465  19.2679054 100.2684280  34.3467274  19.8490984
 113.7936842  40.8724175  22.4944224 114.6154286  40.4704363  22.2126906
 113.7899245  40.7692410  23.4460340 101.7287778  33.8963516  16.7022420
 100.9318941  34.0082210  17.2205916 101.5013370  34.2350168  15.8363310
 107.5593445  40.4208219  24.6504935 107.6237878  40.8828626  25.4863106
 106.8504369  39.7905584  24.7787244  98.0610735  33.7849427  22.1753934
  98.3118774  34.6696437  22.4411510  98.5970284  33.6054028  21.4029026
 107.2741463  42.0876326  14.5183915 107.1387138  42.9327862  14.9468763
 107.8151276  42.2895604  13.7549849 103.7608803  28.1667906  31.1798270
 103.3675748  27.6134105  31.8545914 104.5774943  28.4778485  31.5704788
 100.7270860  39.6051764  15.0911840 101.2395381  40.3995015  15.2417405
 101.3793573  38.9078055  15.0245441 102.5365745  42.7217521  17.1734593
 102.7132373  43.6435485  16.9855577 103.3322579  42.4075940  17.6028973
 106.6776764  29.5825785  28.7718527 107.4186477  30.1832938  28.6922989
 106.9094686  28.8403423  28.2136569 101.8218102  34.7682152  27.0496756
 101.7071617  33.8667410  27.3503855 100.9662619  35.0145849  26.6981573
 108.9009939  42.7099893  28.6484257 108.4573794  41.9236271  28.3305161
 109.5627153  42.8979043  27.9828148 103.6597061  44.2395694  23.1744935
 104.2104486  44.1112758  22.4021929 102.8208537  44.5390583  22.8239828
 110.9991177  42.9902693  26.6765658 110.9809653  43.8111574  26.1845927
 111.9211098  42.8656768  26.9015799 107.4564232  40.5046822  27.5189167
 107.9892568  39.7435110  27.2888475 106.9278313  40.2120474  28.2613321
  98.6919777  37.9340419  15.8671410  99.5294999  38.3437427  15.6505118
  98.8698045  36.9939861  15.8371604 109.0896080  33.6575663  20.4437307
 108.1718641  33.8790610  20.2858995 109.5056224  33.7321974  19.5849015
 111.8209985  43.0008706  17.2607927 112.1132959  43.5613763  16.5420293
 112.3308605  43.2937267  18.0161087  98.7145948  35.2731134  16.5382144
  98.5170348  34.6800495  15.8133210  98.1592612  34.9683344  17.2558083
 106.6942672  35.1654240  18.6576737 106.7491282  34.2128077  18.5819214
 105.8833874  35.3213679  19.1418035 104.6335032  33.7831300  16.4167116
 103.8202897  34.0825471  16.8232308 105.1294026  33.3886989  17.1341598
 106.7843610  43.7789057  18.3501381 106.7419789  44.0049903  17.4209913
 107.7006309  43.5452432  18.4987182 110.2309244  34.2473125  25.2482010
 110.5858631  34.4744598  26.1076476 110.8781375  34.5791501  24.6259265
 104.1249107  31.3549656  22.0328351 104.7648486  31.2138415  21.3351314
 103.2926637  31.0684169  21.6566953 104.9009411  40.6552086  18.1463343
 105.6950009  40.1602406  17.9445918 104.1901103  40.1269949  17.7831049
 109.7204255  43.0370182  22.4975711 109.7741277  43.6061118  23.2653427
 108.8519036  43.2072067  22.1329748 101.2092174  34.7995168  14.2223096
 100.2789762  34.7379623  14.4393058 101.3049646  34.2771121  13.4259737
 101.1277723  31.3249981  16.8101338 101.3884540  32.2395314  16.7010498
 101.9494895  30.8574423  16.9597951 102.6002648  32.7387738  23.9800162
 103.2725702  32.5305100  23.3312811 101.7732435  32.5409824  23.5405395
 116.8491910  39.4791788  23.4975496 117.0427800  40.3837599  23.7434771
 116.7492528  39.0199207  24.3314081 108.5028220  29.3649679  25.9965823
 107.8556135  30.0639628  25.9030300 109.2729236  29.7985823  26.3642071
 111.9107018  39.6298531  29.0716376 111.7592525  39.4009083  28.1546460
 111.9011698  40.5869132  29.0847721 108.6792355  37.2030444  24.0562643
 109.6084415  37.3541603  23.8831610 108.2583385  37.2914464  23.2011289
 107.4780687  41.2281108  21.8261180 107.3391772  40.8599892  22.6987119
 106.6895283  41.7428747  21.6545138 108.0728839  46.3290205  13.1686717
 108.2480594  45.8578248  13.9832340 107.3861627  46.9555971  13.3967978
 109.0285902  40.6062711  19.2150018 108.6935734  40.5663481  20.1107668
 108.5289847  39.9407427  18.7420428 103.0030146  36.0130341  24.7402599
 102.8649944  35.2810580  25.3414138 103.9135069  35.9239241  24.4586787
 105.6312446  35.7250300  24.2286279 106.3412065  35.0843492  24.1872897
 105.5881755  35.9763195  25.1512460 113.6199225  42.6617653  27.1492858
 113.5611771  41.9776874  26.4823441 114.0218743  43.4036643  26.6973484
 104.3441380  32.7115518  26.0481919 103.8078737  32.2606256  26.7003515
 103.7558089  32.8461427  25.3052383 102.6389924  49.4779567  19.9426577
 102.8786522  50.1098091  20.6205596 101.7959120  49.1267607  20.2291936
 113.6216632  40.6257237  25.3806838 112.7343411  40.2883159  25.5033237
 114.1915183  39.8940269  25.6175603  95.2745779  36.9581329  18.7049889
  95.9616819  36.6443059  18.1170905  95.1193908  37.8622694  18.4317141
 100.0780502  31.8471526  23.1334913  99.9938690  31.2397195  22.3985323
  99.2563208  32.3380544  23.1344409 107.1517786  45.2858690  22.3468081
 107.0787957  46.0913661  22.8587386 106.7095179  45.4850656  21.5216103
 106.9407565  44.5230460  15.8570903 106.1575087  45.0652140  15.9509127
 107.6400311  45.0404439  16.2565144 109.6116469  45.1845524  24.5026240
 110.3244441  45.8192989  24.4302141 109.1206498  45.2809390  23.6866242
 104.6628383  42.9339967  25.3231811 105.3637842  43.5676450  25.4761205
 104.1923498  43.2754699  24.5627450 112.4629669  35.4884575  23.1484361
 111.8101119  35.7360482  22.4936814 112.8410049  34.6748713  22.8146838
 109.4236843  45.5244268  17.2512531 109.6059237  44.7065924  17.7140284
 110.2469829  45.7411960  16.8137421 109.7579008  44.4512453  14.5127580
 110.2866775  43.9404908  13.8997742 110.0207228  44.1354983  15.3773113
 108.5117242  36.2304386  29.6350398 107.8357879  36.1298515  30.3052773
 109.3344876  36.0743599  30.0986395 100.2596101  42.4676322  22.2562913
 100.8449538  41.7220010  22.3890817 100.0620939  42.7780279  23.1399577
 103.1134756  45.5027570  17.2725356 102.4445131  45.9873697  16.7889396
 102.9747626  45.7496790  18.1868734  94.8513756  35.0381922  20.9767356
  94.8897855  34.5045513  21.7704475  94.3454048  34.5117128  20.3578334
 107.2540025  47.5371313  23.8708014 107.8058333  47.7002935  24.6357099
 107.5946218  48.1275751  23.1988039 102.2304518  29.8846463  24.4729899
 102.2945844  30.7461294  24.0607296 102.1671638  29.2720465  23.7402257
 101.7056790  31.9569596  28.1202933 102.3328829  31.5746673  28.7340457
 100.8484709  31.7383797  28.4858625 112.1050899  42.3632571  29.7256668
 112.6490803  42.9762529  29.2311623 111.5237744  42.9212149  30.2423681
  98.4822333  33.7646025  14.0521288  98.7775774  32.8556703  13.9988342
  97.5810369  33.7433764  13.7302290 110.3908412  45.4853289  20.8571696
 110.2659551  44.6843029  20.3482642 111.0487503  45.9799482  20.3685666
 102.0116580  31.8402021  20.0348836 101.2903166  32.4537989  19.8956310
 102.8009836  32.3759786  19.9565482 112.4543320  43.2862309  22.4851246
 111.5073656  43.1667660  22.4129573 112.8026093  42.3984807  22.5677508
 104.8142894  29.1756448  26.3089488 105.3377295  29.4218744  27.0715797
 104.5955227  30.0076483  25.8892626 100.2110175  31.4460122  14.1760613
  99.8822881  30.5657501  13.9935719 100.5649545  31.3907791  15.0637002
 109.4589754  43.0815025  18.6855599 109.3114716  42.1531732  18.8663169
 110.2843247  43.1035116  18.2012674 113.0623875  43.9043584  19.7720471
 113.9870423  43.6986445  19.6344922 112.8939179  43.6559985  20.6809813
 106.0195439  30.1170143  23.9939159 105.6792259  29.3177956  24.3959839
 105.3134445  30.4171854  23.4215992 106.6711911  27.2019455  22.4466482
 107.4937980  26.7279933  22.3245372 106.9149974  27.9809939  22.9465168
 104.1950489  33.8938576  20.2558460 104.0495070  34.2078879  21.1482742
 103.7175693  34.5123476  19.7029359 106.0546872  30.8841124  20.3039350
 106.0408441  29.9882217  19.9671648 106.7719300  30.8911788  20.9377636
 107.9073003  31.3178464  22.3492477 107.6490781  32.2395535  22.3476808
 107.3758043  30.9208899  23.0392941  98.6696151  36.4343920  23.1946122
  98.1249620  37.2103728  23.3266396  99.5475501  36.7814725  23.0365243
  99.4562173  35.5613817  26.0876278  98.7143909  35.7096452  26.6740909
  99.1354918  35.8222082  25.2243028 107.4005836  45.1029795  25.8856668
 107.7092962  44.8578942  26.7579368 108.1981318  45.3076433  25.3975539
 107.4226448  47.2567704  18.1162045 106.9831438  46.7644083  18.8094902
 108.1734565  46.7140672  17.8754120  99.9018787  43.4479245  18.1186673
 100.7276807  43.1483017  17.7385317  99.5512839  42.6786868  18.5676462
 104.8700320  42.8005713  20.1884347 104.2480329  42.1376418  19.8886574
 105.5405187  42.8266845  19.5057994  98.1027392  41.3665572  19.0775607
  97.2659300  40.9387746  18.8959608  98.0751037  41.5598015  20.0146398
 104.9424848  31.2787501  29.7816853 104.9913003  32.1549624  29.3994622
 105.4847362  30.7364895  29.2088496 115.4279693  41.8228625  29.0617990
 114.6375237  41.8052764  28.5222489 115.1913048  42.3616918  29.8167026
 115.5477568  38.6721091  26.3750718 115.5975573  38.5071099  27.3166241
 115.4391492  37.8048350  25.9848599 104.4313827  41.3509637  13.6642807
 104.5801947  42.0345101  13.0109480 105.2380271  41.3314727  14.1792263
 112.8381331  34.6552019  27.6910025 113.7391194  34.5158484  27.3994023
 112.9129305  34.8206474  28.6308202 107.1724136  32.0318874  26.5363211
 106.3027445  32.3252440  26.2645800 107.4083616  32.6159319  27.2570475
 117.0495765  41.0918033  26.6192740 116.7580574  41.4548013  27.4556201
 116.4367896  40.3785041  26.4406072 115.2982953  36.2150647  25.0872798
 115.7737075  36.4078294  24.2791649 114.3748519  36.2709833  24.8416181
 102.1866460  37.3774814  14.6703876 101.9412502  36.4737144  14.8684086
 102.3562375  37.3791965  13.7283354 109.8763170  28.2498491  24.0528632
 110.3945114  28.9859518  23.7275120 109.5218303  28.5562484  24.8875391
 112.0199002  30.1771991  23.5060504 111.4248934  30.4577003  22.8106993
 111.7348699  30.6665891  24.2777245 108.1994724  39.2336326  29.9371264
 109.1197733  39.4114925  30.1311311 108.1644307  38.2892372  29.7850963
  97.4176889  34.4274920  18.8624539  97.0979673  33.5740228  18.5698913
  96.8710317  34.6423498  19.6182506 101.1956796  37.1437361  22.5794045
 101.4142806  38.0754469  22.5982079 101.6082570  36.7845335  23.3648849
 106.0684661  32.7170567  31.9696794 105.9681388  33.6664924  31.9008885
 105.8506204  32.3888805  31.0972864  97.2865149  38.0477831  20.8317660
  96.5928620  37.6331784  20.3187615  98.0338140  38.0898368  20.2351079
 105.9315932  36.1467705  30.7861856 105.4483013  36.9468066  30.9925745
 106.0176871  36.1575650  29.8329300  99.2001891  37.9796085  18.7083675
  99.1772579  38.0783772  17.7565558  99.5102528  38.8261236  19.0300841
 101.8589269  40.0372240  22.8230290 102.8132523  40.0056182  22.7560221
 101.6601793  39.5762864  23.6380516 102.4488651  38.6073356  25.3901087
 103.2681540  39.1017435  25.4135925 102.7225459  37.6905324  25.3618655
 100.2139498  45.5791860  19.8400487 100.0793966  44.8192260  19.2738486
  99.7971560  46.3032759  19.3729276 103.3708624  46.4761177  20.0518930
 103.2541008  47.4206609  19.9497620 102.5501070  46.1734738  20.4404729
  97.7023565  32.9411490  26.0893284  98.3482429  32.4310444  26.5780509
  97.4940717  33.6780172  26.6636710 110.2276958  40.0092338  31.5885425
 111.0968117  40.1832990  31.2272060 109.7483709  40.8286754  31.4661154
 104.3963138  47.1289439  23.2674859 105.2990385  47.1613049  23.5841353
 104.1700508  46.1989889  23.2821194 106.1516740  45.8820425  19.9284937
 105.2012371  45.8822287  19.8149309 106.4549226  45.1353160  19.4120972
 102.0421056  30.0879107  30.1868299 102.9052518  29.7315912  30.3971623
 101.4686467  29.7493002  30.8743703 114.5545955  53.5243868  16.9189115
 113.9910820  53.4333805  16.1505403 114.4398350  52.7043772  17.3991608
 112.1010387  55.0195060  19.7573336 112.8931679  54.6785884  19.3419635
 112.3407037  55.1290035  20.6775489 114.0601141  54.2803973  12.6290714
 114.8332017  53.7332960  12.4903590 114.4126540  55.1448222  12.8405176
 115.8986184  55.6080355  25.8357614 115.6076050  56.5125986  25.7204280
 116.5343168  55.6496883  26.5501683 116.8242391  52.9857204  22.4258973
 117.4205963  52.7613226  21.7115936 116.8817362  52.2441949  23.0284421
 114.3088550  51.7455567  18.8644112 113.3839047  51.6131782  19.0721804
 114.5572964  52.5249787  19.3614054 111.6697361  51.3888841  19.6987901
 111.7989743  51.6423320  20.6127313 110.9894813  51.9816549  19.3792556
 115.8396849  62.0586091  15.7978375 115.7620878  63.0093916  15.8766856
 115.2358492  61.7131963  16.4553301 116.5860451  52.0399410  28.0157709
 117.3275135  52.5784454  27.7392533 115.8797436  52.6665698  28.1729261
 114.8296648  54.0275630  20.5712008 115.3998005  54.4562899  19.9329492
 115.4204760  53.7458215  21.2696193 115.3221814  49.1939058  28.8173019
 114.6920475  49.8755339  29.0508416 115.2157902  49.0822140  27.8726157
 110.6166787  48.8610854  19.7438943 109.8265841  49.1168382  19.2679054
 111.1078034  49.6759192  19.8490984 112.5681532  49.2255433  16.7022420
 111.7712696  49.3374127  17.2205916 112.3407124  49.5642085  15.8363310
 108.9004490  49.1141344  22.1753934 109.1512528  49.9988354  22.4411510
 109.4364038  48.9345946  21.4029026 114.6002557  43.4959824  31.1798270
 114.2069503  42.9426022  31.8545914 115.4168697  43.8070402  31.5704788
 111.5664615  54.9343682  15.0911840 112.0789135  55.7286932  15.2417405
 112.2187328  54.2369972  15.0245441 113.3759500  58.0509438  17.1734593
 113.5526128  58.9727403  16.9855577 114.1716333  57.7367857  17.6028973
 117.5170518  44.9117703  28.7718527 118.2580232  45.5124856  28.6922989
 117.7488441  44.1695341  28.2136569 112.6611856  50.0974070  27.0496756
 112.5465371  49.1959327  27.3503855 111.8056374  50.3437767  26.6981573
 114.4990815  59.5687612  23.1744935 115.0498240  59.4404675  22.4021929
 113.6602291  59.8682501  22.8239828 109.5313532  53.2632336  15.8671410
 110.3688754  53.6729345  15.6505118 109.7091799  52.3231778  15.8371604
 109.5539703  50.6023052  16.5382144 109.3564103  50.0092412  15.8133210
 108.9986367  50.2975262  17.2558083 117.5336427  50.4946158  18.6576737
 117.5885036  49.5419994  18.5819214 116.7227629  50.6505597  19.1418035
 115.4728786  49.1123218  16.4167116 114.6596652  49.4117388  16.8232308
 115.9687781  48.7178907  17.1341598 114.9642861  46.6841573  22.0328351
 115.6042241  46.5430332  21.3351314 114.1320392  46.3976087  21.6566953
 115.7403165  55.9844004  18.1463343 116.5343764  55.4894324  17.9445918
 115.0294857  55.4561867  17.7831049 112.0485929  50.1287085  14.2223096
 111.1183517  50.0671541  14.4393058 112.1443401  49.6063038  13.4259737
 111.9671478  46.6541898  16.8101338 112.2278295  47.5687232  16.7010498
 112.7888650  46.1866341  16.9597951 113.4396403  48.0679655  23.9800162
 114.1119456  47.8597018  23.3312811 112.6126189  47.8701741  23.5405395
 113.8423900  51.3422258  24.7402599 113.7043698  50.6102497  25.3414138
 114.7528824  51.2531159  24.4586787 116.4706201  51.0542218  24.2286279
 117.1805819  50.4135410  24.1872897 116.4275509  51.3055113  25.1512460
 115.1835135  48.0407436  26.0481919 114.6472492  47.5898174  26.7003515
 114.5951843  48.1753344  25.3052383 113.4783678  64.8071485  19.9426577
 113.7180277  65.4390009  20.6205596 112.6352875  64.4559525  20.2291936
 106.1139534  52.2873247  18.7049889 106.8010574  51.9734977  18.1170905
 105.9587663  53.1914611  18.4317141 110.9174256  47.1763443  23.1334913
 110.8332445  46.5689113  22.3985323 110.0956962  47.6672462  23.1344409
 117.9911540  60.6150607  22.3468081 117.9181712  61.4205579  22.8587386
 117.5488933  60.8142573  21.5216103 115.5022137  58.2631885  25.3231811
 116.2031597  58.8968368  25.4761205 115.0317252  58.6046616  24.5627450
 111.0989855  57.7968240  22.2562913 111.6843292  57.0511928  22.3890817
 110.9014694  58.1072197  23.1399577 113.9528511  60.8319487  17.2725356
 113.2838886  61.3165615  16.7889396 113.8141380  61.0788708  18.1868734
 105.6907510  50.3673840  20.9767356 105.7291610  49.8337431  21.7704475
 105.1847803  49.8409046  20.3578334 113.0698272  45.2138381  24.4729899
 113.1339599  46.0753212  24.0607296 113.0065393  44.6012382  23.7402257
 112.5450545  47.2861513  28.1202933 113.1722584  46.9038591  28.7340457
 111.6878464  47.0675715  28.4858625 109.3216088  49.0937942  14.0521288
 109.6169529  48.1848621  13.9988342 108.4204123  49.0725682  13.7302290
 112.8510335  47.1693939  20.0348836 112.1296920  47.7829907  19.8956310
 113.6403590  47.7051704  19.9565482 115.6536648  44.5048365  26.3089488
 116.1771050  44.7510662  27.0715797 115.4348981  45.3368400  25.8892626
 111.0503929  46.7752040  14.1760613 110.7216635  45.8949419  13.9935719
 111.4043300  46.7199709  15.0637002 116.8589193  45.4462060  23.9939159
 116.5186014  44.6469874  24.3959839 116.1528199  45.7463771  23.4215992
 115.0344244  49.2230494  20.2558460 114.8888824  49.5370797  21.1482742
 114.5569447  49.8415394  19.7029359 116.8940627  46.2133042  20.3039350
 116.8802195  45.3174135  19.9671648 117.6113055  46.2203705  20.9377636
 109.5089906  51.7635838  23.1946122 108.9643374  52.5395646  23.3266396
 110.3869256  52.1106642  23.0365243 110.2955928  50.8905734  26.0876278
 109.5537664  51.0388370  26.6740909 109.9748672  51.1514000  25.2243028
 110.7412541  58.7771163  18.1186673 111.5670561  58.4774935  17.7385317
 110.3906593  58.0078785  18.5676462 115.7094075  58.1297631  20.1884347
 115.0874084  57.4668336  19.8886574 116.3798942  58.1558763  19.5057994
 108.9421147  56.6957489  19.0775607 108.1053055  56.2679664  18.8959608
 108.9144792  56.8889933  20.0146398 115.7818602  46.6079419  29.7816853
 115.8306758  47.4841542  29.3994622 116.3241116  46.0656812  29.2088496
 115.2707582  56.6801554  13.6642807 115.4195702  57.3637019  13.0109480
 116.0774025  56.6606645  14.1792263 118.0117891  47.3610792  26.5363211
 117.1421200  47.6544358  26.2645800 118.2477371  47.9451237  27.2570475
 113.0260215  52.7066732  14.6703876 112.7806256  51.8029062  14.8684086
 113.1956129  52.7083883  13.7283354 108.2570643  49.7566837  18.8624539
 107.9373427  48.9032146  18.5698913 107.7104071  49.9715416  19.6182506
 112.0350551  52.4729278  22.5794045 112.2536560  53.4046386  22.5982079
 112.4476324  52.1137253  23.3648849 116.9078416  48.0462484  31.9696794
 116.8075143  48.9956841  31.9008885 116.6899958  47.7180723  31.0972864
 108.1258903  53.3769749  20.8317660 107.4322375  52.9623702  20.3187615
 108.8731894  53.4190285  20.2351079 116.7709686  51.4759623  30.7861856
 116.2876768  52.2759983  30.9925745 116.8570625  51.4867568  29.8329300
 110.0395646  53.3088003  18.7083675 110.0166334  53.4075690  17.7565558
 110.3496282  54.1553154  19.0300841 112.6983024  55.3664158  22.8230290
 113.6526277  55.3348100  22.7560221 112.4995547  54.9054782  23.6380516
 113.2882406  53.9365274  25.3901087 114.1075295  54.4309353  25.4135925
 113.5619213  53.0197242  25.3618655 111.0533252  60.9083777  19.8400487
 110.9187720  60.1484178  19.2738486 110.6365315  61.6324677  19.3729276
 114.2102378  61.8053094  20.0518930 114.0934762  62.7498527  19.9497620
 113.3894824  61.5026656  20.4404729 108.5417320  48.2703408  26.0893284
 109.1876183  47.7602362  26.5780509 108.3334471  49.0072089  26.6636710
 115.2356892  62.4581356  23.2674859 116.1384139  62.4904966  23.5841353
 115.0094262  61.5281807  23.2821194 116.9910494  61.2112343  19.9284937
 116.0406125  61.2114204  19.8149309 117.2942980  60.4645077  19.4120972
 112.8814811  45.4171025  30.1868299 113.7446272  45.0607830  30.3971623
 112.3080222  45.0784920  30.8743703 116.9533288  67.6165164  18.7049889
 117.6404328  67.3026894  18.1170905 116.7981417  68.5206529  18.4317141
 116.5301265  65.6965758  20.9767356 116.5685364  65.1629349  21.7704475
 116.0241557  65.1700963  20.3578334   2.6511528  52.5454847  98.4957353
   1.8975236  51.9762245  98.3401357   2.7859069  52.5117511  99.4427987
   3.0617943  52.7030457 101.2277597   3.7921332  52.4415745 101.7885300
   2.4524889  51.9659179 101.2679665   1.1433240  50.8438319 101.8252048
   0.4166404  50.7094284 101.2168540   0.7280527  51.1515148 102.6308766
   1.0682108  50.3716373  97.9528901   0.5081666  50.4409562  98.7260463
   0.4625611  50.1957357  97.2328397   2.6538126  67.0472886 100.6458857
   3.2916536  66.9279634  99.9422197   2.5358969  67.9953730 100.7046809
   2.2079395  64.7724340  97.7212065   2.9942484  64.3543763  97.3702482
   2.4718099  65.6770432  97.8893713   2.3789472  70.2097191  92.4200722
   1.7435305  70.2831817  93.1321626   2.0486879  70.7990789  91.7419801
   7.6087822  64.7099574  98.6245043   8.3412994  64.1398790  98.8582873
   6.8527178  64.3221174  99.0651549   5.1313242  58.4221148 103.0839652
   4.7996567  59.2916559 102.8600867   4.5358856  58.1057432 103.7633682
   5.0241906  63.1416234 100.1633002   4.1158783  63.0731642  99.8691763
   4.9729501  63.6188179 100.9914827   6.8903552  61.3432672 101.9410876
   6.2477932  61.6365205 101.2950670   6.3858481  61.2285593 102.7464072
   4.5443716  65.0895845  92.6296735   5.4561572  65.3223232  92.4544433
   4.0353363  65.6732890  92.0671814   3.1513298  70.0721664 100.0210316
   2.5222160  70.2367378  99.3186384   2.7638960  70.4863273 100.7921281
   7.0302530  71.0076102  97.3754680   6.3453568  71.3875003  96.8251714
   7.1146379  71.6171428  98.1086628   2.3314999  62.1097448 105.2972758
   2.0875931  62.8639509 104.7607034   2.6074929  62.4882796 106.1320005
   4.2853462  68.6536061 103.9750024   4.4970357  69.2967821 103.2984405
   4.2383210  67.8198377 103.5071954   1.8879691  61.2653881 100.8786596
   1.0264170  61.5635135 101.1703334   1.9142125  61.4824280  99.9467629
   5.3999289  71.5308016 102.1472381   6.2216733  71.1288203 101.8655063
   5.3961692  71.4276250 103.0988497  13.4905283  67.8746765  98.4957353
  12.7368991  67.3054163  98.3401357  13.6252824  67.8409429  99.4427987
   2.2296374  56.2690729 102.7010965   1.8860644  57.1592370 102.6250076
   2.5975337  56.0792386 101.8380550   2.1946657  66.2599340  91.2083401
   1.6793280  67.0303945  91.4471788   1.9223965  65.5864476  91.8316462
   1.3092915  58.6395384 100.6660199   0.8057710  58.6025519  99.8528004
   1.6023521  59.5488127 100.7256855   7.1680931  69.0131695  93.1436574
   6.3910374  68.6742854  92.6991736   7.8472412  69.0184318  92.4691539
   1.9832960  64.1326432  93.0343182   1.6783096  64.4472581  93.8853325
   2.9363402  64.2107852  93.0770515   5.4072238  68.4865676  99.8003182
   4.7495912  69.1764937  99.8883311   6.2112637  68.8762108 100.1437168
   4.2177697  66.8410048  97.8507124   4.7309578  67.4740040  98.3528833
   4.8678921  66.2411244  97.4850484   1.4800071  76.8194373  90.6067795
   0.8061770  77.1226070  91.2152753   1.8665893  77.6223453  90.2573252
   1.4793575  65.7150920  95.2268145   2.2265394  66.2272317  94.9175267
   1.7485165  65.3934972  96.0872538   4.9839493  71.8216050  95.9786266
   4.5301820  70.9806960  96.0351457   4.3533460  72.4577448  96.3161047
   3.9272413  62.7508036  97.2086934   3.1895169  62.2385422  97.5397176
   4.1799186  62.3108418  96.3970211   3.4272432  73.6592547  96.9136085
   3.7195407  74.2197604  96.1948450   3.9371053  73.9521108  97.6689244
   4.0284040  55.5284288  97.8028703   4.3342917  54.6681651  97.5154618
   4.7536645  56.1201908  97.6027697   1.8371691  64.9056965 104.9010167
   2.1921079  65.1328438 105.7604633   2.4843822  65.2375342 104.2787422
   7.5669428  68.0275401  95.6059496   7.4287327  68.2176997  94.6780685
   7.2105647  68.7894784  96.0627547   7.5938808  70.0951928 100.6170767
   8.0275314  70.0027217 101.4653821   8.3070388  70.0709429  99.9790783
   8.4554357  70.1375629 103.1503653   8.6490247  71.0421439 103.3962928
   8.3554975  69.6783048 103.9842238   3.5707541  68.6102586  89.1415235
   2.9536712  67.8849414  89.0448288   3.1024029  69.3711946  88.7982309
   1.8566663  60.9908930  98.1533265   2.3535363  60.2378892  97.8334335
   1.0853645  61.0273247  97.5876474   9.7096420  66.6949295  99.7951557
   9.6986297  67.5774011  99.4245490   8.8413800  66.3420846  99.6006094
   2.9396444  69.7480617  95.7271689   2.0052722  69.8682080  95.5576393
   3.1173112  68.8453084  95.4631698   6.3268995  65.5897936  96.2621723
   6.7929447  66.4225928  96.1882025   6.7776496  65.1242918  96.9666981
   4.3945226  71.9341758  93.2607875   4.6705070  71.8198352  94.1701749
   3.5249725  71.5359243  93.2220048   4.2985658  57.9578523 100.3012624
   3.3848738  58.1882750 100.4694831   4.7278759  58.0416967 101.1526656
   4.0692116  66.1468415 102.8012518   3.4163567  66.3944323 102.1464971
   4.4472496  65.3332554 102.4674995   1.0299290  76.1828109  96.9040688
   1.2121685  75.3649764  97.3668441   1.8532276  76.3995801  96.4665578
   1.3641456  75.1096294  94.1655737   1.8929222  74.5988748  93.5525899
   1.6269675  74.7938824  95.0301270   1.0652201  73.7398866  98.3383756
   0.9177164  72.8115573  98.5191326   1.8905695  73.7618956  97.8540831
   4.6686323  74.5627424  99.4248628   5.5932870  74.3570286  99.2873079
   4.5001626  74.3143826 100.3337970   1.0613715  61.5936703  93.3315873
   1.2777330  62.4761341  93.0304701   0.5807783  61.2022917  92.6021515
   4.4581639  75.0813092  94.7810720   4.6318517  74.5159514  94.0284572
   4.9510530  75.8813987  94.5990210  10.3121030  67.8449515  96.4001020
  10.7552176  67.0956840  96.0020143   9.4347541  67.8359651  96.0174752
   5.4456812  74.3979856  91.8807618   6.1407716  75.0186549  92.0994933
   5.7879962  73.5475207  92.1559996   7.3448235  71.8479562  93.4094949
   7.8699559  72.1866835  92.6844269   7.2570587  70.9126577  93.2258083
   7.1540016  69.3304932 106.0278875   7.2038021  69.1654939 106.9694398
   7.0453939  68.4632191 105.6376756   9.8553895  69.3154753  98.7923467
  10.6900786  69.7544557  98.9561027   9.9913024  68.8393406  97.9731713
   6.9045401  66.8734488 104.7400955   7.3799523  67.0662134 103.9319806
   5.9810966  66.9293674 104.4944339   1.4825617  58.9082332 103.7056789
   2.0007561  59.6443358 103.3803277   1.1280750  59.2146325 104.5403548
   1.7338212  55.3282614  99.2257685   2.0139965  54.6605803  99.8518112
   2.5188819  55.5211710  98.7132349   5.6047070  63.7500248 102.9729260
   6.5564493  63.8498346 102.9941485   5.4350520  62.9578517 103.4827345
   3.6261449  60.8355831 103.1588661   3.0311382  61.1160844 102.4635150
   3.3411146  61.3249732 103.9305403   2.7568940  74.7878758  91.9191294
   3.6899613  74.7224320  92.1224169   2.6692153  75.6235025  91.4605827
   5.3856957  74.1044628  88.8795242   5.3070588  73.7704492  89.7730999
   6.2066623  74.5966396  88.8786714   8.0835148  66.9706368 102.0871560
   8.0511468  66.0322368 102.2731244   8.6935771  67.0490404 101.3537385
   8.2329636  63.7617411 102.1329843   7.7168685  62.9775868 101.9459772
   9.1169585  63.4336128 102.2976363   5.8940363  57.5058427  98.0925656
   5.6965184  57.1973515  98.9768988   6.5040069  58.2320066  98.2223586
  13.9011698  68.0322375 101.2277597  14.6315086  67.7707663 101.7885300
  13.2918643  67.2951097 101.2679665  11.9826995  66.1730237 101.8252048
  11.2560158  66.0386202 101.2168540  11.5674282  66.4807066 102.6308766
   1.6514010  57.3867334  95.8422187   2.2045048  57.8062787  96.5012210
   1.8884096  56.4603082  95.8845143   5.0292817  59.4967859  95.3500852
   4.4491486  60.1552663  94.9678904   4.7628750  58.6745203  94.9388269
   3.4796383  58.8972916  97.5522172   3.9796162  59.0089451  96.7436491
   4.1231991  58.5933969  98.1922980   3.8117695  61.6567949  94.4057200
   2.9243550  61.9417600  94.1877395   4.2271684  61.4961713  93.5584477
   7.1632231  61.6814470  98.1211539   7.9392621  62.1710923  98.3936156
   6.4380365  62.1072524  98.5783409   9.6004790  62.3942089  99.1785480
  10.1949280  62.1537825  98.4678788   9.6731373  61.6749220  99.8059016
   2.9560908  71.4212624  88.5005220   3.6596759  71.6262626  89.1162875
   2.2323557  71.9889386  88.7654303   3.7858719  67.1722485  94.6207490
   3.7293920  67.6291037  93.7815122   4.3387061  66.4113170  94.4430333
   7.5963525  62.9612217  95.4457610   7.3400459  62.5608853  96.2765817
   6.9716393  63.6756011  95.3207749  11.9075862  65.7008290  97.9528901
  11.3475420  65.7701480  98.7260463  11.3019366  65.5249275  97.2328397
   4.8647606  71.8595153  90.5503680   5.6993210  71.4276352  90.3681155
   4.7031949  71.6877167  91.4780574   4.5193498  68.3627266  91.9160019
   4.4642302  68.1971538  90.9748463   3.8939553  69.0703299  92.0722209
   1.6441743  54.4578152  95.7491274   0.8774139  53.9036639  95.8947957
   2.0552448  54.5300021  96.6105426  13.4931881  82.3764804 100.6458857
  14.1310291  82.2571551  99.9422197  13.3752724  83.3245648 100.7046809
  10.3021587  82.3292232 100.5820381   9.9640099  82.2133297  99.6940916
  11.1711355  81.9283397 100.5621387   6.1608403  84.1827709  96.5717272
   5.5973268  84.0917646  95.8033560   6.0460798  83.3627613  97.0519765
  11.7407962  87.8498676  91.8831737  11.0895941  88.4352757  91.4965751
  12.5352324  88.3804871  91.9426775   5.6663589  84.9387814  92.2818872
   6.4394465  84.3916801  92.1431747   6.0188988  85.8032063  92.4933333
   8.0029867  81.0980480  89.9137321   8.2555387  80.5762001  89.1520784
   7.0654426  80.9346625  90.0164005  13.0473149  80.1016258  97.7212065
  13.8336239  79.6835681  97.3702482  13.3111854  81.0062350  97.8893713
  13.2183227  85.5389108  92.4200722  12.5829060  85.6123735  93.1321626
  12.8880633  86.1282707  91.7419801  18.4481577  80.0391491  98.6245043
  19.1806748  79.4690708  98.8582873  17.6920932  79.6513092  99.0651549
   7.7226155  83.0008586  92.1161696   7.6062413  82.3253489  92.7842781
   7.8328415  82.5140960  91.2993849  10.0657696  82.4618733  95.8208386
   9.7015903  81.9349354  96.5321307  10.9224812  82.0717202  95.6474871
  15.9706997  73.7513065 103.0839652  15.6390322  74.6208476 102.8600867
  15.3752610  73.4349349 103.7633682   9.7063183  77.4908632  90.8169734
   9.8737586  78.3588869  91.1840205   9.5160352  77.6535914  89.8931023
  15.8635660  78.4708151 100.1633002  14.9552538  78.4023560  99.8691763
  15.8123256  78.9480096 100.9914827   9.6852404  79.9466290  91.8016401
   9.5652029  80.3923341  92.6401881   8.9904992  80.2951608  91.2429939
  17.7297307  76.6724590 101.9410876  17.0871687  76.9657123 101.2950670
  17.2252235  76.5577510 102.7464072  15.3837470  80.4187763  92.6296735
  16.2955326  80.6515150  92.4544433  14.8747117  81.0024807  92.0671814
  13.9907053  85.4013582 100.0210316  13.3615915  85.5659296  99.3186384
  13.6032715  85.8155191 100.7921281  17.8696284  86.3368019  97.3754680
  17.1847323  86.7166921  96.8251714  17.9540134  86.9463346  98.1086628
  13.1708753  77.4389366 105.2972758  12.9269685  78.1931427 104.7607034
  13.4468684  77.8174714 106.1320005  15.1247216  83.9827978 103.9750024
  15.3364111  84.6259738 103.2984405  15.0776964  83.1490295 103.5071954
  12.7273445  76.5945799 100.8786596  11.8657924  76.8927053 101.1703334
  12.7535880  76.8116198  99.9467629   9.5435014  85.1387990  97.2860402
  10.0073360  85.4175693  96.4965024   9.2791813  84.2371434  97.1033492
   8.4803900  81.2611142  94.0949967   9.1827944  81.7132186  94.5623893
   8.1484529  80.6194961  94.7229860  16.2393044  86.8599934 102.1472381
  17.0610488  86.4580121 101.8655063  16.2355447  86.7568168 103.0988497
   4.1743980  79.8839274  96.3550577   3.3775143  79.9957968  96.8734073
   3.9469572  80.2225926  95.4891468  24.3299037  83.2038682  98.4957353
  23.5762745  82.6346080  98.3401357  24.4646578  83.1701347  99.4427987
   9.7197665  88.0752085  94.1712072   9.5843340  88.9203620  94.5996920
  10.2607478  88.2771362  93.4078006  13.0690129  71.5982646 102.7010965
  12.7254398  72.4884288 102.6250076  13.4369091  71.4084304 101.8380550
  13.0340411  81.5891258  91.2083401  12.5187035  82.3595862  91.4471788
  12.7617720  80.9156394  91.8316462  10.6187522  76.4340958  96.2668639
   9.7629119  76.0447809  96.0874278  11.0314474  76.5132919  95.4068424
  12.1486669  73.9687302 100.6660199  11.6451465  73.9317437  99.8528004
  12.4417276  74.8780044 100.7256855   8.3929555  74.0526031  99.6726380
   9.2582552  73.8568840  99.3132270   8.4607064  73.8236383 100.5995737
  18.0074686  84.3423612  93.1436574  17.2304128  84.0034772  92.6991736
  18.6866166  84.3476235  92.4691539  12.8226715  79.4618350  93.0343182
  12.5176850  79.7764499  93.8853325  13.7757157  79.5399770  93.0770515
  11.2673146  85.6208573  94.6836136  10.7394508  84.8861333  94.3709373
  10.7660649  86.3983249  94.4376104  16.2465992  83.8157593  99.8003182
  15.5889667  84.5056855  99.8883311  17.0506392  84.2054025 100.1437168
   5.9991874  76.2828239  97.0442747   6.5735626  76.0603421  96.3115940
   6.5862856  76.3516934  97.7971349  15.0571451  82.1701966  97.8507124
  15.5703333  82.8031958  98.3528833  15.7072675  81.5703162  97.4850484
   6.3261461  78.3132700  91.0638632   5.4898773  78.6507387  91.3847907
   6.1866231  78.1781680  90.1265769   8.3014542  73.1569488  95.7717817
   7.6478954  72.8418505  95.1474431   8.2595016  72.5345229  96.4977640
   9.4125747  83.4388783  87.6871109   8.5052808  83.2078037  87.8862258
   9.9096779  82.6426403  87.8745090  12.3193825  92.1486290  90.6067795
  11.6455524  92.4517987  91.2152753  12.7059647  92.9515371  90.2573252
  11.5352282  79.6451422 100.0965464  10.6174843  79.8666369  99.9387152
  11.9512426  79.7197732  99.2377172  12.3187330  81.0442837  95.2268145
  13.0659149  81.5564235  94.9175267  12.5878919  80.7226890  96.0872538
  10.5913980  83.5401378  92.2095099   9.6825199  83.2560411  92.3067569
  10.6209064  83.9600457  91.3498406  15.8233247  87.1507968  95.9786266
  15.3695575  86.3098878  96.0351457  15.1927214  87.7869366  96.3161047
  14.7666167  78.0799954  97.2086934  14.0288924  77.5677340  97.5397176
  15.0192941  77.6400335  96.3970211  14.2666187  88.9884464  96.9136085
  14.5589161  89.5489521  96.1948450  14.7764807  89.2813025  97.6689244
  14.8677794  70.8576206  97.8028703  15.1736671  69.9973569  97.5154618
  15.5930399  71.4493826  97.6027697   9.1398874  81.1529999  98.3104894
   9.1947484  80.2003835  98.2347371   8.3290076  81.3089438  98.7946193
  10.2890068  85.0810122  89.5483177   9.8509498  84.3645981  89.0888815
  11.0300509  85.3086237  88.9868269   7.0791234  79.7707058  96.0695273
   6.2659100  80.0701229  96.4760465   7.5750228  79.3762747  96.7869755
  12.6765446  80.2348883 104.9010167  13.0314833  80.4620356 105.7604633
  13.3237577  80.5667260 104.2787422  18.4063183  83.3567319  95.6059496
  18.2681081  83.5468915  94.6780685  18.0499401  84.1186702  96.0627547
   6.5705309  77.3425414 101.6856508   7.2104688  77.2014173 100.9879471
   5.7382839  77.0559927 101.3095110  18.4332562  85.4243846 100.6170767
  18.8669069  85.3319135 101.4653821  19.1464143  85.4001346  99.9790783
   3.6548376  80.7870926  93.8751253   2.7245964  80.7255382  94.0921215
   3.7505848  80.2646879  93.0787894   3.5733925  77.3125739  96.4629495
   3.8340742  78.2271072  96.3538655   4.3951097  76.8450182  96.6126108
  19.2948112  85.4667546 103.1503653  19.4884002  86.3713357 103.3962928
  19.1948730  85.0074966 103.9842238  10.9484423  75.3525437 105.6493980
  10.3012338  76.0515387 105.5558457  11.7185438  75.7861581 106.0170228
  10.5185041  92.3165963  92.8214874  10.6936796  91.8454006  93.6360497
   9.8317829  92.9431729  93.0496135  11.4742104  86.5938469  98.8678175
  11.1391936  86.5539239  99.7635825  10.9746049  85.9283185  98.3948586
  14.4101295  83.9394503  89.1415235  13.7930466  83.2141332  89.0448288
  13.9417784  84.7003864  88.7982309   6.1999841  78.1579928  88.2636539
   5.3229308  78.0368729  87.8998786   6.6757594  77.3666006  88.0115428
   9.3863767  90.5106218  95.5099060   8.6031289  91.0527898  95.6037284
  10.0856513  91.0280198  95.9093301  12.6960417  76.3200848  98.1533265
  13.1929117  75.5670810  97.8334335  11.9247399  76.3565164  97.5876474
  20.5490175  82.0241213  99.7951557  20.5380051  82.9065929  99.4245490
  19.6807554  81.6712764  99.6006094  13.7790198  85.0772535  95.7271689
  12.8446477  85.1973997  95.5576393  13.9566867  84.1745002  95.4631698
   9.2795386  78.4618231  97.8804950   8.9093174  77.9089271  98.5685855
   9.7754479  77.8576364  97.3279950  17.1662750  80.9189854  96.2621723
  17.6323202  81.7517846  96.1882025  17.6170250  80.4534836  96.9666981
  15.2338981  87.2633675  93.2607875  15.5098825  87.1490270  94.1701749
  14.3643479  86.8651160  93.2220048  15.1379412  73.2870441 100.3012624
  14.2242492  73.5174668 100.4694831  15.5672514  73.3708885 101.1526656
  14.9085871  81.4760333 102.8012518  14.2557321  81.7236240 102.1464971
  15.2866251  80.6624471 102.4674995  11.8693045  91.5120026  96.9040688
  12.0515439  90.6941682  97.3668441  12.6926031  91.7287718  96.4665578
  12.2035210  90.4388211  94.1655737  12.7322977  89.9280666  93.5525899
  12.4663430  90.1230742  95.0301270   2.6566377  77.4335881  93.8288770
   2.3279083  76.5533260  93.6463876   3.0105747  77.3783549  94.7165159
  11.9045956  89.0690783  98.3383756  11.7570918  88.1407491  98.5191326
  12.7299449  89.0910874  97.8540831   5.7708200  77.7208850  94.1964248
   6.1104272  78.2494772  93.4742856   6.2180320  78.0589257  94.9722814
  15.5080077  89.8919342  99.4248628  16.4326625  89.6862203  99.2873079
  15.3395381  89.6435743 100.3337970   8.4651641  76.1045901 103.6467316
   8.1248461  75.3053714 104.0487996   7.7590647  76.4047612 103.0744149
   9.1168113  73.1895214 102.0994639   9.9394182  72.7155692 101.9773529
   9.3606176  73.9685697 102.5993325   7.7576347  76.2183472  92.3957541
   8.4784710  76.5964725  91.8921257   7.1341651  76.9372349  92.4992518
  11.9007470  76.9228621  93.3315873  12.1171084  77.8053259  93.0304701
  11.4201537  76.5314834  92.6021515   8.5003074  76.8716882  99.9567507
   8.4864643  75.9757976  99.6199805   9.2175502  76.8787546 100.5905793
  10.3529205  77.3054222 102.0020634  10.0946983  78.2271293 102.0004965
   9.8214245  76.9084657 102.6921099  15.2975394  90.4105010  94.7810720
  15.4712271  89.8451432  94.0284572  15.7904285  91.2105904  94.5990210
   7.9039970  75.7531262  95.2255077   8.0255881  74.8247909  95.4245965
   7.6142013  75.7669948  94.3133393  10.7731161  73.4386173  98.3621797
  10.7952857  73.5025506  97.4073777  11.1899220  72.5990682  98.5562303
  21.1514785  83.1741432  96.4001020  21.5945931  82.4248758  96.0020143
  20.2741295  83.1651569  96.0174752  16.2850566  89.7271774  91.8807618
  16.9801471  90.3478467  92.0994933  16.6273716  88.8767125  92.1559996
  18.1841989  87.1771479  93.4094949  18.7093313  87.5158752  92.6844269
  18.0964342  86.2418495  93.2258083  17.9933770  84.6596849 106.0278875
  18.0431775  84.4946857 106.9694398  17.8847694  83.7924109 105.6376756
   6.8770029  87.3385395  93.3170964   7.0258149  88.0220860  92.6637637
   7.6836473  87.3190485  93.8320420  20.6947650  84.6446671  98.7923467
  21.5294541  85.0836475  98.9561027  20.8306778  84.1685324  97.9731713
  17.7439155  82.2026406 104.7400955  18.2193277  82.3954052 103.9319806
  16.8204721  82.2585591 104.4944339   4.6322662  83.3650573  94.3232033
   4.3868704  82.4612903  94.5212243   4.8018577  83.3667723  93.3811511
  12.3219372  74.2374249 103.7056789  12.8401316  74.9735276 103.3803277
  11.9674505  74.5438242 104.5403548   3.9018310  79.0978930  91.8218195
   3.2087555  79.1723285  91.1658231   3.6570062  78.3339274  92.3439712
  12.5731966  70.6574532  99.2257685  12.8533720  69.9897721  99.8518112
  13.3582573  70.8503627  98.7132349  10.3765435  89.8333526  90.7882712
   9.8039402  90.4523713  90.3353184  10.9498228  90.3832887  91.3222634
  16.4440824  79.0792166 102.9729260  17.3958247  79.1790263 102.9941485
  16.2744275  78.2870434 103.4827345  14.4655204  76.1647749 103.1588661
  13.8705136  76.4452762 102.4635150  14.1804901  76.6541650 103.9305403
  13.5962694  90.1170676  91.9191294  14.5293368  90.0516237  92.1224169
  13.5085907  90.9526943  91.4605827  16.2250711  89.4336546  88.8795242
  16.1464343  89.0996410  89.7730999  17.0460378  89.9258314  88.8786714
  18.9228902  82.2998285 102.0871560  18.8905222  81.3614286 102.2731244
  19.5329526  82.3782322 101.3537385  10.7612233  81.1694338  88.1298764
  11.7071338  81.0400546  88.1987182  10.3826478  80.4309000  88.6068192
  19.0723391  79.0909329 102.1329843  18.5562439  78.3067785 101.9459772
  19.9563339  78.7628045 102.2976363  16.7334118  72.8350344  98.0925656
  16.5358939  72.5265433  98.9768988  17.3433823  73.5611983  98.2223586
  24.7405452  83.3614292 101.2277597  25.4708841  83.0999580 101.7885300
  24.1312398  82.6243014 101.2679665  22.8220749  81.5022155 101.8252048
  22.0953913  81.3678120 101.2168540  22.4068036  81.8098983 102.6308766
   8.9455150  79.0944315  88.0653649   8.0386606  78.7977427  88.1416363
   9.2231131  78.7974133  87.1987936  10.5617216  73.6381204  94.2197891
   9.7517944  73.2928289  94.5953137  11.2501633  73.3288748  94.8085502
  12.4907764  72.7159251  95.8422187  13.0438803  73.1354705  96.5012210
  12.7277851  71.7894999  95.8845143   7.7153935  75.9531250  88.2065629
   8.5773099  76.2786148  88.4661446   7.9004279  75.1662746  87.6938694
  15.8686571  74.8259776  95.3500852  15.2885240  75.4844580  94.9678904
  15.6022504  74.0037121  94.9388269  14.3190138  74.2264834  97.5522172
  14.8189916  74.3381369  96.7436491  14.9625746  73.9225887  98.1922980
  14.6511449  76.9859867  94.4057200  13.7637304  77.2709517  94.1877395
  15.0665438  76.8253630  93.5584477  18.0025986  77.0106388  98.1211539
  18.7786376  77.5002840  98.3936156  17.2774120  77.4364442  98.5783409
  20.4398544  77.7234007  99.1785480  21.0343035  77.4829743  98.4678788
  20.5125128  77.0041138  99.8059016  13.7954663  86.7504541  88.5005220
  14.4990513  86.9554544  89.1162875  13.0717312  87.3181303  88.7654303
  14.6252473  82.5014403  94.6207490  14.5687675  82.9582954  93.7815122
  15.1780816  81.7405087  94.4430333  18.4357279  78.2904135  95.4457610
  18.1794213  77.8900770  96.2765817  17.8110147  79.0047929  95.3207749
  22.7469617  81.0300208  97.9528901  22.1869175  81.0993397  98.7260463
  22.1413120  80.8541193  97.2328397  15.7041360  87.1887071  90.5503680
  16.5386964  86.7568269  90.3681155  15.5425703  87.0169084  91.4780574
  15.3587252  83.6919184  91.9160019  15.3036056  83.5263455  90.9748463
  14.7333308  84.3995217  92.0722209   8.6683378  73.1927293  91.4945338
   8.6562048  74.1369133  91.6513608   9.5606800  73.0097438  91.2004799
  12.4835497  69.7870070  95.7491274  11.7167893  69.2328556  95.8947957
  12.8946202  69.8591938  96.6105426  24.3325635  97.7056722 100.6458857
  24.9704045  97.5863469  99.9422197  24.2146478  98.6537566 100.7046809
  21.1415342  97.6584150 100.5820381  20.8033853  97.5425215  99.6940916
  22.0105110  97.2575315 100.5621387  17.0002157  99.5119626  96.5717272
  16.4367022  99.4209563  95.8033560  16.8854552  98.6919531  97.0519765
  22.5801716 103.1790594  91.8831737  21.9289696 103.7644674  91.4965751
  23.3746079 103.7096789  91.9426775  16.5057343 100.2679731  92.2818872
  17.2788219  99.7208718  92.1431747  16.8582742 101.1323981  92.4933333
  18.8423621  96.4272397  89.9137321  19.0949142  95.9053919  89.1520784
  17.9048180  96.2638543  90.0164005  23.8866904  95.4308176  97.7212065
  24.6729993  95.0127599  97.3702482  24.1505608  96.3354268  97.8893713
  24.0576981 100.8681026  92.4200722  23.4222814 100.9415652  93.1321626
  23.7274388 101.4574625  91.7419801  29.2875331  95.3683409  98.6245043
  30.0200503  94.7982626  98.8582873  28.5314687  94.9805009  99.0651549
  18.5619910  98.3300503  92.1161696  18.4456168  97.6545407  92.7842781
  18.6722170  97.8432877  91.2993849  20.9051451  97.7910650  95.8208386
  20.5409658  97.2641271  96.5321307  21.7618567  97.4009119  95.6474871
  26.8100751  89.0804983 103.0839652  26.4784076  89.9500394 102.8600867
  26.2146365  88.7641267 103.7633682  20.5456938  92.8200550  90.8169734
  20.7131340  93.6880786  91.1840205  20.3554107  92.9827832  89.8931023
  26.7029415  93.8000069 100.1633002  25.7946292  93.7315478  99.8691763
  26.6517010  94.2772014 100.9914827  20.5246159  95.2758208  91.8016401
  20.4045784  95.7215258  92.6401881  19.8298747  95.6243525  91.2429939
  28.5691061  92.0016508 101.9410876  27.9265441  92.2949041 101.2950670
  28.0645990  91.8869428 102.7464072  26.2231225  95.7479681  92.6296735
  27.1349081  95.9807067  92.4544433  25.7140872  96.3316725  92.0671814
  24.8300807 100.7305499 100.0210316  24.2009669 100.8951213  99.3186384
  24.4426469 101.1447109 100.7921281  28.7090039 101.6659937  97.3754680
  28.0241077 102.0458838  96.8251714  28.7933888 102.2755264  98.1086628
  24.0102508  92.7681284 105.2972758  23.7663440  93.5223344 104.7607034
  24.2862438  93.1466631 106.1320005  25.9640971  99.3119896 103.9750024
  26.1757866  99.9551656 103.2984405  25.9170719  98.4782213 103.5071954
  23.5667199  91.9237717 100.8786596  22.7051679  92.2218970 101.1703334
  23.5929634  92.1408116  99.9467629  20.3828769 100.4679907  97.2860402
  20.8467114 100.7467610  96.4965024  20.1185567  99.5663352  97.1033492
  19.3197655  96.5903060  94.0949967  20.0221698  97.0424103  94.5623893
  18.9878283  95.9486879  94.7229860  27.0786798 102.1891851 102.1472381
  27.9004242 101.7872039 101.8655063  27.0749201 102.0860086 103.0988497
  15.0137734  95.2131192  96.3550577  14.2168898  95.3249886  96.8734073
  14.7863327  95.5517844  95.4891468  35.1692792  98.5330600  98.4957353
  34.4156500  97.9637998  98.3401357  35.3040333  98.4993264  99.4427987
  20.5591420 103.4044002  94.1712072  20.4237094 104.2495538  94.5996920
  21.1001232 103.6063280  93.4078006  23.9083883  86.9274564 102.7010965
  23.5648153  87.8176206 102.6250076  24.2762846  86.7376222 101.8380550
  23.8734166  96.9183175  91.2083401  23.3580789  97.6887780  91.4471788
  23.6011474  96.2448311  91.8316462  21.4581277  91.7632876  96.2668639
  20.6022873  91.3739726  96.0874278  21.8708229  91.8424837  95.4068424
  22.9880424  89.2979219 100.6660199  22.4845219  89.2609354  99.8528004
  23.2811030  90.2071962 100.7256855  19.2323309  89.3817949  99.6726380
  20.0976306  89.1860758  99.3132270  19.3000818  89.1528301 100.5995737
  28.8468440  99.6715530  93.1436574  28.0697883  99.3326689  92.6991736
  29.5259921  99.6768153  92.4691539  23.6620469  94.7910267  93.0343182
  23.3570605  95.1056417  93.8853325  24.6150911  94.8691687  93.0770515
  22.1066901 100.9500491  94.6836136  21.5788262 100.2153250  94.3709373
  21.6054404 101.7275167  94.4376104  27.0859747  99.1449511  99.8003182
  26.4283421  99.8348773  99.8883311  27.8900146  99.5345943 100.1437168
  16.8385628  91.6120157  97.0442747  17.4129380  91.3895338  96.3115940
  17.4256611  91.6808851  97.7971349  25.8965206  97.4993884  97.8507124
  26.4097087  98.1323876  98.3528833  26.5466430  96.8995079  97.4850484
  17.1655216  93.6424618  91.0638632  16.3292528  93.9799305  91.3847907
  17.0259985  93.5073598  90.1265769  19.1408296  88.4861406  95.7717817
  18.4872709  88.1710423  95.1474431  19.0988770  87.8637146  96.4977640
  20.2519501  98.7680701  87.6871109  19.3446563  98.5369954  87.8862258
  20.7490533  97.9718320  87.8745090  23.1587580 107.4778208  90.6067795
  22.4849279 107.7809905  91.2152753  23.5453402 108.2807288  90.2573252
  22.3746037  94.9743339 100.0965464  21.4568598  95.1958286  99.9387152
  22.7906180  95.0489650  99.2377172  23.1581084  96.3734755  95.2268145
  23.9052903  96.8856152  94.9175267  23.4272674  96.0518808  96.0872538
  21.4307735  98.8693296  92.2095099  20.5218954  98.5852329  92.3067569
  21.4602818  99.2892374  91.3498406  26.6627002 102.4799885  95.9786266
  26.2089329 101.6390795  96.0351457  26.0320969 103.1161284  96.3161047
  25.6059921  93.4091871  97.2086934  24.8682678  92.8969258  97.5397176
  25.8586695  92.9692253  96.3970211  25.1059941 104.3176382  96.9136085
  25.3982916 104.8781439  96.1948450  25.6158562 104.6104943  97.6689244
  25.7071549  86.1868123  97.8028703  26.0130426  85.3265487  97.5154618
  26.4324154  86.7785744  97.6027697  19.9792629  96.4821916  98.3104894
  20.0341238  95.5295753  98.2347371  19.1683831  96.6381355  98.7946193
  21.1283822 100.4102039  89.5483177  20.6903252  99.6937898  89.0888815
  21.8694263 100.6378154  88.9868269  17.9184988  95.0998976  96.0695273
  17.1052854  95.3993147  96.4760465  18.4143983  94.7054665  96.7869755
  23.5159200  95.5640801 104.9010167  23.8708588  95.7912274 105.7604633
  24.1631331  95.8959177 104.2787422  29.2456937  98.6859237  95.6059496
  29.1074836  98.8760832  94.6780685  28.8893156  99.4478619  96.0627547
  17.4099063  92.6717332 101.6856508  18.0498443  92.5306091 100.9879471
  16.5776594  92.3851845 101.3095110  29.2726317 100.7535764 100.6170767
  29.7062823 100.6611053 101.4653821  29.9857897 100.7293264  99.9790783
  14.4942131  96.1162844  93.8751253  13.5639719  96.0547299  94.0921215
  14.5899603  95.5938797  93.0787894  14.4127680  92.6417657  96.4629495
  14.6734497  93.5562990  96.3538655  15.2344852  92.1742099  96.6126108
  30.1341866 100.7959464 103.1503653  30.3277756 101.7005275 103.3962928
  30.0342484 100.3366883 103.9842238  21.7878177  90.6817355 105.6493980
  21.1406092  91.3807304 105.5558457  22.5579192  91.1153499 106.0170228
  21.3578795 107.6457881  92.8214874  21.5330551 107.1745924  93.6360497
  20.6711583 108.2723647  93.0496135  22.3135858 101.9230387  98.8678175
  21.9785691 101.8831157  99.7635825  21.8139804 101.2575103  98.3948586
  25.2495050  99.2686421  89.1415235  24.6324221  98.5433249  89.0448288
  24.7811538 100.0295781  88.7982309  17.0393596  93.4871845  88.2636539
  16.1623062  93.3660646  87.8998786  17.5151349  92.6957924  88.0115428
  20.2257522 105.8398136  95.5099060  19.4425044 106.3819816  95.6037284
  20.9250267 106.3572115  95.9093301  23.5354172  91.6492765  98.1533265
  24.0322872  90.8962728  97.8334335  22.7641153  91.6857082  97.5876474
  31.3883929  97.3533131  99.7951557  31.3773806  98.2357846  99.4245490
  30.5201309  97.0004682  99.6006094  24.6183953 100.4064452  95.7271689
  23.6840231 100.5265915  95.5576393  24.7960621  99.5036919  95.4631698
  20.1189141  93.7910148  97.8804950  19.7486928  93.2381189  98.5685855
  20.6148233  93.1868282  97.3279950  28.0056504  96.2481772  96.2621723
  28.4716956  97.0809763  96.1882025  28.4564005  95.7826753  96.9666981
  26.0732735 102.5925593  93.2607875  26.3492579 102.4782188  94.1701749
  25.2037234 102.1943078  93.2220048  25.9773167  88.6162359 100.3012624
  25.0636247  88.8466586 100.4694831  26.4066268  88.7000803 101.1526656
  25.7479625  96.8052251 102.8012518  25.0951076  97.0528158 102.1464971
  26.1260005  95.9916389 102.4674995  22.7086799 106.8411944  96.9040688
  22.8909194 106.0233600  97.3668441  23.5319785 107.0579636  96.4665578
  23.0428965 105.7680129  94.1655737  23.5716731 105.2572584  93.5525899
  23.3057184 105.4522659  95.0301270  11.7672290  95.0813701  93.7049445
  12.0625731  94.1724379  93.6516499  10.8660325  95.0601440  93.3830447
  13.4960131  92.7627798  93.8288770  13.1672837  91.8825177  93.6463876
  13.8499502  92.7075467  94.7165159  22.7439710 104.3982701  98.3383756
  22.5964673 103.4699408  98.5191326  23.5693204 104.4202792  97.8540831
  16.6101954  93.0500768  94.1964248  16.9498027  93.5786689  93.4742856
  17.0574075  93.3881174  94.9722814  26.3473832 105.2211260  99.4248628
  27.2720379 105.0154121  99.2873079  26.1789135 104.9727661 100.3337970
  19.3045395  91.4337819 103.6467316  18.9642216  90.6345632 104.0487996
  18.5984402  91.7339530 103.0744149  19.9561867  88.5187131 102.0994639
  20.7787936  88.0447609 101.9773529  20.1999931  89.2977615 102.5993325
  18.5970102  91.5475390  92.3957541  19.3178464  91.9256642  91.8921257
  17.9735406  92.2664267  92.4992518  22.7401224  92.2520539  93.3315873
  22.9564839  93.1345177  93.0304701  22.2595292  91.8606752  92.6021515
  19.3396829  92.2008800  99.9567507  19.3258397  91.3049893  99.6199805
  20.0569257  92.2079464 100.5905793  21.1922959  92.6346140 102.0020634
  20.9340737  93.5563211 102.0004965  20.6608000  92.2376575 102.6921099
  26.1369148 105.7396927  94.7810720  26.3106026 105.1743350  94.0284572
  26.6298039 106.5397822  94.5990210  18.7433725  91.0823180  95.2255077
  18.8649636  90.1539826  95.4245965  18.4535767  91.0961866  94.3133393
  21.6124915  88.7678091  98.3621797  21.6346612  88.8317424  97.4073777
  22.0292974  87.9282599  98.5562303  31.9908539  98.5033350  96.4001020
  32.4339685  97.7540675  96.0020143  31.1135050  98.4943487  96.0174752
  27.1244321 105.0563692  91.8807618  27.8195225 105.6770384  92.0994933
  27.4667471 104.2059043  92.1559996  29.0235744 102.5063397  93.4094949
  29.5487068 102.8450670  92.6844269  28.9358096 101.5710412  93.2258083
  28.8327525  99.9888767 106.0278875  28.8825530  99.8238775 106.9694398
  28.7241448  99.1216026 105.6376756  17.7163784 102.6677313  93.3170964
  17.8651904 103.3512777  92.6637637  18.5230227 102.6482403  93.8320420
  31.5341404  99.9738588  98.7923467  32.3688295 100.4128393  98.9561027
  31.6700533  99.4977242  97.9731713  28.5832910  97.5318323 104.7400955
  29.0587032  97.7245970 103.9319806  27.6598475  97.5877509 104.4944339
  15.4716417  98.6942490  94.3232033  15.2262459  97.7904820  94.5212243
  15.6412331  98.6959641  93.3811511  23.1613126  89.5666167 103.7056789
  23.6795070  90.3027194 103.3803277  22.8068259  89.8730160 104.5403548
  14.7412064  94.4270848  91.8218195  14.0481309  94.5015203  91.1658231
  14.4963816  93.6631192  92.3439712  23.4125721  85.9866449  99.2257685
  23.6927474  85.3189638  99.8518112  24.1976328  86.1795545  98.7132349
  21.2159189 105.1625443  90.7882712  20.6433156 105.7815630  90.3353184
  21.7891983 105.7124805  91.3222634  27.2834579  94.4084083 102.9729260
  28.2352002  94.5082181 102.9941485  27.1138029  93.6162352 103.4827345
  25.3048958  91.4939667 103.1588661  24.7098891  91.7744679 102.4635150
  25.0198655  91.9833568 103.9305403  24.4356449 105.4462593  91.9191294
  25.3687122 105.3808155  92.1224169  24.3479662 106.2818860  91.4605827
  27.0644466 104.7628464  88.8795242  26.9858097 104.4288327  89.7730999
  27.8854132 105.2550232  88.8786714  29.7622657  97.6290203 102.0871560
  29.7298977  96.6906204 102.2731244  30.3723280  97.7074240 101.3537385
  21.6005988  96.4986256  88.1298764  22.5465092  96.3692464  88.1987182
  21.2220233  95.7600918  88.6068192  29.9117145  94.4201247 102.1329843
  29.3956194  93.6359703 101.9459772  30.7957094  94.0919963 102.2976363
  27.5727872  88.1642262  98.0925656  27.3752693  87.8557350  98.9768988
  28.1827578  88.8903901  98.2223586  35.5799207  98.6906210 101.2277597
  36.3102595  98.4291498 101.7885300  34.9706152  97.9534932 101.2679665
  33.6614504  96.8314073 101.8252048  32.9347667  96.6970037 101.2168540
  33.2461791  97.1390901 102.6308766  19.7848905  94.4236232  88.0653649
  18.8780360  94.1269345  88.1416363  20.0624886  94.1266051  87.1987936
  21.4010971  88.9673122  94.2197891  20.5911699  88.6220207  94.5953137
  22.0895387  88.6580666  94.8085502  23.3301519  88.0451169  95.8422187
  23.8832557  88.4646622  96.5012210  23.5671605  87.1186917  95.8845143
  18.5547689  91.2823168  88.2065629  19.4166853  91.6078066  88.4661446
  18.7398034  90.4954664  87.6938694  26.7080326  90.1551694  95.3500852
  26.1278995  90.8136498  94.9678904  26.4416259  89.3329039  94.9388269
  25.1583892  89.5556752  97.5522172  25.6583671  89.6673286  96.7436491
  25.8019500  89.2517805  98.1922980  25.4905204  92.3151785  94.4057200
  24.6031059  92.6001435  94.1877395  25.9059193  92.1545548  93.5584477
  28.8419740  92.3398305  98.1211539  29.6180130  92.8294758  98.3936156
  28.1167874  92.7656360  98.5783409  31.2792299  93.0525925  99.1785480
  31.8736789  92.8121661  98.4678788  31.3518882  92.3333055  99.8059016
  24.6348417 102.0796459  88.5005220  25.3384267 102.2846462  89.1162875
  23.9111066 102.6473221  88.7654303  25.4646228  97.8306320  94.6207490
  25.4081429  98.2874872  93.7815122  26.0174570  97.0697005  94.4430333
  29.2751034  93.6196052  95.4457610  29.0187968  93.2192688  96.2765817
  28.6503902  94.3339846  95.3207749  33.5863371  96.3592126  97.9528901
  33.0262929  96.4285315  98.7260463  32.9806875  96.1833110  97.2328397
  26.5435115 102.5178988  90.5503680  27.3780719 102.0860187  90.3681155
  26.3819458 102.3461002  91.4780574  26.1981007  99.0211102  91.9160019
  26.1429811  98.8555373  90.9748463  25.5727062  99.7287135  92.0722209
  19.5077132  88.5219211  91.4945338  19.4955802  89.4661051  91.6513608
  20.4000554  88.3389356  91.2004799  23.3229252  85.1161987  95.7491274
  22.5561648  84.5620474  95.8947957  23.7339957  85.1883856  96.6105426
  34.7260658 110.7600093  97.7212065  35.5123748 110.3419517  97.3702482
  34.9899363 111.6646186  97.8893713  40.1269085 110.6975327  98.6245043
  40.8594257 110.1274543  98.8582873  39.3708441 110.3096927  99.0651549
  37.6494506 104.4096901 103.0839652  37.3177831 105.2792312 102.8600867
  37.0540119 104.0933185 103.7633682  31.3850692 108.1492468  90.8169734
  31.5525095 109.0172704  91.1840205  31.1947861 108.3119749  89.8931023
  37.5423169 109.1291987 100.1633002  36.6340046 109.0607395  99.8691763
  37.4910765 109.6063932 100.9914827  31.3639913 110.6050125  91.8016401
  31.2439538 111.0507176  92.6401881  30.6692501 110.9535443  91.2429939
  39.4084816 107.3308425 101.9410876  38.7659196 107.6240958 101.2950670
  38.9039744 107.2161346 102.7464072  37.0624979 111.0771598  92.6296735
  37.9742835 111.3098985  92.4544433  36.5534626 111.6608643  92.0671814
  34.8496262 108.0973201 105.2972758  34.6057194 108.8515262 104.7607034
  35.1256193 108.4758549 106.1320005  34.4060954 107.2529634 100.8786596
  33.5445433 107.5510888 101.1703334  34.4323389 107.4700033  99.9467629
  46.0086546 113.8622518  98.4957353  45.2550254 113.2929916  98.3401357
  46.1434087 113.8285182  99.4427987  34.7477638 102.2566482 102.7010965
  34.4041907 103.1468124 102.6250076  35.1156600 102.0668139 101.8380550
  34.7127920 112.2475093  91.2083401  34.1974544 113.0179698  91.4471788
  34.4405229 111.5740229  91.8316462  32.2975031 107.0924794  96.2668639
  31.4416628 106.7031644  96.0874278  32.7101983 107.1716755  95.4068424
  33.8274178 104.6271137 100.6660199  33.3238974 104.5901272  99.8528004
  34.1204785 105.5363880 100.7256855  30.0717064 104.7109867  99.6726380
  30.9370061 104.5152675  99.3132270  30.1394573 104.4820218 100.5995737
  39.6862194 115.0007448  93.1436574  38.9091637 114.6618607  92.6991736
  40.3653675 115.0060071  92.4691539  34.5014224 110.1202185  93.0343182
  34.1964359 110.4348334  93.8853325  35.4544666 110.1983605  93.0770515
  27.6779383 106.9412075  97.0442747  28.2523135 106.7187256  96.3115940
  28.2650365 107.0100769  97.7971349  36.7358960 112.8285802  97.8507124
  37.2490842 113.4615793  98.3528833  37.3860184 112.2286997  97.4850484
  28.0048970 108.9716536  91.0638632  27.1686282 109.3091222  91.3847907
  27.8653740 108.8365515  90.1265769  29.9802051 103.8153324  95.7717817
  29.3266463 103.5002341  95.1474431  29.9382525 103.1929064  96.4977640
  33.2139791 110.3035257 100.0965464  32.2962352 110.5250204  99.9387152
  33.6299935 110.3781568  99.2377172  33.9974839 111.7026673  95.2268145
  34.7446658 112.2148070  94.9175267  34.2666428 111.3810725  96.0872538
  36.4453676 108.7383789  97.2086934  35.7076433 108.2261175  97.5397176
  36.6980450 108.2984171  96.3970211  36.5465303 101.5160041  97.8028703
  36.8524180 100.6557404  97.5154618  37.2717908 102.1077661  97.6027697
  28.7578743 110.4290894  96.0695273  27.9446608 110.7285064  96.4760465
  29.2537737 110.0346583  96.7869755  34.3552955 110.8932718 104.9010167
  34.7102342 111.1204191 105.7604633  35.0025086 111.2251095 104.2787422
  40.0850692 114.0151154  95.6059496  39.9468590 114.2052750  94.6780685
  39.7286910 114.7770537  96.0627547  28.2492818 108.0009249 101.6856508
  28.8892197 107.8598008 100.9879471  27.4170348 107.7143763 101.3095110
  25.2521434 107.9709574  96.4629495  25.5128251 108.8854908  96.3538655
  26.0738606 107.5034017  96.6126108  32.6271931 106.0109272 105.6493980
  31.9799847 106.7099222 105.5558457  33.3972947 106.4445416 106.0170228
  27.8787350 108.8163763  88.2636539  27.0016817 108.6952564  87.8998786
  28.3545103 108.0249841  88.0115428  34.3747926 106.9784683  98.1533265
  34.8716626 106.2254645  97.8334335  33.6034908 107.0149000  97.5876474
  42.2277684 112.6825048  99.7951557  42.2167560 113.5649764  99.4245490
  41.3595063 112.3296599  99.6006094  30.9582895 109.1202066  97.8804950
  30.5880683 108.5673106  98.5685855  31.4541988 108.5160199  97.3279950
  38.8450259 111.5773689  96.2621723  39.3110711 112.4101681  96.1882025
  39.2957759 111.1118671  96.9666981  36.8166921 103.9454276 100.3012624
  35.9030001 104.1758503 100.4694831  37.2460023 104.0292720 101.1526656
  36.5873380 112.1344168 102.8012518  35.9344830 112.3820076 102.1464971
  36.9653760 111.3208307 102.4674995  24.3353886 108.0919716  93.8288770
  24.0066592 107.2117095  93.6463876  24.6893256 108.0367385  94.7165159
  27.4495709 108.3792686  94.1964248  27.7891781 108.9078607  93.4742856
  27.8967829 108.7173092  94.9722814  30.1439150 106.7629737 103.6467316
  29.8035970 105.9637550 104.0487996  29.4378156 107.0631447 103.0744149
  30.7955622 103.8479049 102.0994639  31.6181691 103.3739527 101.9773529
  31.0393685 104.6269533 102.5993325  29.4363856 106.8767307  92.3957541
  30.1572219 107.2548560  91.8921257  28.8129160 107.5956184  92.4992518
  33.5794979 107.5812456  93.3315873  33.7958593 108.4637094  93.0304701
  33.0989046 107.1898670  92.6021515  30.1790583 107.5300718  99.9567507
  30.1652152 106.6341811  99.6199805  30.8963011 107.5371381 100.5905793
  32.0316714 107.9638058 102.0020634  31.7734492 108.8855128 102.0004965
  31.5001754 107.5668492 102.6921099  29.5827479 106.4115098  95.2255077
  29.7043390 105.4831744  95.4245965  29.2929521 106.4253784  94.3133393
  32.4518670 104.0970008  98.3621797  32.4740366 104.1609341  97.4073777
  32.8686729 103.2574517  98.5562303  42.8302294 113.8325268  96.4001020
  43.2733440 113.0832593  96.0020143  41.9528804 113.8235404  96.0174752
  42.3735159 115.3030506  98.7923467  43.2082050 115.7420310  98.9561027
  42.5094287 114.8269159  97.9731713  39.4226664 112.8610241 104.7400955
  39.8980786 113.0537887 103.9319806  38.4992230 112.9169427 104.4944339
  34.0006881 104.8958085 103.7056789  34.5188825 105.6319111 103.3803277
  33.6462014 105.2022078 104.5403548  25.5805819 109.7562766  91.8218195
  24.8875064 109.8307121  91.1658231  25.3357571 108.9923109  92.3439712
  34.2519475 101.3158367  99.2257685  34.5321229 100.6481556  99.8518112
  35.0370082 101.5087463  98.7132349  38.1228333 109.7376001 102.9729260
  39.0745756 109.8374099 102.9941485  37.9531784 108.9454270 103.4827345
  36.1442713 106.8231584 103.1588661  35.5492645 107.1036597 102.4635150
  35.8592410 107.3125485 103.9305403  40.6016411 112.9582121 102.0871560
  40.5692731 112.0198121 102.2731244  41.2117035 113.0366157 101.3537385
  32.4399742 111.8278174  88.1298764  33.3858847 111.6984382  88.1987182
  32.0613987 111.0892836  88.6068192  40.7510900 109.7493164 102.1329843
  40.2349948 108.9651621 101.9459772  41.6350848 109.4211881 102.2976363
  38.4121627 103.4934180  98.0925656  38.2146448 103.1849268  98.9768988
  39.0221332 104.2195819  98.2223586  46.4192961 114.0198128 101.2277597
  47.1496350 113.7583416 101.7885300  45.8099907 113.2826850 101.2679665
  44.5008258 112.1605990 101.8252048  43.7741422 112.0261955 101.2168540
  44.0855545 112.4682819 102.6308766  30.6242659 109.7528150  88.0653649
  29.7174115 109.4561263  88.1416363  30.9018640 109.4557968  87.1987936
  32.2404725 104.2965040  94.2197891  31.4305453 103.9512125  94.5953137
  32.9289142 103.9872584  94.8085502  34.1695273 103.3743087  95.8422187
  34.7226312 103.7938540  96.5012210  34.4065360 102.4478835  95.8845143
  29.3941444 106.6115085  88.2065629  30.2560608 106.9369984  88.4661446
  29.5791788 105.8246581  87.6938694  37.5474080 105.4843612  95.3500852
  36.9672749 106.1428416  94.9678904  37.2810013 104.6620956  94.9388269
  35.9977647 104.8848670  97.5522172  36.4977425 104.9965204  96.7436491
  36.6413255 104.5809722  98.1922980  36.3298958 107.6443702  94.4057200
  35.4424813 107.9293353  94.1877395  36.7452947 107.4837466  93.5584477
  39.6813495 107.6690223  98.1211539  40.4573885 108.1586676  98.3936156
  38.9561629 108.0948277  98.5783409  42.1186053 108.3817842  99.1785480
  42.7130544 108.1413578  98.4678788  42.1912637 107.6624973  99.8059016
  36.3039982 113.1598238  94.6207490  36.2475184 113.6166790  93.7815122
  36.8568325 112.3988923  94.4430333  40.1144788 108.9487970  95.4457610
  39.8581722 108.5484606  96.2765817  39.4897656 109.6631764  95.3207749
  44.4257126 111.6884043  97.9528901  43.8656684 111.7577233  98.7260463
  43.8200629 111.5125028  97.2328397  30.3470887 103.8511128  91.4945338
  30.3349557 104.7952968  91.6513608  31.2394309 103.6681274  91.2004799
  34.1623006 100.4453905  95.7491274  33.3955402  99.8912392  95.8947957
  34.5733711 100.5175774  96.6105426  47.3859058 116.8451959  97.8028703
  47.6917935 115.9849322  97.5154618  48.1111663 117.4369579  97.6027697
  45.0913230 116.6450285  99.2257685  45.3714983 115.9773474  99.8518112
  45.8763837 116.8379380  98.7132349  45.0016761 115.7745823  95.7491274
  44.2349157 115.2204309  95.8947957  45.4127466 115.8467691  96.6105426
   2.6511529  29.5516970  85.2202659   1.8975238  28.9824368  85.0646664
   2.7859071  29.5179634  86.1673294   3.0617944  29.7092579  87.9522904
   3.7921333  29.4477868  88.5130607   2.4524890  28.9721301  87.9924972
   1.1433242  27.8500442  88.5497355   0.4166405  27.7156407  87.9413846
   0.7280528  28.1577271  89.3554073   1.0682109  27.3778495  84.6774208
   0.5081667  27.4471684  85.4505770   0.4625613  27.2019480  83.9573704
   2.6538128  44.0535009  87.3704163   3.2916538  43.9341756  86.6667503
   2.5358971  45.0015853  87.4292115   2.2079396  41.7786463  84.4457371
   2.9942485  41.3605886  84.0947788   2.4718100  42.6832555  84.6139020
   2.3789473  47.2159313  79.1446028   1.7435306  47.2893940  79.8566933
   2.0486880  47.8052912  78.4665107   7.6087823  41.7161696  85.3490350
   8.3412995  41.1460913  85.5828179   6.8527179  41.3283297  85.7896855
   5.1313244  35.4283270  89.8084958   4.7996568  36.2978681  89.5846173
   4.5358857  35.1119554  90.4878989   1.6244763  47.6295816  89.2080871
   1.3245486  48.5320855  89.0996678   1.2795823  47.3627999  90.0602024
   5.0241907  40.1478356  86.8878308   4.1158784  40.0793765  86.5937069
   4.9729503  40.6250301  87.7160134   6.8903553  38.3494795  88.6656182
   6.2477934  38.6427328  88.0195977   6.3858482  38.2347715  89.4709379
   4.5443717  42.0957968  79.3542042   5.4561573  42.3285355  79.1789739
   4.0353364  42.6795012  78.7917120   2.8284485  46.5182596  92.9903334
   3.2367841  46.0765006  92.2457967   2.1061746  45.9435223  93.2437527
   3.1513299  47.0783786  86.7455623   2.5222162  47.2429501  86.0431691
   2.7638961  47.4925396  87.5166587   7.0302531  48.0138224  84.0999987
   6.3453569  48.3937126  83.5497020   7.1146381  48.6233551  84.8331935
   2.3315000  39.1159571  92.0218065   2.0875932  39.8701631  91.4852341
   2.6074931  39.4944919  92.8565312   4.2853463  45.6598183  90.6995330
   4.4970358  46.3029943  90.0229711   4.2383211  44.8260500  90.2317260
   1.8879692  38.2716004  87.6031903   1.0264171  38.5697258  87.8948640
   1.9142126  38.4886403  86.6712935   5.3999291  48.5370139  88.8717688
   6.2216734  48.1350326  88.5900369   5.3961694  48.4338373  89.8233804
  13.4905284  44.8808887  85.2202659  12.7368992  44.3116285  85.0646664
  13.6252825  44.8471552  86.1673294   2.6053626  50.6548656  93.0539122
   2.5872102  51.4757537  92.5619391   3.5273546  50.5302731  93.2789263
   2.2296375  33.2752851  89.4256272   1.8860645  34.1654493  89.3495383
   2.5975338  33.0854509  88.5625857   2.1946658  43.2661462  77.9328707
   1.6793282  44.0366067  78.1717095   1.9223967  42.5926599  78.5561769
   1.3092916  35.6457507  87.3905505   0.8057711  35.6087642  86.5773311
   1.6023523  36.5550249  87.4502162   7.1680932  46.0193817  79.8681881
   6.3910375  45.6804977  79.4237043   7.8472413  46.0246440  79.1936846
   1.9832961  41.1388555  79.7588488   1.6783097  41.4534704  80.6098632
   2.9363403  41.2169974  79.8015821   5.4072239  45.4927798  86.5248489
   4.7495914  46.1827060  86.6128617   6.2112638  45.8824230  86.8682475
   4.2177698  43.8472171  84.5752430   4.7309580  44.4802163  85.0774140
   4.8678922  43.2473367  84.2095790   1.4800072  53.8256495  77.3313102
   0.8061771  54.1288192  77.9398059   1.8665894  54.6285576  76.9818559
   1.4793577  42.7213042  81.9513451   2.2265396  43.2334440  81.6420573
   1.7485166  42.3997095  82.8117845   4.9839494  48.8278173  82.7031573
   4.5301821  47.9869082  82.7596763   4.3533461  49.4639571  83.0406353
   3.9272414  39.7570159  83.9332240   3.1895171  39.2447545  84.2642483
   4.1799187  39.3170540  83.1215517   3.4272433  50.6654669  83.6381391
   3.7195408  51.2259726  82.9193757   3.9371054  50.9583230  84.3934550
   4.0284041  32.5346411  84.5274010   4.3342918  31.6743774  84.2399925
   4.7536646  33.1264031  84.3273004   1.8371692  41.9119088  91.6255474
   2.1921080  42.1390561  92.4849939   2.4843824  42.2437465  91.0032729
   7.5669429  45.0337524  82.3304803   7.4287328  45.2239120  81.4025992
   7.2105648  45.7956907  82.7872854   7.5938809  47.1014051  87.3416074
   8.0275316  47.0089340  88.1899128   8.3070390  47.0771551  86.7036090
   1.3266704  50.7016145  88.8749175   1.3803726  51.2707081  89.6426891
   0.4581485  50.8718030  88.5103212   8.4554359  47.1437751  89.8748960
   8.6490249  48.0483562  90.1208234   8.3554977  46.6845170  90.7087545
   3.5169467  47.2944494  95.4489840   3.3654974  47.0655046  94.5319924
   3.5074147  48.2515096  95.4621185   3.5707542  45.6164708  75.8660542
   2.9536713  44.8911537  75.7693594   3.1024031  46.3774069  75.5227616
   5.2261674  50.3263617  93.5266322   5.1674220  49.6422837  92.8596905
   5.6281192  51.0682607  93.0746948   5.2279081  48.2903201  91.7580302
   4.3405860  47.9529122  91.8806701   5.7977632  47.5586232  91.9949067
   1.8566664  37.9971052  84.8778572   2.3535364  37.2441015  84.5579642
   1.0853646  38.0335369  84.3121781   9.7096422  43.7011418  86.5196863
   9.6986298  44.5836133  86.1490796   8.8413801  43.3482969  86.3251400
   1.2178918  52.8491487  90.8799704   1.9306890  53.4838952  90.8075605
   0.7268947  52.9455353  90.0639705   2.9396445  46.7542740  82.4516995
   2.0052724  46.8744202  82.2821700   3.1173113  45.8515206  82.1877005
   6.3268996  42.5960059  82.9867029   6.7929449  43.4288051  82.9127332
   6.7776497  42.1305041  83.6912288   4.3945227  48.9403880  79.9853181
   4.6705071  48.8260475  80.8947055   3.5249726  48.5421365  79.9465354
   4.2985659  34.9640646  87.0257931   3.3848739  35.1944873  87.1940138
   4.7278761  35.0479090  87.8771963   4.0692118  43.1530538  89.5257825
   3.4163568  43.4006445  88.8710277   4.4472497  42.3394676  89.1920302
   1.0299291  53.1890231  83.6285995   1.2121686  52.3711887  84.0913747
   1.8532277  53.4057923  83.1910885   1.3641457  52.1158416  80.8901043
   1.8929223  51.6050871  80.2771206   1.6269677  51.8000946  81.7546576
   3.7113348  50.0278534  96.1030132   4.2553252  50.6408492  95.6085087
   3.1300193  50.5858112  96.6197145   1.9970861  53.1499252  87.2345160
   1.8722000  52.3488992  86.7256105   2.6549952  53.6445445  86.7459130
   4.0605769  50.9508272  88.8624710   3.1136105  50.8313623  88.7903037
   4.4088542  50.0630770  88.9450971   1.0652202  50.7460988  85.0629062
   0.9177165  49.8177696  85.2436632   1.8905696  50.7681079  84.5786137
   4.6686324  51.5689547  86.1493935   5.5932872  51.3632408  86.0118386
   4.5001628  51.3205948  87.0583276   1.0613717  38.5998826  80.0561179
   1.2777331  39.4823464  79.7550008   0.5807784  38.2085039  79.3266821
   4.4581640  52.0875214  81.5056026   4.6318518  51.5221637  80.7529879
   4.9510532  52.8876109  81.3235516  10.3121032  44.8511637  83.1246326
  10.7552178  44.1018963  82.7265449   9.4347542  44.8421774  82.7420058
   5.4456813  51.4041979  78.6052925   6.1407718  52.0248672  78.8240239
   5.7879963  50.5537330  78.8805303   7.3448236  48.8541684  80.1340255
   7.8699560  49.1928957  79.4089576   7.2570589  47.9188700  79.9503390
   7.0342142  49.4874588  95.4391453   6.2437686  49.4698727  94.8995953
   6.7975497  50.0262882  96.1940490   7.1540017  46.3367054  92.7524182
   7.2038022  46.1717062  93.6939705   7.0453941  45.4694313  92.3622063
   4.4443780  42.3197982  94.0683489   5.3453642  42.1804447  93.7767486
   4.5191754  42.4852437  95.0081666   8.6558214  48.7563996  92.9966204
   8.3643022  49.1193976  93.8329664   8.0430345  48.0431004  92.8179536
   9.8553896  46.3216876  85.5168774  10.6900788  46.7606680  85.6806334
   9.9913025  45.8455529  84.6977020   6.9045402  43.8796611  91.4646262
   7.3799524  44.0724257  90.6565113   5.9810968  43.9355796  91.2189645
   1.4825619  35.9144454  90.4302095   2.0007563  36.6505481  90.1048584
   1.1280752  36.2208447  91.2648855   1.7338213  32.3344737  85.9502992
   2.0139967  31.6667926  86.5763419   2.5188820  32.5273832  85.4377656
   5.6047071  40.7562371  89.6974567   6.5564494  40.8560468  89.7186791
   5.4350522  39.9640639  90.2072651   3.6261451  37.8417954  89.8833968
   3.0311383  38.1222967  89.1880457   3.3411147  38.3311855  90.6550709
   2.7568941  51.7940881  78.6436601   3.6899614  51.7286442  78.8469476
   2.6692154  52.6297148  78.1851133   5.3856958  51.1106751  75.6040548
   5.3070589  50.7766615  76.4976306   6.2066625  51.6028519  75.6032020
   8.0835149  43.9768490  88.8116867   8.0511469  43.0384491  88.9976551
   8.6935773  44.0552527  88.0782692   8.2329638  40.7679534  88.8575150
   7.7168686  39.9837990  88.6705079   9.1169586  40.4398250  89.0221669
   5.8940364  34.5120549  84.8170963   5.6965186  34.2035638  85.7014295
   6.5040070  35.2382188  84.9468892  13.9011699  45.0384497  87.9522904
  14.6315087  44.7769785  88.5130607  13.2918644  44.3013219  87.9924972
  11.9826996  43.1792360  88.5497355  11.2560160  43.0448325  87.9413846
  11.5674283  43.4869188  89.3554073   1.6514011  34.3929456  82.5667494
   2.2045050  34.8124910  83.2257517   1.8884097  33.4665204  82.6090450
   5.0292818  36.5029981  82.0746158   4.4491487  37.1614785  81.6924211
   4.7628751  35.6807326  81.6633576   3.4796385  35.9035039  84.2767479
   3.9796163  36.0151574  83.4681797   4.1231992  35.5996092  84.9168287
   3.8117696  38.6630072  81.1302507   2.9243551  38.9479722  80.9122701
   4.2271685  38.5023835  80.2829783   7.1632232  38.6876593  84.8456846
   7.9392622  39.1773045  85.1181463   6.4380366  39.1134647  85.3028715
   9.6004791  39.4004212  85.9030786  10.1949282  39.1599948  85.1924095
   9.6731375  38.6811343  86.5304323   2.9560910  48.4274746  75.2250526
   3.6596760  48.6324749  75.8408182   2.2323558  48.9951508  75.4899610
   3.7858720  44.1784608  81.3452797   3.7293921  44.6353159  80.5060429
   4.3387062  43.4175292  81.1675639   7.5963526  39.9674340  82.1702916
   7.3400460  39.5670975  83.0011124   6.9716394  40.6818133  82.0453055
  11.9075864  42.7070413  84.6774208  11.3475422  42.7763602  85.4505770
  11.3019367  42.5311397  83.9573704   4.8647607  48.8657276  77.2748987
   5.6993211  48.4338474  77.0926461   4.7031950  48.6939289  78.2025881
   4.5193499  45.3689389  78.6405326   4.4642303  45.2033660  77.6993770
   3.8939554  46.0765422  78.7967516   1.8339406  47.6738301  97.9658889
   2.7030566  47.8478953  97.6045524   1.3546158  48.4932718  97.8434618
   1.6441744  31.4640275  82.4736581   0.8774140  30.9098761  82.6193263
   2.0552449  31.5362143  83.3350733  13.4931882  59.3826927  87.3704163
  14.1310292  59.2633674  86.6667503  13.3752725  60.3307771  87.4292115
  10.3021588  59.3354355  87.3065688   9.9640100  59.2195420  86.4186223
  11.1711357  58.9345520  87.2866694   6.1608404  61.1889831  83.2962579
   5.5973269  61.0979768  82.5278867   6.0460799  60.3689736  83.7765071
  10.7841371  60.4889207  93.2651893  10.7730012  60.0942005  92.3932397
  10.9462011  59.7555279  93.8585665   3.7072836  62.6841023  86.1346799
   4.4994128  62.3431847  85.7193099   3.9469486  62.7935998  87.0548953
  11.7407963  64.8560799  78.6077044  11.0895943  65.4414879  78.2211058
  12.5352326  65.3866994  78.6672081   5.6663590  61.9449936  79.0064178
   6.4394466  61.3978923  78.8677054   6.0188989  62.8094185  79.2178640
   7.5048633  63.2726318  92.2131077   7.2138499  64.1771949  92.0977744
   8.1405617  63.3142846  92.9275147   8.4304839  60.6503167  88.8032437
   9.0268412  60.4259189  88.0889400   8.4879811  59.9087912  89.4057885
   8.0029868  58.1042602  76.6382628   8.2555388  57.5824123  75.8766091
   7.0654427  57.9408748  76.7409312  13.0473151  57.1078381  84.4457371
  13.8336240  56.6897804  84.0947788  13.3111855  58.0124473  84.6139020
  13.2183228  62.5451231  79.1446028  12.5829061  62.6185857  79.8566933
  12.8880634  63.1344830  78.4665107  18.4481578  57.0453614  85.3490350
  19.1806750  56.4752831  85.5828179  17.6920933  56.6575214  85.7896855
   7.7226157  60.0070708  78.8407003   7.6062415  59.3315612  79.5088087
   7.8328416  59.5203082  78.0239156  10.0657697  59.4680855  82.5453692
   9.7015905  58.9411476  83.2566614  10.9224813  59.0779324  82.3720178
  15.9706998  50.7575188  89.8084958  15.6390323  51.6270599  89.5846173
  15.3752611  50.4411472  90.4878989   9.7063184  54.4970755  77.5415041
   9.8737587  55.3650991  77.9085512   9.5160354  54.6598037  76.6176330
  12.4638518  62.9587734  89.2080871  12.1639241  63.8612773  89.0996678
  12.1189577  62.6919917  90.0602024   5.9150999  59.4101531  85.2417576
   4.9901496  59.2777745  85.4495267   6.1635412  60.1895750  85.7387518
  15.8635661  55.4770274  86.8878308  14.9552539  55.4085682  86.5937069
  15.8123257  55.9542219  87.7160134   9.6852405  56.9528412  78.5261708
   9.5652031  57.3985463  79.3647188   8.9904994  57.3013730  77.9675246
   3.2759810  59.0534804  86.0761365   3.4052191  59.3069283  86.9900776
   2.5957261  59.6462512  85.7566020   7.4459297  69.7232054  82.1751839
   7.3683327  70.6739879  82.2540319   6.8420941  69.3777927  82.8326765
   9.9376527  56.8959920  94.8313206   9.1609861  57.4553840  94.8216070
  10.5767090  57.3816703  95.3528076  17.7297308  53.6786712  88.6656182
  17.0871688  53.9719246  88.0195977  17.2252236  53.5639633  89.4709379
  15.3837471  57.4249886  79.3542042  16.2955328  57.6577272  79.1789739
  14.8747119  58.0086930  78.7917120   8.1922900  59.7045373  94.3931173
   8.9337584  60.2430417  94.1165996   7.4859885  60.3311662  94.5502725
  13.6678239  61.8474513  92.9903334  14.0761595  61.4056924  92.2457967
  12.9455501  61.2727141  93.2437527  10.0209309  56.7847120  90.3636891
  10.8670504  57.2086534  90.5071540   9.9607947  56.1280745  91.0575454
  13.9907054  62.4075704  86.7455623  13.3615916  62.5721418  86.0431691
  13.6032716  62.8217314  87.5166587  17.8696286  63.3430142  84.0999987
  17.1847324  63.7229043  83.5497020  17.9540135  63.9525469  84.8331935
  13.1708755  54.4451489  92.0218065  12.9269686  55.1993549  91.4852341
  13.4468685  54.8236836  92.8565312  15.1247217  60.9890101  90.6995330
  15.3364113  61.6321861  90.0229711  15.0776966  60.1552418  90.2317260
  12.7273446  53.6007922  87.6031903  11.8657925  53.8989175  87.8948640
  12.7535881  53.8178321  86.6712935   9.5435016  62.1450112  84.0105708
  10.0073361  62.4237815  83.2210331   9.2791814  61.2433557  83.8278799
   6.4359097  61.6921594  86.9485471   7.0060454  62.1208862  86.3102956
   7.0267209  61.4104178  87.6469657   8.4803902  58.2673265  80.8195273
   9.1827945  58.7194308  81.2869200   8.1484530  57.6257083  81.4475166
   6.9284263  56.8585021  95.1946483   6.2982924  57.5401302  95.4281880
   6.8220351  56.7468103  94.2499621   2.2229236  56.5256817  86.1212407
   1.4328290  56.7814346  85.6452518   2.7140483  57.3405155  86.2264447
  16.2393045  63.8662056  88.8717688  17.0610489  63.4642244  88.5900369
  16.2355448  63.7630291  89.8233804   4.1743981  56.8901396  83.0795884
   3.3775144  57.0020091  83.5979379   3.9469573  57.2288049  82.2136774
  10.0049649  63.4146100  91.0278398  10.0694081  63.8766507  91.8636570
   9.2960573  62.7843465  91.1560708   0.5066939  56.7787308  88.5527398
   0.7574977  57.6634318  88.8184974   1.0426487  56.5991909  87.7802490
  24.3299038  60.2100805  85.2202659  23.5762747  59.6408203  85.0646664
  24.4646580  60.1763469  86.1673294   9.7197666  65.0814207  80.8957379
   9.5843341  65.9265743  81.3242226  10.2607479  65.2833485  80.1323312
   6.2065006  51.1605787  97.5571734   5.8131952  50.6071986  98.2319378
   7.0231146  51.4716366  97.9478251   3.1727064  62.5989645  81.4685304
   3.6851584  63.3932895  81.6190868   3.8249777  61.9015936  81.4018905
   4.9821948  65.7155402  83.5508057   5.1588577  66.6373366  83.3629041
   5.7778782  65.4013821  83.9802437   9.1232967  52.5763666  95.1491990
   9.8642680  53.1770819  95.0696453   9.3550890  51.8341304  94.5910033
   4.2674305  57.7620033  93.4270220   4.1527820  56.8605291  93.7277319
   3.4118823  58.0083730  93.0755037  11.3466143  65.7037774  95.0257721
  10.9029997  64.9174152  94.7078625  12.0083356  65.8916924  94.3601611
   6.1053264  67.2333575  89.5518399   6.6560689  67.1050639  88.7795393
   5.2664740  67.5328464  89.2013292  13.4447381  65.9840574  93.0539122
  13.4265856  66.8049455  92.5619391  14.3667301  65.8594649  93.2789263
   9.9020435  63.4984703  93.8962630  10.4348772  62.7372991  93.6661938
   9.3734516  63.2058355  94.6386785  13.0690130  48.6044769  89.4256272
  12.7254399  49.4946411  89.3495383  13.4369093  48.4146427  88.5625857
   1.1375981  60.9278300  82.2444874   1.9751203  61.3375308  82.0278582
   1.3154248  59.9877742  82.2145068  13.0340413  58.5953380  77.9328707
  12.5187036  59.3657985  78.1717095  12.7617721  57.9218516  78.5561769
  10.6187524  53.4403081  82.9913946   9.7629120  53.0509931  82.8119584
  11.0314475  53.5195042  82.1313731  12.1486670  50.9749424  87.3905505
  11.6451466  50.9379559  86.5773311  12.4417277  51.8842167  87.4502162
   8.3929556  51.0588154  86.3971687   9.2582553  50.8630963  86.0377577
   8.4607065  50.8298506  87.3241044  18.0074687  61.3485735  79.8681881
  17.2304130  61.0096894  79.4237043  18.6866168  61.3538358  79.1936846
  12.8226716  56.4680472  79.7588488  12.5176851  56.7826621  80.6098632
  13.7757158  56.5461892  79.8015821  11.2673148  62.6270696  81.4081442
  10.7394509  61.8923455  81.0954680  10.7660650  63.4045372  81.1621411
  16.2465994  60.8219716  86.5248489  15.5889668  61.5118977  86.6128617
  17.0506393  61.2116148  86.8682475   5.9991875  53.2890362  83.7688054
   6.5735627  53.0665543  83.0361247   6.5862858  53.3579056  84.5216655
  15.0571452  59.1764089  84.5752430  15.5703334  59.8094081  85.0774140
  15.7072676  58.5765284  84.2095790   6.3261462  55.3194823  77.7883939
   5.4898775  55.6569509  78.1093214   6.1866232  55.1843803  76.8511076
   8.3014543  50.1631611  82.4963123   7.6478955  49.8480628  81.8719738
   8.2595017  49.5407351  83.2222946   9.4125748  60.4450906  74.4116415
   8.5052810  60.2140159  74.6107564   9.9096780  59.6488525  74.5990397
  12.3193827  69.1548413  77.3313102  11.6455525  69.4580110  77.9398059
  12.7059649  69.9577493  76.9818559  11.5352283  56.6513544  86.8210771
  10.6174845  56.8728491  86.6632459  11.9512427  56.7259855  85.9622478
  12.3187331  58.0504960  81.9513451  13.0659150  58.5626357  81.6420573
  12.5878921  57.7289013  82.8117845  10.5913981  60.5463501  78.9340405
   9.6825201  60.2622534  79.0312875  10.6209065  60.9662579  78.0743712
  15.8233249  64.1570090  82.7031573  15.3695576  63.3161000  82.7596763
  15.1927215  64.7931489  83.0406353  14.7666168  55.0862076  83.9332240
  14.0288925  54.5739462  84.2642483  15.0192942  54.6462458  83.1215517
  14.2666188  65.9946587  83.6381391  14.5589162  66.5551644  82.9193757
  14.7764809  66.2875148  84.3934550  14.8677796  47.8638328  84.5274010
  15.1736672  47.0035692  84.2399925  15.5930400  48.4555948  84.3273004
   1.1602152  58.2669015  82.9155608   0.9626551  57.6738376  82.1906674
   0.6048816  57.9621225  83.6331546   9.1398875  58.1592121  85.0350201
   9.1947485  57.2065958  84.9592677   8.3290077  58.3151560  85.5191499
  10.2890069  62.0872244  76.2728484   9.8509499  61.3708103  75.8134121
  11.0300510  62.3148359  75.7113575   7.0791235  56.7769181  82.7940580
   6.2659101  57.0763352  83.2005772   7.5750229  56.3824870  83.5115062
   9.2299813  66.7726938  84.7274844   9.1875992  66.9987784  83.7983376
  10.1462512  66.5390313  84.8760646  12.6765447  57.2411006  91.6255474
  13.0314835  57.4682479  92.4849939  13.3237578  57.5729382  91.0032729
  18.4063184  60.3629441  82.3304803  18.2681082  60.5531037  81.4025992
  18.0499403  61.1248824  82.7872854   6.5705310  54.3487537  88.4101815
   7.2104689  54.2076296  87.7124778   5.7382841  54.0622050  88.0340417
  18.4332563  62.4305968  87.3416074  18.8669070  62.3381258  88.1899128
  19.1464144  62.4063469  86.7036090   7.3465614  63.6489967  84.5236807
   8.1406212  63.1540287  84.3219382   6.6357306  63.1207830  84.1604513
  12.1660458  66.0308063  88.8749175  12.2197481  66.5998999  89.6426891
  11.2975240  66.2009948  88.5103212   3.6548377  57.7933049  80.5996560
   2.7245965  57.7317504  80.8166522   3.7505849  57.2709002  79.8033201
   3.5733926  54.3187862  83.1874801   3.8340744  55.2333195  83.0783962
   4.3951099  53.8512304  83.3371414   5.0458852  55.7325619  90.3573626
   5.7181905  55.5242981  89.7086275   4.2188638  55.5347705  89.9178858
  19.2948113  62.4729669  89.8748960  19.4884003  63.3775480  90.1208234
  19.1948731  62.0137088  90.7087545  10.9484424  52.3587560  92.3739287
  10.3012339  53.0577509  92.2803763  11.7185439  52.7923704  92.7415535
  14.3563222  62.6236412  95.4489840  14.2048728  62.3946964  94.5319924
  14.3467901  63.5807013  95.4621185  11.1248558  60.1968325  90.4336107
  12.0540618  60.3479484  90.2605074  10.7039588  60.2852345  89.5784753
   9.9236890  64.2218989  88.2034644   9.7847976  63.8537773  89.0760582
   9.1351486  64.7366628  88.0318602  10.5185042  69.3228085  79.5460181
  10.6936798  68.8516129  80.3605803   9.8317830  69.9493852  79.7741441
  11.4742105  63.6000592  85.5923482  11.1391938  63.5601362  86.4881132
  10.9746051  62.9345308  85.1193892   5.4486349  59.0068222  91.1176063
   5.3106147  58.2748461  91.7187602   6.3591272  58.9177122  90.8360251
  14.4101297  60.9456626  75.8660542  13.7930467  60.2203454  75.7693594
  13.9417785  61.7065986  75.5227616   8.0768650  58.7188181  90.6059743
   8.7868268  58.0781373  90.5646361   8.0337958  58.9701076  91.5285924
  16.0655428  65.6555534  93.5266322  16.0067975  64.9714755  92.8596905
  16.4674947  66.3974524  93.0746948   6.7897584  55.7053399  92.4255382
   6.2534941  55.2544137  93.0776979   6.2014292  55.8399308  91.6825847
   5.0846127  72.4717448  86.3200041   5.3242725  73.1035972  86.9979059
   4.2415324  72.1205488  86.6065400   6.1999843  55.1642050  74.9881846
   5.3229309  55.0430851  74.6244093   6.6757596  54.3728129  74.7360735
  16.0672836  63.6195118  91.7580302  15.1799614  63.2821040  91.8806701
  16.6371387  62.8878150  91.9949067   2.5236705  54.8409407  89.5108377
   2.4394894  54.2335076  88.7758787   1.7019411  55.3318425  89.5117873
   9.5973989  68.2796571  88.7241545   9.5244160  69.0851542  89.2360849
   9.1551382  68.4788536  87.8989566   9.3863769  67.5168341  82.2344366
   8.6031291  68.0590021  82.3282591  10.0856514  68.0342320  82.6338608
  12.6960419  53.3262970  84.8778572  13.1929118  52.5732932  84.5579642
  11.9247400  53.3627287  84.3121781  20.5490176  59.0303336  86.5196863
  20.5380052  59.9128051  86.1490796  19.6807556  58.6774887  86.3251400
  12.0572673  68.1783405  90.8799704  12.7700645  68.8130870  90.8075605
  11.5662701  68.2747271  90.0639705  13.7790199  62.0834657  82.4516995
  12.8446478  62.2036120  82.2821700  13.9566868  61.1807124  82.1877005
   9.2795388  55.4680353  84.6050256   8.9093175  54.9151394  85.2931162
   9.7754480  54.8638487  84.0525256  17.1662751  57.9251977  82.9867029
  17.6323203  58.7579968  82.9127332  17.6170251  57.4596958  83.6912288
   7.1084586  65.9277848  91.7005274   7.8094046  66.5614331  91.8534669
   6.6379701  66.2692580  90.9400914  15.2338982  64.2695798  79.9853181
  15.5098826  64.1552393  80.8947055  14.3643481  63.8713283  79.9465354
  15.1379414  50.2932564  87.0257931  14.2242493  50.5236790  87.1940138
  15.5672515  50.3771008  87.8771963  14.9085872  58.4822456  89.5257825
  14.2557322  58.7298363  88.8710277  15.2866252  57.6686594  89.1920302
  11.8693046  68.5182149  83.6285995  12.0515440  67.7003805  84.0913747
  12.6926032  68.7349841  83.1910885  12.2035211  67.4450334  80.8901043
  12.7322978  66.9342789  80.2771206  12.4663431  67.1292864  81.7546576
  10.9573445  59.2242267  96.0123862  10.2814082  59.1236396  96.6826237
  11.7801079  59.0681480  96.4759859   2.7052304  65.4614203  88.6336377
   3.2905741  64.7157891  88.7664281   2.5077143  65.7718160  89.5173041
   5.5590959  68.4965451  83.6498819   4.8901335  68.9811578  83.1662859
   5.4203829  68.7434671  84.5642198   9.6996228  70.5309194  90.2481478
  10.2514536  70.6940816  91.0130563  10.0402421  71.1213632  89.5761503
   4.6760721  52.8784344  90.8503362   4.7402048  53.7399175  90.4380760
   4.6127841  52.2658346  90.1175721   4.1512994  54.9507476  94.4976397
   4.7785033  54.5684554  95.1113921   3.2940913  54.7321678  94.8632089
  14.5507102  65.3570452  96.1030132  15.0947006  65.9700410  95.6085087
  13.9693947  65.9150030  96.6197145  12.8364615  68.4791170  87.2345160
  12.7115755  67.6780909  86.7256105  13.4943706  68.9737363  86.7459130
   4.4572783  54.8339902  86.4122300   3.7359369  55.4475870  86.2729773
   5.2466039  55.3697667  86.3338946  14.8999524  66.2800190  88.8624710
  13.9529859  66.1605541  88.7903037  15.2482297  65.3922688  88.9450971
   7.2599097  52.1694329  92.6862952   7.7833499  52.4156625  93.4489261
   7.0411430  53.0014363  92.2666089   2.6566378  54.4398003  80.5534077
   2.3279084  53.5595382  80.3709183   3.0105749  54.3845672  81.4410466
  11.9045957  66.0752906  85.0629062  11.7570919  65.1469613  85.2436632
  12.7299450  66.0972997  84.5786137   5.7708201  54.7270973  80.9209554
   6.1104274  55.2556894  80.1988163   6.2180322  55.0651379  81.6968121
  15.5080079  66.8981465  86.1493935  16.4326626  66.6924326  86.0118386
  15.3395382  66.6497866  87.0583276   8.4651642  53.1108024  90.3712622
   8.1248462  52.3115837  90.7733302   7.7590648  53.4109735  89.7989456
   9.1168114  50.1957336  88.8239945   9.9394183  49.7217814  88.7018836
   9.3606177  50.9747820  89.3238632   7.7576348  53.2245595  79.1202847
   8.4784711  53.6026847  78.6166564   7.1341652  53.9434471  79.2237825
  11.9007471  53.9290744  80.0561179  12.1171086  54.8115381  79.7550008
  11.4201538  53.5376957  79.3266821   6.6406693  56.8876457  86.6331924
   6.4951273  57.2016760  87.5256206   6.1631896  57.5061357  86.0802823
   8.5003075  53.8779005  86.6812814   8.4864644  52.9820098  86.3445112
   9.2175504  53.8849669  87.3151100  10.3529206  54.3116345  88.7265941
  10.0946984  55.2333416  88.7250271   9.8214247  53.9146780  89.4166405
  15.2975395  67.4167132  81.5056026  15.4712272  66.8513555  80.7529879
  15.7904286  68.2168027  81.3235516   1.1152355  59.4281801  89.5719585
   0.5705823  60.2041609  89.7039860   1.9931705  59.7752606  89.4138707
   7.9039971  52.7593385  81.9500384   8.0255883  51.8310031  82.1491271
   7.6142014  52.7732071  81.0378699  10.7731162  50.4448296  85.0867104
  10.7952859  50.5087629  84.1319083  11.1899221  49.6052804  85.2807610
  21.1514786  60.1803555  83.1246326  21.5945932  59.4310880  82.7265449
  20.2741296  60.1713691  82.7420058  16.2850567  66.7333897  78.6052925
  16.9801472  67.3540589  78.8240239  16.6273718  65.8829248  78.8805303
   1.9018377  58.5551697  92.4649742   1.1600113  58.7034333  93.0514373
   1.5811121  58.8159963  91.6016492  18.1841991  64.1833602  80.1340255
  18.7093315  64.5220875  79.4089576  18.0964343  63.2480617  79.9503390
   9.8462039  68.0967676  92.2630132  10.1549166  67.8516822  93.1352832
  10.6437521  68.3014314  91.7749002   9.8682651  70.2505585  84.4935509
   9.4287642  69.7581964  85.1868365  10.6190768  69.7078553  84.2527584
   2.3474990  66.4417126  84.4960137   3.1733010  66.1420898  84.1158780
   1.9969042  65.6724749  84.9449925   7.3156523  65.7943594  86.5657810
   6.6936533  65.1314299  86.2660038   7.9861390  65.8204726  85.8831458
   7.3881051  54.2725382  96.1590316   7.4369206  55.1487505  95.7768086
   7.9303565  53.7302776  95.5861960  17.8735897  64.8166506  95.4391453
  17.0831440  64.7990645  94.8995953  17.6369251  65.3554799  96.1940490
  17.9933772  61.6658972  92.7524182  18.0431777  61.5008980  93.6939705
  17.8847695  60.7986231  92.3622063   6.8770030  64.3447518  80.0416271
   7.0258151  65.0282982  79.3882944   7.6836474  64.3252608  80.5565727
  15.2837534  57.6489900  94.0683489  16.1847397  57.5096365  93.7767486
  15.3585509  57.8144355  95.0081666   9.6180339  55.0256755  92.9136675
   8.7483649  55.3190321  92.6419264   9.8539820  55.6097200  93.6343939
  19.4951969  64.0855914  92.9966204  19.2036777  64.4485894  93.8329664
  18.8824100  63.3722922  92.8179536  20.6947651  61.6508793  85.5168774
  21.5294542  62.0898597  85.6806334  20.8306780  61.1747447  84.6977020
  17.7439157  59.2088528  91.4646262  18.2193278  59.4016175  90.6565113
  16.8204722  59.2647714  91.2189645   4.6322663  60.3712695  81.0477340
   4.3868705  59.4675025  81.2457550   4.8018578  60.3729846  80.1056818
  12.3219373  51.2436372  90.4302095  12.8401317  51.9797399  90.1048584
  11.9674506  51.5500365  91.2648855   3.9018311  56.1041053  78.5463501
   3.2087556  56.1785408  77.8903537   3.6570063  55.3401397  79.0685018
  12.5731967  47.6636654  85.9502992  12.8533721  46.9959843  86.5763419
  13.3582574  47.8565750  85.4377656  10.3765436  66.8395648  77.5128018
   9.8039403  67.4585835  77.0598490  10.9498230  67.3895010  78.0467940
  16.4440826  56.0854288  89.6974567  17.3958249  56.1852386  89.7186791
  16.2744276  55.2932557  90.2072651  14.4655205  53.1709872  89.8833968
  13.8705137  53.4514884  89.1880457  14.1804902  53.6603772  90.6550709
  13.5962696  67.1232798  78.6436601  14.5293369  67.0578360  78.8469476
  13.5085909  67.9589065  78.1851133  16.2250712  66.4398669  75.6040548
  16.1464344  66.1058532  76.4976306  17.0460379  66.9320437  75.6032020
  18.9228904  59.3060408  88.8116867  18.8905224  58.3676409  88.9976551
  19.5329527  59.3844445  88.0782692  10.7612234  58.1756461  74.8544071
  11.7071339  58.0462669  74.9232489  10.3826479  57.4371123  75.3313499
  19.0723392  56.0971451  88.8575150  18.5562441  55.3129908  88.6705079
  19.9563341  55.7690168  89.0221669  16.7334119  49.8412467  84.8170963
  16.5358940  49.5327555  85.7014295  17.3433825  50.5674106  84.9468892
  24.7405453  60.3676415  87.9522904  25.4708842  60.1061703  88.5130607
  24.1312399  59.6305137  87.9924972  22.8220751  58.5084277  88.5497355
  22.0953914  58.3740242  87.9413846  22.4068037  58.8161106  89.3554073
  10.6450927  62.2274207  96.3144728  11.5653936  62.4052806  96.5084774
  10.6100510  61.2830252  96.1624427   8.9455152  56.1006437  74.7898956
   8.0386607  55.8039550  74.8661670   9.2231133  55.8036255  73.9233242
   3.6412999  60.1375242  88.9567509   3.8599009  61.0692350  88.9755543
   4.0538773  59.7783216  89.7422313  10.5617217  50.6443327  80.9443197
   9.7517946  50.2990412  81.3198443  11.2501634  50.3350871  81.5330809
  12.4907766  49.7221374  82.5667494  13.0438804  50.1416827  83.2257517
  12.7277852  48.7957122  82.6090450   8.5140865  55.7108448  98.3470258
   8.4137592  56.6602804  98.2782349   8.2962407  55.3826686  97.4746328
   7.7153936  52.9593373  74.9310935   8.5773100  53.2848271  75.1906753
   7.9004280  52.1724868  74.4184001  15.8686573  51.8321899  82.0746158
  15.2885242  52.4906703  81.6924211  15.6022505  51.0099244  81.6633576
  14.3190139  51.2326957  84.2767479  14.8189917  51.3443491  83.4681797
  14.9625747  50.9288010  84.9168287   8.3772135  59.1405586  97.1635320
   7.8939217  59.9405946  97.3699209   8.4633074  59.1513531  96.2102764
   1.6458094  60.9733966  85.0857139   1.6228783  61.0721653  84.1339022
   1.9558731  61.8199117  85.4074305   4.3045472  63.0310121  89.2003753
   5.2588726  62.9994063  89.1333685   4.1057996  62.5700745  90.0153979
   4.8944854  61.6011237  91.7674551   5.7137743  62.0955316  91.7909388
   5.1681662  60.6843205  91.7392118  14.6511451  53.9921989  81.1302507
  13.7637306  54.2771640  80.9122701  15.0665440  53.8315753  80.2829783
  18.0025987  54.0168510  84.8456846  18.7786377  54.5064963  85.1181463
  17.2774121  54.4426565  85.3028715  20.4398545  54.7296130  85.9030786
  21.0343036  54.4891866  85.1924095  20.5125129  54.0103260  86.5304323
   2.6595701  68.5729741  86.2173951   2.5250169  67.8130141  85.6511949
   2.2427763  69.2970640  85.7502740  13.7954664  63.7566664  75.2250526
  14.4990514  63.9616667  75.8408182  13.0717313  64.3243426  75.4899610
  14.6252474  59.5076525  81.3452797  14.5687676  59.9645077  80.5060429
  15.1780817  58.7467210  81.1675639  18.4357280  55.2966257  82.1702916
  18.1794215  54.8962893  83.0011124  17.8110148  56.0110051  82.0453055
  22.7469618  58.0362330  84.6774208  22.1869176  58.1055520  85.4505770
  22.1413122  57.8603315  83.9573704   5.8164827  69.4699058  86.4292394
   5.6997211  70.4144490  86.3271084   4.9957273  69.1672619  86.8178193
  15.7041362  64.1949193  77.2748987  16.5386965  63.7630392  77.0926461
  15.5425704  64.0231207  78.2025881  15.3587254  60.6981307  78.6405326
  15.3036058  60.5325578  77.6993770  14.7333309  61.4057340  78.7967516
  12.6733161  63.0030218  97.9658889  13.5424321  63.1770871  97.6045524
  12.1939912  63.8224635  97.8434618   8.6683379  50.1989416  78.2190644
   8.6562049  51.1431256  78.3758915   9.5606801  50.0159561  77.9250105
   6.8419341  70.1227319  89.6448322   7.7446588  70.1550930  89.9614817
   6.6156711  69.1927770  89.6594658   8.5972943  68.8758306  86.3058401
   7.6468574  68.8760168  86.1922773   8.9005429  68.1291041  85.7894436
  12.4835499  46.7932192  82.4736581  11.7167894  46.2390679  82.6193263
  12.8946204  46.8654061  83.3350733   4.4877260  53.0816988  96.5641762
   5.3508721  52.7253793  96.7745087   3.9142670  52.7430883  97.2517167
  24.3325637  74.7118844  87.3704163  24.9704047  74.5925592  86.6667503
  24.2146480  75.6599688  87.4292115  21.1415343  74.6646273  87.3065688
  20.8033854  74.5487337  86.4186223  22.0105111  74.2637438  87.2866694
  17.0002159  76.5181749  83.2962579  16.4367024  76.4271686  82.5278867
  16.8854554  75.6981653  83.7765071  21.6235126  75.8181124  93.2651893
  21.6123767  75.4233923  92.3932397  21.7855765  75.0847197  93.8585665
  14.5466591  78.0132941  86.1346799  15.3387882  77.6723765  85.7193099
  14.7863241  78.1227916  87.0548953  22.5801717  80.1852717  78.6077044
  21.9289697  80.7706797  78.2211058  23.3746080  80.7158912  78.6672081
  16.5057344  77.2741854  79.0064178  17.2788220  76.7270841  78.8677054
  16.8582743  78.1386103  79.2178640  18.3442387  78.6018236  92.2131077
  18.0532253  79.5063867  92.0977744  18.9799371  78.6434764  92.9275147
  19.2698594  75.9795085  88.8032437  19.8662166  75.7551107  88.0889400
  19.3273565  75.2379830  89.4057885  18.8423622  73.4334520  76.6382628
  19.0949143  72.9116041  75.8766091  17.9048181  73.2700665  76.7409312
  23.8866905  72.4370298  84.4457371  24.6729994  72.0189721  84.0947788
  24.1505609  73.3416390  84.6139020  24.0576982  77.8743149  79.1446028
  23.4222815  77.9477775  79.8566933  23.7274389  78.4636747  78.4665107
  29.2875332  72.3745531  85.3490350  30.0200504  71.8044748  85.5828179
  28.5314688  71.9867132  85.7896855  18.5619911  75.3362626  78.8407003
  18.4456169  74.6607529  79.5088087  18.6722171  74.8495000  78.0239156
  20.9051452  74.7972773  82.5453692  20.5409659  74.2703394  83.2566614
  21.7618568  74.4071242  82.3720178  26.8100753  66.0867106  89.8084958
  26.4784077  66.9562517  89.5846173  26.2146366  65.7703390  90.4878989
  20.5456939  69.8262673  77.5415041  20.7131341  70.6942909  77.9085512
  20.3554108  69.9889954  76.6176330  23.3032272  78.2879652  89.2080871
  23.0032995  79.1904690  89.0996678  22.9583332  78.0211835  90.0602024
  16.7544754  74.7393448  85.2417576  15.8295250  74.6069663  85.4495267
  17.0029167  75.5187668  85.7387518  26.7029416  70.8062192  86.8878308
  25.7946293  70.7377600  86.5937069  26.6517012  71.2834137  87.7160134
  20.5246160  72.2820330  78.5261708  20.4045785  72.7277381  79.3647188
  19.8298748  72.6305648  77.9675246  14.1153565  74.3826722  86.0761365
  14.2445946  74.6361201  86.9900776  13.4351016  74.9754430  85.7566020
  18.2853052  85.0523972  82.1751839  18.2077082  86.0031797  82.2540319
  17.6814696  84.7069844  82.8326765  20.7770282  72.2251837  94.8313206
  20.0003616  72.7845757  94.8216070  21.4160845  72.7108620  95.3528076
  28.5691062  69.0078630  88.6656182  27.9265443  69.3011163  88.0195977
  28.0645991  68.8931550  89.4709379  26.2231226  72.7541803  79.3542042
  27.1349082  72.9869190  79.1789739  25.7140873  73.3378848  78.7917120
  19.0316654  75.0337291  94.3931173  19.7731338  75.5722335  94.1165996
  18.3253639  75.6603579  94.5502725  24.5071994  77.1766431  92.9903334
  24.9155350  76.7348842  92.2457967  23.7849255  76.6019059  93.2437527
  20.8603064  72.1139038  90.3636891  21.7064259  72.5378451  90.5071540
  20.8001701  71.4572662  91.0575454  24.8300808  77.7367622  86.7455623
  24.2009671  77.9013336  86.0431691  24.4426470  78.1509231  87.5166587
  28.7090040  78.6722060  84.0999987  28.0241078  79.0520961  83.5497020
  28.7933889  79.2817386  84.8331935  24.0102509  69.7743406  92.0218065
  23.7663441  70.5285467  91.4852341  24.2862440  70.1528754  92.8565312
  25.9640972  76.3182019  90.6995330  26.1757867  76.9613779  90.0229711
  25.9170720  75.4844335  90.2317260  23.5667201  68.9299839  87.6031903
  22.7051680  69.2281093  87.8948640  23.5929635  69.1470238  86.6712935
  20.3828770  77.4742030  84.0105708  20.8467116  77.7529733  83.2210331
  20.1185568  76.5725474  83.8278799  17.2752851  77.0213511  86.9485471
  17.8454208  77.4500780  86.3102956  17.8660963  76.7396096  87.6469657
  19.3197656  73.5965182  80.8195273  20.0221700  74.0486226  81.2869200
  18.9878285  72.9549001  81.4475166  17.7678018  72.1876939  95.1946483
  17.1376678  72.8693220  95.4281880  17.6614106  72.0760020  94.2499621
  13.0622990  71.8548735  86.1212407  12.2722044  72.1106263  85.6452518
  13.5534238  72.6697073  86.2264447  27.0786800  79.1953974  88.8717688
  27.9004243  78.7934161  88.5900369  27.0749203  79.0922208  89.8233804
  15.0137736  72.2193314  83.0795884  14.2168899  72.3312008  83.5979379
  14.7863328  72.5579966  82.2136774  20.8443403  78.7438017  91.0278398
  20.9087836  79.2058425  91.8636570  20.1354327  78.1135382  91.1560708
  11.3460693  72.1079225  88.5527398  11.5968732  72.9926235  88.8184974
  11.8820242  71.9283827  87.7802490  35.1692793  75.5392723  85.2202659
  34.4156501  74.9700121  85.0646664  35.3040334  75.5055387  86.1673294
  20.5591421  80.4106125  80.8957379  20.4237096  81.2557661  81.3242226
  21.1001233  80.6125403  80.1323312  17.0458760  66.4897705  97.5571734
  16.6525706  65.9363903  98.2319378  17.8624901  66.8008283  97.9478251
  14.0120818  77.9281563  81.4685304  14.5245339  78.7224813  81.6190868
  14.6643531  77.2307853  81.4018905  15.8215703  81.0447319  83.5508057
  15.9982331  81.9665284  83.3629041  16.6172536  80.7305738  83.9802437
  19.9626721  67.9055584  95.1491990  20.7036435  68.5062737  95.0696453
  20.1944644  67.1633222  94.5910033  15.1068059  73.0911951  93.4270220
  14.9921575  72.1897208  93.7277319  14.2512577  73.3375648  93.0755037
  22.1859897  81.0329691  95.0257721  21.7423751  80.2466070  94.7078625
  22.8477111  81.2208842  94.3601611  16.9447018  82.5625493  89.5518399
  17.4954444  82.4342556  88.7795393  16.1058494  82.8620382  89.2013292
  24.2841135  81.3132491  93.0539122  24.2659611  82.1341372  92.5619391
  25.2061055  81.1886567  93.2789263  20.7414189  78.8276621  93.8962630
  21.2742526  78.0664909  93.6661938  20.2128271  78.5350273  94.6386785
  23.9083884  63.9336687  89.4256272  23.5648154  64.8238328  89.3495383
  24.2762847  63.7438344  88.5625857  11.9769735  76.2570217  82.2444874
  12.8144957  76.6667226  82.0278582  12.1548003  75.3169659  82.2145068
  23.8734167  73.9245298  77.9328707  23.3580791  74.6949902  78.1717095
  23.6011476  73.2510434  78.5561769  21.4581278  68.7694999  82.9913946
  20.6022875  68.3801849  82.8119584  21.8708230  68.8486959  82.1313731
  22.9880425  66.3041342  87.3905505  22.4845220  66.2671477  86.5773311
  23.2811032  67.2134085  87.4502162  19.2323311  66.3880072  86.3971687
  20.0976307  66.1922880  86.0377577  19.3000820  66.1590423  87.3241044
  28.8468441  76.6777653  79.8681881  28.0697884  76.3388812  79.4237043
  29.5259922  76.6830276  79.1936846  23.6620470  71.7972390  79.7588488
  23.3570606  72.1118539  80.6098632  24.6150912  71.8753810  79.8015821
  22.1066902  77.9562613  81.4081442  21.5788264  77.2215373  81.0954680
  21.6054405  78.7337290  81.1621411  27.0859748  76.1511634  86.5248489
  26.4283423  76.8410895  86.6128617  27.8900147  76.5408066  86.8682475
  16.8385630  68.6182280  83.7688054  17.4129382  68.3957461  83.0361247
  17.4256612  68.6870974  84.5216655  25.8965207  74.5056006  84.5752430
  26.4097089  75.1385998  85.0774140  26.5466431  73.9057202  84.2095790
  17.1655217  70.6486741  77.7883939  16.3292529  70.9861427  78.1093214
  17.0259987  70.5135720  76.8511076  19.1408297  65.4923528  82.4963123
  18.4872710  65.1772546  81.8719738  19.0988772  64.8699269  83.2222946
  20.2519502  75.7742824  74.4116415  19.3446564  75.5432077  74.6107564
  20.7490534  74.9780443  74.5990397  23.1587581  84.4840331  77.3313102
  22.4849280  84.7872027  77.9398059  23.5453403  85.2869411  76.9818559
  22.3746038  71.9805462  86.8210771  21.4568599  72.2020409  86.6632459
  22.7906181  72.0551772  85.9622478  23.1581086  73.3796878  81.9513451
  23.9052905  73.8918275  81.6420573  23.4272675  73.0580930  82.8117845
  21.4307736  75.8755418  78.9340405  20.5218955  75.5914451  79.0312875
  21.4602820  76.2954497  78.0743712  26.6627003  79.4862008  82.7031573
  26.2089330  78.6452918  82.7596763  26.0320970  80.1223406  83.0406353
  25.6059923  70.4153994  83.9332240  24.8682680  69.9031380  84.2642483
  25.8586696  69.9754376  83.1215517  25.1059942  81.3238505  83.6381391
  25.3982917  81.8843562  82.9193757  25.6158563  81.6167066  84.3934550
  25.7071550  63.1930246  84.5274010  26.0130427  62.3327609  84.2399925
  26.4324155  63.7847866  84.3273004  11.9995906  73.5960933  82.9155608
  11.8020306  73.0030293  82.1906674  11.4442570  73.2913143  83.6331546
  19.9792630  73.4884039  85.0350201  20.0341240  72.5357875  84.9592677
  19.1683832  73.6443478  85.5191499  21.1283824  77.4164162  76.2728484
  20.6903253  76.7000021  75.8134121  21.8694264  77.6440277  75.7113575
  17.9184990  72.1061099  82.7940580  17.1052855  72.4055269  83.2005772
  18.4143984  71.7116788  83.5115062  20.0693568  82.1018856  84.7274844
  20.0269746  82.3279702  83.7983376  20.9856266  81.8682230  84.8760646
  23.5159201  72.5702923  91.6255474  23.8708589  72.7974396  92.4849939
  24.1631333  72.9021300  91.0032729  29.2456938  75.6921359  82.3304803
  29.1074837  75.8822955  81.4025992  28.8893157  76.4540742  82.7872854
  17.4099064  69.6779454  88.4101815  18.0498444  69.5368213  87.7124778
  16.5776595  69.3913968  88.0340417  29.2726318  77.7597886  87.3416074
  29.7062825  77.6673175  88.1899128  29.9857899  77.7355387  86.7036090
  18.1859368  78.9781885  84.5236807  18.9799967  78.4832205  84.3219382
  17.4751061  78.4499748  84.1604513  23.0054213  81.3599980  88.8749175
  23.0591235  81.9290917  89.6426891  22.1368994  81.5301865  88.5103212
  14.4942132  73.1224966  80.5996560  13.5639720  73.0609422  80.8166522
  14.5899604  72.6000919  79.8033201  14.4127681  69.6479779  83.1874801
  14.6734498  70.5625113  83.0783962  15.2344853  69.1804222  83.3371414
  15.8852606  71.0617536  90.3573626  16.5575660  70.8534899  89.7086275
  15.0582393  70.8639622  89.9178858  30.1341868  77.8021587  89.8748960
  30.3277758  78.7067397  90.1208234  30.0342486  77.3429006  90.7087545
  21.7878178  67.6879477  92.3739287  21.1406093  68.3869427  92.2803763
  22.5579194  68.1215621  92.7415535  25.1956976  77.9528330  95.4489840
  25.0442483  77.7238881  94.5319924  25.1861656  78.9098931  95.4621185
  21.9642313  75.5260242  90.4336107  22.8934373  75.6771402  90.2605074
  21.5433343  75.6144263  89.5784753  20.7630644  79.5510907  88.2034644
  20.6241730  79.1829691  89.0760582  19.9745241  80.0658546  88.0318602
  21.3578796  84.6520003  79.5460181  21.5330552  84.1808046  80.3605803
  20.6711584  85.2785769  79.7741441  22.3135860  78.9292509  85.5923482
  21.9785692  78.8893279  86.4881132  21.8139805  78.2637225  85.1193892
  16.2880103  74.3360139  91.1176063  16.1499901  73.6040378  91.7187602
  17.1985027  74.2469040  90.8360251  25.2495051  76.2748544  75.8660542
  24.6324222  75.5495372  75.7693594  24.7811540  77.0357904  75.5227616
  18.9162404  74.0480099  90.6059743  19.6262023  73.4073291  90.5646361
  18.8731712  74.2992994  91.5285924  26.9049183  80.9847452  93.5266322
  26.8461729  80.3006672  92.8596905  27.3068701  81.7266442  93.0746948
  17.6291338  71.0345317  92.4255382  17.0928695  70.5836055  93.0776979
  17.0408047  71.1691225  91.6825847  15.9239882  87.8009366  86.3200041
  16.1636480  88.4327890  86.9979059  15.0809078  87.4497406  86.6065400
  17.0393597  70.4933968  74.9881846  16.1623063  70.3722769  74.6244093
  17.5151350  69.7020046  74.7360735  26.9066590  78.9487036  91.7580302
  26.0193369  78.6112958  91.8806701  27.4765141  78.2170067  91.9949067
   8.5595737  75.2811128  85.0823353   9.2466777  74.9672858  84.4944368
   8.4043866  76.1852492  84.8090604  13.3630459  70.1701324  89.5108377
  13.2788648  69.5626994  88.7758787  12.5413166  70.6610343  89.5117873
  20.4367744  83.6088488  88.7241545  20.3637915  84.4143460  89.2360849
  19.9945137  83.8080454  87.8989566  20.2257523  82.8460258  82.2344366
  19.4425045  83.3881939  82.3282591  20.9250268  83.3634238  82.6338608
  23.5354173  68.6554888  84.8778572  24.0322873  67.9024850  84.5579642
  22.7641155  68.6919204  84.3121781  31.3883931  74.3595253  86.5196863
  31.3773807  75.2419969  86.1490796  30.5201310  74.0066804  86.3251400
  22.8966427  83.5075322  90.8799704  23.6094399  84.1422787  90.8075605
  22.4056456  83.6039188  90.0639705  24.6183954  77.4126575  82.4516995
  23.6840233  77.5328038  82.2821700  24.7960622  76.5099042  82.1877005
  20.1189142  70.7972271  84.6050256  19.7486930  70.2443311  85.2931162
  20.6148234  70.1930404  84.0525256  28.0056505  73.2543894  82.9867029
  28.4716957  74.0871886  82.9127332  28.4564006  72.7888876  83.6912288
  17.9478341  81.2569766  91.7005274  18.6487800  81.8906249  91.8534669
  17.4773456  81.5984497  90.9400914  26.0732736  79.5987716  79.9853181
  26.3492580  79.4844310  80.8947055  25.2037235  79.2005200  79.9465354
  25.9773168  65.6224481  87.0257931  25.0636248  65.8528708  87.1940138
  26.4066269  65.7062925  87.8771963  25.7479627  73.8114373  89.5257825
  25.0951077  74.0590281  88.8710277  26.1260006  72.9978511  89.1920302
  22.7086800  83.8474066  83.6285995  22.8909195  83.0295722  84.0913747
  23.5319786  84.0641759  83.1910885  23.0428966  82.7742252  80.8901043
  23.5716732  82.2634706  80.2771206  23.3057185  82.4584782  81.7546576
  21.7967200  74.5534184  96.0123862  21.1207837  74.4528314  96.6826237
  22.6194833  74.3973398  96.4759859  13.5446059  80.7906121  88.6336377
  14.1299495  80.0449809  88.7664281  13.3470897  81.1010078  89.5173041
  16.3984714  83.8257368  83.6498819  15.7295089  84.3103496  83.1662859
  16.2597584  84.0726589  84.5642198   8.1363713  73.3611721  87.3540820
   8.1747813  72.8275312  88.1477938   7.6304006  72.8346927  86.7351797
  20.5389982  85.8601112  90.2481478  21.0908290  86.0232733  91.0130563
  20.8796176  86.4505550  89.5761503  15.5154476  68.2076262  90.8503362
  15.5795802  69.0691093  90.4380760  15.4521596  67.5950263  90.1175721
  14.9906748  70.2799394  94.4976397  15.6178787  69.8976471  95.1113921
  14.1334667  70.0613596  94.8632089  25.3900857  80.6862369  96.1030132
  25.9340761  81.2992328  95.6085087  24.8087702  81.2441948  96.6197145
  11.7672291  72.0875823  80.4294752  12.0625732  71.1786502  80.3761805
  10.8660327  72.0663563  80.1075754  23.6758370  83.8083087  87.2345160
  23.5509509  83.0072827  86.7256105  24.3337461  84.3029281  86.7459130
  15.2966538  70.1631820  86.4122300  14.5753124  70.7767788  86.2729773
  16.0859794  70.6989585  86.3338946  25.7393278  81.6092107  88.8624710
  24.7923614  81.4897459  88.7903037  26.0876051  80.7214605  88.9450971
  18.0992851  67.4986246  92.6862952  18.6227253  67.7448543  93.4489261
  17.8805185  68.3306281  92.2666089  13.4960133  69.7689921  80.5534077
  13.1672839  68.8887300  80.3709183  13.8499503  69.7137590  81.4410466
  22.7439711  81.4044824  85.0629062  22.5964674  80.4761531  85.2436632
  23.5693205  81.4264914  84.5786137  16.6101956  70.0562891  80.9209554
  16.9498028  70.5848812  80.1988163  17.0574076  70.3943297  81.6968121
  26.3473833  82.2273382  86.1493935  27.2720381  82.0216244  86.0118386
  26.1789137  81.9789784  87.0583276  19.3045397  68.4399941  90.3712622
  18.9642217  67.6407755  90.7733302  18.5984403  68.7401652  89.7989456
  19.9561868  65.5249254  88.8239945  20.7787938  65.0509732  88.7018836
  20.1999932  66.3039738  89.3238632  18.5970103  68.5537512  79.1202847
  19.3178465  68.9318765  78.6166564  17.9735407  69.2726389  79.2237825
  22.7401226  69.2582661  80.0561179  22.9564840  70.1407299  79.7550008
  22.2595293  68.8668875  79.3266821  17.4800447  72.2168375  86.6331924
  17.3345028  72.5308678  87.5256206  17.0025651  72.8353275  86.0802823
  19.3396830  69.2070922  86.6812814  19.3258399  68.3112016  86.3445112
  20.0569258  69.2141586  87.3151100  21.1922961  69.6408263  88.7265941
  20.9340739  70.5625333  88.7250271  20.6608001  69.2438697  89.4166405
  26.1369149  82.7459050  81.5056026  26.3106027  82.1805472  80.7529879
  26.6298041  83.5459945  81.3235516  11.9546109  74.7573719  89.5719585
  11.4099577  75.5333527  89.7039860  12.8325459  75.1044523  89.4138707
  18.7433726  68.0885303  81.9500384  18.8649637  67.1601949  82.1491271
  18.4535768  68.1023989  81.0378699  21.6124916  65.7740213  85.0867104
  21.6346613  65.8379546  84.1319083  22.0292975  64.9344722  85.2807610
  31.9908541  75.5095473  83.1246326  32.4339687  74.7602798  82.7265449
  31.1135051  75.5005609  82.7420058  27.1244322  82.0625814  78.6052925
  27.8195227  82.6832507  78.8240239  27.4667472  81.2121165  78.8805303
  12.7412131  73.8843615  92.4649742  11.9993867  74.0326251  93.0514373
  12.4204875  74.1451881  91.6016492  29.0235745  79.5125520  80.1340255
  29.5487069  79.8512793  79.4089576  28.9358098  78.5772535  79.9503390
  20.6855794  83.4259593  92.2630132  20.9942920  83.1808740  93.1352832
  21.4831276  83.6306232  91.7749002  20.7076406  85.5797503  84.4935509
  20.2681396  85.0873882  85.1868365  21.4584523  85.0370471  84.2527584
  13.1868745  81.7709044  84.4960137  14.0126765  81.4712816  84.1158780
  12.8362797  81.0016666  84.9449925  18.1550278  81.1235512  86.5657810
  17.5330287  80.4606217  86.2660038  18.8255145  81.1496644  85.8831458
  11.3877350  79.6895370  85.4549070  10.5509258  79.2617545  85.2733072
  11.3600995  79.8827814  86.3919862  18.2274805  69.6017300  96.1590316
  18.2762961  70.4779423  95.7768086  18.7697320  69.0594693  95.5861960
  28.7129651  80.1458423  95.4391453  27.9225195  80.1282562  94.8995953
  28.4763006  80.6846717  96.1940490  28.8327526  76.9950890  92.7524182
  28.8825531  76.8300897  93.6939705  28.7241450  76.1278149  92.3622063
  17.7163785  79.6739435  80.0416271  17.8651905  80.3574900  79.3882944
  18.5230228  79.6544526  80.5565727  26.1231289  72.9781818  94.0683489
  27.0241151  72.8388283  93.7767486  26.1979263  73.1436273  95.0081666
  20.4574094  70.3548673  92.9136675  19.5877403  70.6482239  92.6419264
  20.6933574  70.9389118  93.6343939  30.3345723  79.4147831  92.9966204
  30.0430531  79.7777812  93.8329664  29.7217854  78.7014840  92.8179536
  31.5341405  76.9800711  85.5168774  32.3688297  77.4190515  85.6806334
  31.6700534  76.5039364  84.6977020  28.5832911  74.5380446  91.4646262
  29.0587033  74.7308092  90.6565113  27.6598477  74.5939632  91.2189645
  15.4716418  75.7004613  81.0477340  15.2262460  74.7966943  81.2457550
  15.6412332  75.7021764  80.1056818  23.1613128  66.5728289  90.4302095
  23.6795072  67.3089316  90.1048584  22.8068260  66.8792283  91.2648855
  14.7412065  71.4332971  78.5463501  14.0481310  71.5077326  77.8903537
  14.4963817  70.6693314  79.0685018  23.4125722  62.9928572  85.9502992
  23.6927476  62.3251761  86.5763419  24.1976329  63.1857668  85.4377656
  21.2159190  82.1687566  77.5128018  20.6433157  82.7877753  77.0598490
  21.7891984  82.7186928  78.0467940  27.2834580  71.4146206  89.6974567
  28.2352003  71.5144304  89.7186791  27.1138031  70.6224475  90.2072651
  25.3048960  68.5001789  89.8833968  24.7098892  68.7806802  89.1880457
  25.0198656  68.9895690  90.6550709  24.4356450  82.4524716  78.6436601
  25.3687123  82.3870278  78.8469476  24.3479663  83.2880983  78.1851133
  27.0644467  81.7690586  75.6040548  26.9858098  81.4350450  76.4976306
  27.8854134  82.2612354  75.6032020  29.7622658  74.6352326  88.8116867
  29.7298978  73.6968326  88.9976551  30.3723282  74.7136362  88.0782692
  21.6005989  73.5048379  74.8544071  22.5465094  73.3754587  74.9232489
  21.2220234  72.7663041  75.3313499  29.9117147  71.4263369  88.8575150
  29.3956195  70.6421826  88.6705079  30.7957095  71.0982086  89.0221669
  27.5727873  65.1704385  84.8170963  27.3752695  64.8619473  85.7014295
  28.1827579  65.8966024  84.9468892  35.5799208  75.6968333  87.9522904
  36.3102596  75.4353621  88.5130607  34.9706153  74.9597054  87.9924972
  33.6614505  73.8376195  88.5497355  32.9347669  73.7032160  87.9413846
  33.2461792  74.1453024  89.3554073  21.4844681  77.5566125  96.3144728
  22.4047691  77.7344724  96.5084774  21.4494264  76.6122170  96.1624427
  19.7848906  71.4298355  74.7898956  18.8780361  71.1331468  74.8661670
  20.0624887  71.1328173  73.9233242  10.7026846  72.7504718  85.2398002
  10.3829631  71.8970027  84.9472376  10.1560275  72.9653297  85.9955970
  14.4806754  75.4667159  88.9567509  14.6992764  76.3984267  88.9755543
  14.8932528  75.1075134  89.7422313  21.4010972  65.9735245  80.9443197
  20.5911700  65.6282330  81.3198443  22.0895389  65.6642788  81.5330809
  23.3301520  65.0513292  82.5667494  23.8832559  65.4708745  83.2257517
  23.5671606  64.1249040  82.6090450  19.3534619  71.0400365  98.3470258
  19.2531346  71.9894722  98.2782349  19.1356161  70.7118604  97.4746328
  18.5547691  68.2885290  74.9310935  19.4166855  68.6140189  75.1906753
  18.7398035  67.5016786  74.4184001  10.5715106  76.3707630  87.2091124
   9.8778578  75.9561583  86.6961078  11.3188097  76.4128166  86.6124543
  26.7080327  67.1613817  82.0746158  26.1278996  67.8198621  81.6924211
  26.4416260  66.3391161  81.6633576  25.1583894  66.5618874  84.2767479
  25.6583672  66.6735409  83.4681797  25.8019501  66.2579927  84.9168287
  19.2165889  74.4697504  97.1635320  18.7332971  75.2697864  97.3699209
  19.3026828  74.4805449  96.2102764  12.4851849  76.3025884  85.0857139
  12.4622537  76.4013571  84.1339022  12.7952485  77.1491035  85.4074305
  15.1439227  78.3602039  89.2003753  16.0982480  78.3285981  89.1333685
  14.9451750  77.8992662  90.0153979  15.7338609  76.9303155  91.7674551
  16.5531498  77.4247233  91.7909388  16.0075417  76.0135123  91.7392118
  25.4905205  69.3213907  81.1302507  24.6031060  69.6063558  80.9122701
  25.9059194  69.1607670  80.2829783  28.8419741  69.3460428  84.8456846
  29.6180131  69.8356881  85.1181463  28.1167875  69.7718482  85.3028715
  31.2792300  70.0588047  85.9030786  31.8736791  69.8183783  85.1924095
  31.3518884  69.3395178  86.5304323  13.4989456  83.9021658  86.2173951
  13.3643924  83.1422059  85.6511949  13.0821518  84.6262558  85.7502740
  24.6348419  79.0858582  75.2250526  25.3384269  79.2908584  75.8408182
  23.9111067  79.6535344  75.4899610  25.4646229  74.8368443  81.3452797
  25.4081430  75.2936994  80.5060429  26.0174571  74.0759128  81.1675639
  29.2751035  70.6258175  82.1702916  29.0187969  70.2254811  83.0011124
  28.6503903  71.3401969  82.0453055  33.5863373  73.3654248  84.6774208
  33.0262931  73.4347437  85.4505770  32.9806876  73.1895233  83.9573704
  16.6558581  84.7990975  86.4292394  16.5390966  85.7436408  86.3271084
  15.8351028  84.4964537  86.8178193  26.5435116  79.5241111  77.2748987
  27.3780720  79.0922309  77.0926461  26.3819459  79.3523125  78.2025881
  26.1981008  76.0273224  78.6405326  26.1429812  75.8617496  77.6993770
  25.5727063  76.7349257  78.7967516  10.9873523  71.2641289  92.4666748
  11.6332387  70.7540243  92.9553973  10.7790674  72.0009970  93.0410173
  23.5126915  78.3322136  97.9658889  24.3818075  78.5062788  97.6045524
  23.0333667  79.1516553  97.8434618  19.5077134  65.5281333  78.2190644
  19.4955803  66.4723173  78.3758915  20.4000556  65.3451479  77.9250105
  17.6813096  85.4519237  89.6448322  18.5840342  85.4842847  89.9614817
  17.4550466  84.5219688  89.6594658  19.4366698  84.2050224  86.3058401
  18.4862329  84.2052085  86.1922773  19.7399184  83.4582958  85.7894436
  23.3229253  62.1224110  82.4736581  22.5561649  61.5682597  82.6193263
  23.7339958  62.1945979  83.3350733  15.3271014  68.4108906  96.5641762
  16.1902476  68.0545711  96.7745087  14.7536425  68.0722801  97.2517167
  35.1719391  90.0410762  87.3704163  35.8097801  89.9217509  86.6667503
  35.0540234  90.9891606  87.4292115  31.9809097  89.9938190  87.3065688
  31.6427609  89.8779255  86.4186223  32.8498866  89.5929355  87.2866694
  27.8395913  91.8473667  83.2962579  27.2760778  91.7563604  82.5278867
  27.7248308  91.0273571  83.7765071  32.4628880  91.1473042  93.2651893
  32.4517521  90.7525840  92.3932397  32.6249520  90.4139115  93.8585665
  25.3860345  93.3424858  86.1346799  26.1781637  93.0015683  85.7193099
  25.6256995  93.4519833  87.0548953  33.4195472  95.5144634  78.6077044
  32.7683452  96.0998715  78.2211058  34.2139835  96.0450829  78.6672081
  27.3451099  92.6033771  79.0064178  28.1181975  92.0562759  78.8677054
  27.6976498  93.4678021  79.2178640  29.1836142  93.9310154  92.2131077
  28.8926008  94.8355785  92.0977744  29.8193126  93.9726681  92.9275147
  30.1092348  91.3087002  88.8032437  30.7055921  91.0843025  88.0889400
  30.1667320  90.5671748  89.4057885  29.6817377  88.7626438  76.6382628
  29.9342897  88.2407959  75.8766091  28.7441936  88.5992583  76.7409312
  34.7260660  87.7662216  84.4457371  35.5123749  87.3481639  84.0947788
  34.9899364  88.6708308  84.6139020  34.8970737  93.2035066  79.1446028
  34.2616570  93.2769693  79.8566933  34.5668143  93.7928665  78.4665107
  40.1269087  87.7037449  85.3490350  40.8594259  87.1336666  85.5828179
  39.3708442  87.3159050  85.7896855  29.4013666  90.6654544  78.8407003
  29.2849924  89.9899447  79.5088087  29.5115925  90.1786917  78.0239156
  31.7445206  90.1264691  82.5453692  31.3803414  89.5995312  83.2566614
  32.6012322  89.7363160  82.3720178  37.6494507  81.4159023  89.8084958
  37.3177832  82.2854434  89.5846173  37.0540120  81.0995307  90.4878989
  31.3850693  85.1554590  77.5415041  31.5525096  86.0234827  77.9085512
  31.1947863  85.3181872  76.6176330  34.1426027  93.6171569  89.2080871
  33.8426750  94.5196608  89.0996678  33.7977086  93.3503752  90.0602024
  27.5938508  90.0685366  85.2417576  26.6689005  89.9361580  85.4495267
  27.8422921  90.8479585  85.7387518  37.5423170  86.1354109  86.8878308
  36.6340048  86.0669518  86.5937069  37.4910766  86.6126054  87.7160134
  31.3639914  87.6112248  78.5261708  31.2439540  88.0569299  79.3647188
  30.6692503  87.9597566  77.9675246  24.9547319  89.7118640  86.0761365
  25.0839700  89.9653119  86.9900776  24.2744770  90.3046348  85.7566020
  29.1246806 100.3815890  82.1751839  29.0470836 101.3323715  82.2540319
  28.5208450 100.0361762  82.8326765  31.6164036  87.5543755  94.8313206
  30.8397370  88.1137675  94.8216070  32.2554599  88.0400538  95.3528076
  39.4084817  84.3370548  88.6656182  38.7659197  84.6303081  88.0195977
  38.9039745  84.2223468  89.4709379  37.0624980  88.0833721  79.3542042
  37.9742837  88.3161108  79.1789739  36.5534628  88.6670765  78.7917120
  29.8710408  90.3629208  94.3931173  30.6125093  90.9014252  94.1165996
  29.1647394  90.9895497  94.5502725  35.3465748  92.5058349  92.9903334
  35.7549104  92.0640759  92.2457967  34.6243010  91.9310976  93.2437527
  31.6996818  87.4430956  90.3636891  32.5458013  87.8670369  90.5071540
  31.6395456  86.7864580  91.0575454  35.6694563  93.0659539  86.7455623
  35.0403425  93.2305254  86.0431691  35.2820225  93.4801149  87.5166587
  39.5483795  94.0013977  84.0999987  38.8634833  94.3812879  83.5497020
  39.6327644  94.6109304  84.8331935  34.8496264  85.1035324  92.0218065
  34.6057195  85.8577384  91.4852341  35.1256194  85.4820672  92.8565312
  36.8034726  91.6473936  90.6995330  37.0151622  92.2905696  90.0229711
  36.7564475  90.8136253  90.2317260  34.4060955  84.2591757  87.6031903
  33.5445434  84.5573011  87.8948640  34.4323390  84.4762156  86.6712935
  31.2222525  92.8033948  84.0105708  31.6860870  93.0821651  83.2210331
  30.9579323  91.9017392  83.8278799  28.1146606  92.3505429  86.9485471
  28.6847963  92.7792697  86.3102956  28.7054718  92.0688014  87.6469657
  30.1591411  88.9257100  80.8195273  30.8615454  89.3778144  81.2869200
  29.8272039  88.2840919  81.4475166  28.6071772  87.5168857  95.1946483
  27.9770433  88.1985137  95.4281880  28.5007860  87.4051938  94.2499621
  23.9016745  87.1840653  86.1212407  23.1115799  87.4398181  85.6452518
  24.3927992  87.9988990  86.2264447  37.9180554  94.5245892  88.8717688
  38.7397998  94.1226079  88.5900369  37.9142957  94.4214126  89.8233804
  25.8531490  87.5485232  83.0795884  25.0562653  87.6603926  83.5979379
  25.6257082  87.8871884  82.2136774  31.6837158  94.0729935  91.0278398
  31.7481590  94.5350342  91.8636570  30.9748082  93.4427300  91.1560708
  22.1854448  87.4371143  88.5527398  22.4362486  88.3218153  88.8184974
  22.7213996  87.2575745  87.7802490  46.0086547  90.8684640  85.2202659
  45.2550256  90.2992038  85.0646664  46.1434088  90.8347305  86.1673294
  31.3985175  95.7398043  80.8957379  31.2630850  96.5849578  81.3242226
  31.9394988  95.9417320  80.1323312  27.8852515  81.8189622  97.5571734
  27.4919461  81.2655821  98.2319378  28.7018655  82.1300201  97.9478251
  24.8514573  93.2573481  81.4685304  25.3639093  94.0516731  81.6190868
  25.5037286  92.5599771  81.4018905  26.6609457  96.3739237  83.5508057
  26.8376086  97.2957202  83.3629041  27.4566291  96.0597656  83.9802437
  30.8020476  83.2347501  95.1491990  31.5430189  83.8354655  95.0696453
  31.0338399  82.4925139  94.5910033  25.9461814  88.4203869  93.4270220
  25.8315329  87.5189126  93.7277319  25.0906332  88.6667566  93.0755037
  33.0253652  96.3621609  95.0257721  32.5817506  95.5757988  94.7078625
  33.6870865  96.5500760  94.3601611  27.7840773  97.8917411  89.5518399
  28.3348198  97.7634474  88.7795393  26.9452249  98.1912300  89.2013292
  35.1234890  96.6424409  93.0539122  35.1053365  97.4633290  92.5619391
  36.0454810  96.5178484  93.2789263  31.5807944  94.1568538  93.8962630
  32.1136281  93.3956827  93.6661938  31.0522025  93.8642190  94.6386785
  34.7477639  79.2628604  89.4256272  34.4041908  80.1530246  89.3495383
  35.1156602  79.0730262  88.5625857  22.8163490  91.5862135  82.2444874
  23.6538712  91.9959143  82.0278582  22.9941757  90.6461577  82.2145068
  34.7127922  89.2537216  77.9328707  34.1974545  90.0241820  78.1717095
  34.4405230  88.5802352  78.5561769  32.2975033  84.0986916  82.9913946
  31.4416629  83.7093767  82.8119584  32.7101984  84.1778877  82.1313731
  33.8274179  81.6333260  87.3905505  33.3238975  81.5963395  86.5773311
  34.1204786  82.5426002  87.4502162  30.0717065  81.7171989  86.3971687
  30.9370062  81.5214798  86.0377577  30.1394574  81.4882341  87.3241044
  39.6862196  92.0069570  79.8681881  38.9091639  91.6680730  79.4237043
  40.3653677  92.0122193  79.1936846  34.5014225  87.1264308  79.7588488
  34.1964360  87.4410457  80.6098632  35.4544667  87.2045728  79.8015821
  32.9460657  93.2854531  81.4081442  32.4182018  92.5507291  81.0954680
  32.4448159  94.0629207  81.1621411  37.9253503  91.4803551  86.5248489
  37.2677177  92.1702813  86.6128617  38.7293902  91.8699983  86.8682475
  27.6779384  83.9474197  83.7688054  28.2523136  83.7249379  83.0361247
  28.2650367  84.0162892  84.5216655  36.7358961  89.8347924  84.5752430
  37.2490843  90.4677916  85.0774140  37.3860185  89.2349120  84.2095790
  28.0048971  85.9778658  77.7883939  27.1686284  86.3153345  78.1093214
  27.8653741  85.8427638  76.8511076  29.9802052  80.8215446  82.4963123
  29.3266464  80.5064463  81.8719738  29.9382526  80.1991187  83.2222946
  31.0913257  91.1034741  74.4116415  30.1840319  90.8723995  74.6107564
  31.5884289  90.3072360  74.5990397  33.9981336  99.8132248  77.3313102
  33.3243034 100.1163945  77.9398059  34.3847158 100.6161329  76.9818559
  33.2139792  87.3097380  86.8210771  32.2962354  87.5312327  86.6632459
  33.6299936  87.3843690  85.9622478  33.9974840  88.7088795  81.9513451
  34.7446659  89.2210193  81.6420573  34.2666430  88.3872848  82.8117845
  32.2701490  91.2047336  78.9340405  31.3612710  90.9206369  79.0312875
  32.2996574  91.6246415  78.0743712  37.5020758  94.8153926  82.7031573
  37.0483085  93.9744835  82.7596763  36.8714724  95.4515324  83.0406353
  36.4453677  85.7445912  83.9332240  35.7076434  85.2323298  84.2642483
  36.6980451  85.3046293  83.1215517  35.9453697  96.6530422  83.6381391
  36.2376671  97.2135479  82.9193757  36.4552317  96.9458983  84.3934550
  36.5465305  78.5222164  84.5274010  36.8524181  77.6619527  84.2399925
  37.2717909  79.1139784  84.3273004  22.8389661  88.9252850  82.9155608
  22.6414060  88.3322211  82.1906674  22.2836325  88.6205060  83.6331546
  30.8186384  88.8175957  85.0350201  30.8734994  87.8649793  84.9592677
  30.0077586  88.9735396  85.5191499  31.9677578  92.7456080  76.2728484
  31.5297008  92.0291939  75.8134121  32.7088019  92.9732195  75.7113575
  28.7578744  87.4353016  82.7940580  27.9446610  87.7347187  83.2005772
  29.2537738  87.0408705  83.5115062  30.9087322  97.4310773  84.7274844
  30.8663501  97.6571620  83.7983376  31.8250021  97.1974148  84.8760646
  34.3552956  87.8994841  91.6255474  34.7102344  88.1266314  92.4849939
  35.0025087  88.2313218  91.0032729  40.0850693  91.0213277  82.3304803
  39.9468591  91.2114873  81.4025992  39.7286912  91.7832660  82.7872854
  28.2492819  85.0071372  88.4101815  28.8892198  84.8660131  87.7124778
  27.4170350  84.7205885  88.0340417  40.1120072  93.0889804  87.3416074
  40.5456579  92.9965093  88.1899128  40.8251653  93.0647304  86.7036090
  29.0253123  94.3073802  84.5236807  29.8193721  93.8124123  84.3219382
  28.3144815  93.7791665  84.1604513  33.8447967  96.6891898  88.8749175
  33.8984990  97.2582834  89.6426891  32.9762749  96.8593783  88.5103212
  25.3335886  88.4516884  80.5996560  24.4033474  88.3901340  80.8166522
  25.4293358  87.9292837  79.8033201  25.2521435  84.9771697  83.1874801
  25.5128253  85.8917030  83.0783962  26.0738608  84.5096139  83.3371414
  26.7246361  86.3909454  90.3573626  27.3969414  86.1826816  89.7086275
  25.8976147  86.1931540  89.9178858  40.9735622  93.1313504  89.8748960
  41.1671512  94.0359315  90.1208234  40.8736240  92.6720924  90.7087545
  32.6271933  83.0171395  92.3739287  31.9799848  83.7161345  92.2803763
  33.3972948  83.4507539  92.7415535  36.0350731  93.2820247  95.4489840
  35.8836237  93.0530799  94.5319924  36.0255410  94.2390849  95.4621185
  32.8036067  90.8552160  90.4336107  33.7328127  91.0063320  90.2605074
  32.3827097  90.9436181  89.5784753  31.6024399  94.8802824  88.2034644
  31.4635485  94.5121609  89.0760582  30.8138995  95.3950464  88.0318602
  32.1972551  99.9811921  79.5460181  32.3724307  99.5099964  80.3605803
  31.5105339 100.6077687  79.7741441  33.1529614  94.2584427  85.5923482
  32.8179447  94.2185197  86.4881132  32.6533560  93.5929143  85.1193892
  27.1273858  89.6652057  91.1176063  26.9893656  88.9332296  91.7187602
  28.0378781  89.5760957  90.8360251  36.0888806  91.6040461  75.8660542
  35.4717976  90.8787290  75.7693594  35.6205294  92.3649822  75.5227616
  29.7556159  89.3772016  90.6059743  30.4655777  88.7365209  90.5646361
  29.7125467  89.6284911  91.5285924  37.7442937  96.3139370  93.5266322
  37.6855483  95.6298590  92.8596905  38.1462456  97.0558360  93.0746948
  28.4685093  86.3637234  92.4255382  27.9322450  85.9127973  93.0776979
  27.8801801  86.4983143  91.6825847  26.7633636 103.1301284  86.3200041
  27.0030234 103.7619808  86.9979059  25.9202833 102.7789324  86.6065400
  27.8787352  85.8225886  74.9881846  27.0016818  85.7014686  74.6244093
  28.3545105  85.0311964  74.7360735  37.7460345  94.2778954  91.7580302
  36.8587123  93.9404875  91.8806701  38.3158896  93.5461985  91.9949067
  19.3989492  90.6103045  85.0823353  20.0860532  90.2964775  84.4944368
  19.2437620  91.5144410  84.8090604  24.2024214  85.4993242  89.5108377
  24.1182403  84.8918912  88.7758787  23.3806920  85.9902260  89.5117873
  31.2761498  98.9380406  88.7241545  31.2031669  99.7435378  89.2360849
  30.8338891  99.1372372  87.8989566  31.0651278  98.1752176  82.2344366
  30.2818800  98.7173856  82.3282591  31.7644023  98.6926156  82.6338608
  34.3747928  83.9846806  84.8778572  34.8716627  83.2316768  84.5579642
  33.6034909  84.0211122  84.3121781  42.2277685  89.6887171  86.5196863
  42.2167561  90.5711886  86.1490796  41.3595065  89.3358722  86.3251400
  33.7360182  98.8367240  90.8799704  34.4488154  99.4714705  90.8075605
  33.2450210  98.9331106  90.0639705  35.4577708  92.7418493  82.4516995
  34.5233987  92.8619955  82.2821700  35.6354377  91.8390960  82.1877005
  30.9582896  86.1264189  84.6050256  30.5880684  85.5735229  85.2931162
  31.4541989  85.5222322  84.0525256  38.8450260  88.5835812  82.9867029
  39.3110712  89.4163804  82.9127332  39.2957760  88.1180794  83.6912288
  28.7872095  96.5861684  91.7005274  29.4881555  97.2198166  91.8534669
  28.3167210  96.9276415  90.9400914  36.9126491  94.9279633  79.9853181
  37.1886335  94.8136228  80.8947055  36.0430990  94.5297118  79.9465354
  36.8166923  80.9516399  87.0257931  35.9030002  81.1820626  87.1940138
  37.2460024  81.0354843  87.8771963  36.5873381  89.1406291  89.5257825
  35.9344831  89.3882198  88.8710277  36.9653761  88.3270429  89.1920302
  33.5480555  99.1765984  83.6285995  33.7302949  98.3587640  84.0913747
  34.3713541  99.3933676  83.1910885  33.8822720  98.1034169  80.8901043
  34.4110487  97.5926624  80.2771206  34.1450940  97.7876699  81.7546576
  32.6360954  89.8826102  96.0123862  31.9601591  89.7820231  96.6826237
  33.4588588  89.7265316  96.4759859  24.3839813  96.1198039  88.6336377
  24.9693250  95.3741726  88.7664281  24.1864652  96.4301995  89.5173041
  27.2378468  99.1549286  83.6498819  26.5688844  99.6395414  83.1662859
  27.0991338  99.4018506  84.5642198  18.9757468  88.6903639  87.3540820
  19.0141567  88.1567229  88.1477938  18.4697761  88.1638844  86.7351797
  31.3783737 101.1893029  90.2481478  31.9302045 101.3524651  91.0130563
  31.7189930 101.7797467  89.5761503  26.3548230  83.5368179  90.8503362
  26.4189557  84.3983010  90.4380760  26.2915350  82.9242181  90.1175721
  25.8300503  85.6091312  94.4976397  26.4572541  85.2268389  95.1113921
  24.9728422  85.3905514  94.8632089  36.2294611  96.0154287  96.1030132
  36.7734515  96.6284245  95.6085087  35.6481456  96.5733865  96.6197145
  22.6066045  87.4167741  80.4294752  22.9019487  86.5078419  80.3761805
  21.7054081  87.3955480  80.1075754  34.5152124  99.1375005  87.2345160
  34.3903264  98.3364745  86.7256105  35.1731215  99.6321198  86.7459130
  26.1360292  85.4923738  86.4122300  25.4146878  86.1059705  86.2729773
  26.9253548  86.0281502  86.3338946  36.5787033  96.9384025  88.8624710
  35.6317368  96.8189376  88.7903037  36.9269806  96.0506523  88.9450971
  28.9386606  82.8278164  92.6862952  29.4621008  83.0740461  93.4489261
  28.7198939  83.6598199  92.2666089  24.3353887  85.0981839  80.5534077
  24.0066593  84.2179218  80.3709183  24.6893258  85.0429507  81.4410466
  33.5833466  96.7336741  85.0629062  33.4358428  95.8053449  85.2436632
  34.4086959  96.7556832  84.5786137  27.4495710  85.3854808  80.9209554
  27.7891783  85.9140730  80.1988163  27.8967831  85.7235215  81.6968121
  37.1867588  97.5565300  86.1493935  38.1114135  97.3508161  86.0118386
  37.0182891  97.3081701  87.0583276  30.1439151  83.7691859  90.3712622
  29.8035971  82.9699672  90.7733302  29.4378157  84.0693570  89.7989456
  30.7955623  80.8541172  88.8239945  31.6181692  80.3801650  88.7018836
  31.0393686  81.6331655  89.3238632  29.4363857  83.8829430  79.1202847
  30.1572220  84.2610683  78.6166564  28.8129161  84.6018307  79.2237825
  33.5794980  84.5874579  80.0561179  33.7958595  85.4699217  79.7550008
  33.0989047  84.1960792  79.3266821  28.3194202  87.5460292  86.6331924
  28.1738782  87.8600595  87.5256206  27.8419405  88.1645193  86.0802823
  30.1790584  84.5362840  86.6812814  30.1652153  83.6403933  86.3445112
  30.8963013  84.5433504  87.3151100  32.0316715  84.9700180  88.7265941
  31.7734493  85.8917251  88.7250271  31.5001756  84.5730615  89.4166405
  36.9762904  98.0750967  81.5056026  37.1499781  97.5097390  80.7529879
  37.4691795  98.8751862  81.3235516  22.7939864  90.0865637  89.5719585
  22.2493332  90.8625445  89.7039860  23.6719214  90.4336441  89.4138707
  29.5827480  83.4177220  81.9500384  29.7043392  82.4893867  82.1491271
  29.2929523  83.4315906  81.0378699  32.4518671  81.1032131  85.0867104
  32.4740368  81.1671464  84.1319083  32.8686730  80.2636640  85.2807610
  42.8302295  90.8387390  83.1246326  43.2733441  90.0894716  82.7265449
  41.9528805  90.8297527  82.7420058  37.9638076  97.3917732  78.6052925
  38.6588981  98.0124425  78.8240239  38.3061227  96.5413083  78.8805303
  23.5805886  89.2135533  92.4649742  22.8387622  89.3618168  93.0514373
  23.2598630  89.4743798  91.6016492  39.8629500  94.8417437  80.1340255
  40.3880824  95.1804710  79.4089576  39.7751852  93.9064453  79.9503390
  31.5249548  98.7551511  92.2630132  31.8336675  98.5100658  93.1352832
  32.3225030  98.9598150  91.7749002  31.5470160 100.9089421  84.4935509
  31.1075151 100.4165799  85.1868365  32.2978277 100.3662388  84.2527584
  24.0262499  97.1000962  84.4960137  24.8520519  96.8004733  84.1158780
  23.6756551  96.3308584  84.9449925  28.9944032  96.4527430  86.5657810
  28.3724042  95.7898135  86.2660038  29.6648899  96.4788562  85.8831458
  22.2271104  95.0187288  85.4549070  21.3903013  94.5909462  85.2733072
  22.1994750  95.2119731  86.3919862  29.0668560  84.9309218  96.1590316
  29.1156715  85.8071341  95.7768086  29.6091074  84.3886611  95.5861960
  39.5523406  95.4750341  95.4391453  38.7618949  95.4574480  94.8995953
  39.3156760  96.0138635  96.1940490  39.6721281  92.3242807  92.7524182
  39.7219286  92.1592815  93.6939705  39.5635204  91.4570066  92.3622063
  28.5557539  95.0031353  80.0416271  28.7045660  95.6866818  79.3882944
  29.3623983  94.9836443  80.5565727  36.9625043  88.3073735  94.0683489
  37.8634906  88.1680200  93.7767486  37.0373018  88.4728190  95.0081666
  31.2967848  85.6840590  92.9136675  30.4271158  85.9774156  92.6419264
  31.5327329  86.2681035  93.6343939  41.1739477  94.7439749  92.9966204
  40.8824286  95.1069730  93.8329664  40.5611609  94.0306757  92.8179536
  42.3735160  92.3092629  85.5168774  43.2082051  92.7482433  85.6806334
  42.5094289  91.8331282  84.6977020  39.4226666  89.8672364  91.4646262
  39.8980787  90.0600010  90.6565113  38.4992231  89.9231549  91.2189645
  26.3110172  91.0296531  81.0477340  26.0656214  90.1258861  81.2457550
  26.4806087  91.0313681  80.1056818  34.0006882  81.9020207  90.4302095
  34.5188826  82.6381234  90.1048584  33.6462015  82.2084200  91.2648855
  25.5805820  86.7624888  78.5463501  24.8875065  86.8369243  77.8903537
  25.3357572  85.9985232  79.0685018  34.2519476  78.3220490  85.9502992
  34.5321230  77.6543679  86.5763419  35.0370083  78.5149585  85.4377656
  32.0552945  97.4979484  77.5128018  31.4826912  98.1169671  77.0598490
  32.6285739  98.0478845  78.0467940  38.1228335  86.7438124  89.6974567
  39.0745758  86.8436221  89.7186791  37.9531785  85.9516392  90.2072651
  36.1442714  83.8293707  89.8833968  35.5492646  84.1098720  89.1880457
  35.8592411  84.3187608  90.6550709  35.2750205  97.7816634  78.6436601
  36.2080878  97.7162195  78.8469476  35.1873417  98.6172901  78.1851133
  37.9038221  97.0982504  75.6040548  37.8251853  96.7642368  76.4976306
  38.7247888  97.5904272  75.6032020  40.6016413  89.9644243  88.8116867
  40.5692733  89.0260244  88.9976551  41.2117036  90.0428280  88.0782692
  32.4399743  88.8340296  74.8544071  33.3858848  88.7046504  74.9232489
  32.0613988  88.0954958  75.3313499  40.7510901  86.7555287  88.8575150
  40.2349950  85.9713743  88.6705079  41.6350850  86.4274003  89.0221669
  38.4121628  80.4996302  84.8170963  38.2146449  80.1911391  85.7014295
  39.0221333  81.2257941  84.9468892  46.4192962  91.0260250  87.9522904
  47.1496351  90.7645538  88.5130607  45.8099908  90.2888972  87.9924972
  44.5008259  89.1668113  88.5497355  43.7741423  89.0324078  87.9413846
  44.0855546  89.4744941  89.3554073  32.3238436  92.8858042  96.3144728
  33.2441445  93.0636641  96.5084774  32.2888019  91.9414088  96.1624427
  30.6242661  86.7590273  74.7898956  29.7174116  86.4623385  74.8661670
  30.9018642  86.4620091  73.9233242  21.5420601  88.0796636  85.2398002
  21.2223385  87.2261944  84.9472376  20.9954029  88.2945214  85.9955970
  25.3200508  90.7959077  88.9567509  25.5386518  91.7276185  88.9755543
  25.7326282  90.4367052  89.7422313  32.2404726  81.3027162  80.9443197
  31.4305455  80.9574247  81.3198443  32.9289143  80.9934706  81.5330809
  34.1695275  80.3805209  82.5667494  34.7226313  80.8000663  83.2257517
  34.4065361  79.4540957  82.6090450  30.1928374  86.3692283  98.3470258
  30.0925101  87.3186640  98.2782349  29.9749916  86.0410522  97.4746328
  29.3941445  83.6177208  74.9310935  30.2560609  83.9432106  75.1906753
  29.5791789  82.8308704  74.4184001  21.4108861  91.6999548  87.2091124
  20.7172332  91.2853500  86.6961078  22.1581852  91.7420084  86.6124543
  37.5474082  82.4905734  82.0746158  36.9672751  83.1490538  81.6924211
  37.2810014  81.6683079  81.6633576  35.9977648  81.8910792  84.2767479
  36.4977426  82.0027327  83.4681797  36.6413256  81.5871845  84.9168287
  30.0559644  89.7989422  97.1635320  29.5726726  90.5989782  97.3699209
  30.1420583  89.8097367  96.2102764  23.3245603  91.6317801  85.0857139
  23.3016292  91.7305489  84.1339022  23.6346240  92.4782952  85.4074305
  25.9832981  93.6893956  89.2003753  26.9376235  93.6577899  89.1333685
  25.7845505  93.2284580  90.0153979  26.5732363  92.2595072  91.7674551
  27.3925252  92.7539151  91.7909388  26.8469171  91.3427041  91.7392118
  36.3298960  84.6505825  81.1302507  35.4424815  84.9355475  80.9122701
  36.7452949  84.4899588  80.2829783  39.6813496  84.6752346  84.8456846
  40.4573886  85.1648798  85.1181463  38.9561630  85.1010400  85.3028715
  42.1186054  85.3879965  85.9030786  42.7130545  85.1475701  85.1924095
  42.1912638  84.6687096  86.5304323  24.3383210  99.2313576  86.2173951
  24.2037678  98.4713977  85.6511949  23.9215272  99.9554476  85.7502740
  35.4742173  94.4150499  75.2250526  36.1778023  94.6200502  75.8408182
  34.7504822  94.9827261  75.4899610  36.3039983  90.1660361  81.3452797
  36.2475185  90.6228912  80.5060429  36.8568326  89.4051045  81.1675639
  40.1144789  85.9550093  82.1702916  39.8581724  85.5546728  83.0011124
  39.4897657  86.6693887  82.0453055  44.4257127  88.6946166  84.6774208
  43.8656685  88.7639355  85.4505770  43.8200631  88.5187150  83.9573704
  27.4952336 100.1282893  86.4292394  27.3784720 101.0728325  86.3271084
  26.6744782  99.8256454  86.8178193  37.3828871  94.8533029  77.2748987
  38.2174474  94.4214227  77.0926461  37.2213213  94.6815042  78.2025881
  37.0374763  91.3565142  78.6405326  36.9823566  91.1909413  77.6993770
  36.4120818  92.0641175  78.7967516  21.8267278  86.5933206  92.4666748
  22.4726141  86.0832160  92.9553973  21.6184429  87.3301888  93.0410173
  34.3520670  93.6614054  97.9658889  35.2211830  93.8354706  97.6045524
  33.8727421  94.4808471  97.8434618  30.3470888  80.8573251  78.2190644
  30.3349558  81.8015091  78.3758915  31.2394310  80.6743396  77.9250105
  28.5206850 100.7811155  89.6448322  29.4234097 100.8134765  89.9614817
  28.2944220  99.8511606  89.6594658  30.2760452  99.5342141  86.3058401
  29.3256083  99.5344003  86.1922773  30.5792938  98.7874876  85.7894436
  34.1623008  77.4516028  82.4736581  33.3955403  76.8974514  82.6193263
  34.5733713  77.5237896  83.3350733  26.1664769  83.7400823  96.5641762
  27.0296230  83.3837628  96.7745087  25.5930179  83.4014718  97.2517167
  46.0113146 105.3702680  87.3704163  46.6491556 105.2509427  86.6667503
  45.8933988 106.3183524  87.4292115  42.8202852 105.3230108  87.3065688
  42.4821363 105.2071173  86.4186223  43.6892620 104.9221273  87.2866694
  38.6789668 107.1765584  83.2962579  38.1154533 107.0855521  82.5278867
  38.5642063 106.3565489  83.7765071  43.3022635 106.4764960  93.2651893
  43.2911276 106.0817758  92.3932397  43.4643274 105.7431032  93.8585665
  36.2254100 108.6716776  86.1346799  37.0175391 108.3307601  85.7193099
  36.4650750 108.7811751  87.0548953  44.2589226 110.8436552  78.6077044
  43.6077206 111.4290632  78.2211058  45.0533589 111.3742747  78.6672081
  38.1844853 107.9325689  79.0064178  38.9575729 107.3854676  78.8677054
  38.5370252 108.7969938  79.2178640  40.0229896 109.2602071  92.2131077
  39.7319762 110.1647702  92.0977744  40.6586880 109.3018599  92.9275147
  40.9486103 106.6378920  88.8032437  41.5449675 106.4134942  88.0889400
  41.0061074 105.8963665  89.4057885  40.5211131 104.0918355  76.6382628
  40.7736652 103.5699877  75.8766091  39.5835690 103.9284501  76.7409312
  45.5654414 103.0954134  84.4457371  46.3517503 102.6773557  84.0947788
  45.8293118 104.0000226  84.6139020  45.7364491 108.5326984  79.1446028
  45.1010324 108.6061610  79.8566933  45.4061898 109.1220583  78.4665107
  50.9662841 103.0329367  85.3490350  51.6988013 102.4628584  85.5828179
  50.2102197 102.6450967  85.7896855  40.2407420 105.9946461  78.8407003
  40.1243678 105.3191365  79.5088087  40.3509680 105.5078835  78.0239156
  42.5838961 105.4556608  82.5453692  42.2197168 104.9287229  83.2566614
  43.4406077 105.0655077  82.3720178  48.4888262  96.7450941  89.8084958
  48.1571586  97.6146352  89.5846173  47.8933875  96.4287225  90.4878989
  42.2244448 100.4846508  77.5415041  42.3918850 101.3526744  77.9085512
  42.0341617 100.6473790  76.6176330  44.9819781 108.9463487  89.2080871
  44.6820504 109.8488526  89.0996678  44.6370841 108.6795670  90.0602024
  38.4332263 105.3977284  85.2417576  37.5082759 105.2653498  85.4495267
  38.6816676 106.1771503  85.7387518  48.3816925 101.4646027  86.8878308
  47.4733802 101.3961436  86.5937069  48.3304521 101.9417972  87.7160134
  42.2033669 102.9404166  78.5261708  42.0833294 103.3861216  79.3647188
  41.5086257 103.2889483  77.9675246  35.7941074 105.0410557  86.0761365
  35.9233455 105.2945036  86.9900776  35.1138525 105.6338265  85.7566020
  42.4557791 102.8835673  94.8313206  41.6791125 103.4429593  94.8216070
  43.0948354 103.3692456  95.3528076  50.2478571  99.6662465  88.6656182
  49.6052952  99.9594999  88.0195977  49.7433500  99.5515386  89.4709379
  47.9018735 103.4125639  79.3542042  48.8136591 103.6453025  79.1789739
  47.3928382 103.9962683  78.7917120  40.7104163 105.6921126  94.3931173
  41.4518847 106.2306170  94.1165996  40.0041148 106.3187415  94.5502725
  46.1859503 107.8350267  92.9903334  46.5942859 107.3932677  92.2457967
  45.4636764 107.2602894  93.2437527  42.5390573 102.7722873  90.3636891
  43.3851768 103.1962287  90.5071540  42.4789210 102.1156498  91.0575454
  46.5088317 108.3951457  86.7455623  45.8797180 108.5597171  86.0431691
  46.1213979 108.8093067  87.5166587  50.3877549 109.3305895  84.0999987
  49.7028587 109.7104796  83.5497020  50.4721398 109.9401222  84.8331935
  45.6890018 100.4327242  92.0218065  45.4450950 101.1869302  91.4852341
  45.9649949 100.8112589  92.8565312  47.6428481 106.9765854  90.6995330
  47.8545376 107.6197614  90.0229711  47.5958229 106.1428171  90.2317260
  45.2454710  99.5883675  87.6031903  44.3839189  99.8864928  87.8948640
  45.2717144  99.8054074  86.6712935  42.0616279 108.1325865  84.0105708
  42.5254625 108.4113568  83.2210331  41.7973077 107.2309310  83.8278799
  38.9540360 107.6797347  86.9485471  39.5241717 108.1084615  86.3102956
  39.5448472 107.3979931  87.6469657  40.9985165 104.2549018  80.8195273
  41.7009209 104.7070061  81.2869200  40.6665794 103.6132836  81.4475166
  39.4465527 102.8460774  95.1946483  38.8164187 103.5277055  95.4281880
  39.3401615 102.7343856  94.2499621  34.7410499 102.5132570  86.1212407
  33.9509553 102.7690099  85.6452518  35.2321747 103.3280908  86.2264447
  48.7574309 109.8537809  88.8717688  49.5791752 109.4517997  88.5900369
  48.7536712 109.7506044  89.8233804  36.6925245 102.8777150  83.0795884
  35.8956408 102.9895844  83.5979379  36.4650837 103.2163802  82.2136774
  42.5230912 109.4021853  91.0278398  42.5875345 109.8642260  91.8636570
  41.8141836 108.7719218  91.1560708  33.0248202 102.7663061  88.5527398
  33.2756241 103.6510071  88.8184974  33.5607751 102.5867662  87.7802490
  56.8480302 106.1976558  85.2202659  56.0944010 105.6283956  85.0646664
  56.9827843 106.1639222  86.1673294  42.2378930 111.0689960  80.8957379
  42.1024605 111.9141496  81.3242226  42.7788742 111.2709238  80.1323312
  38.7246269  97.1481540  97.5571734  38.3313215  96.5947739  98.2319378
  39.5412410  97.4592119  97.9478251  35.6908327 108.5865398  81.4685304
  36.2032848 109.3808649  81.6190868  36.3431040 107.8891689  81.4018905
  37.5003212 111.7031155  83.5508057  37.6769840 112.6249119  83.3629041
  38.2960045 111.3889574  83.9802437  41.6414230  98.5639419  95.1491990
  42.3823944  99.1646572  95.0696453  41.8732153  97.8217057  94.5910033
  36.7855568 103.7495786  93.4270220  36.6709084 102.8481044  93.7277319
  35.9300086 103.9959483  93.0755037  43.8647406 111.6913527  95.0257721
  43.4211260 110.9049905  94.7078625  44.5264620 111.8792677  94.3601611
  38.6234527 113.2209328  89.5518399  39.1741952 113.0926392  88.7795393
  37.7846003 113.5204217  89.2013292  45.9628644 111.9716327  93.0539122
  45.9447120 112.7925208  92.5619391  46.8848564 111.8470402  93.2789263
  42.4201698 109.4860456  93.8962630  42.9530035 108.7248744  93.6661938
  41.8915780 109.1934108  94.6386785  45.5871393  94.5920522  89.4256272
  45.2435663  95.4822164  89.3495383  45.9550356  94.4022180  88.5625857
  33.6557244 106.9154053  82.2444874  34.4932466 107.3251061  82.0278582
  33.8335512 105.9753495  82.2145068  45.5521676 104.5829133  77.9328707
  45.0368300 105.3533738  78.1717095  45.2798985 103.9094269  78.5561769
  43.1368787  99.4278834  82.9913946  42.2810383  99.0385684  82.8119584
  43.5495739  99.5070795  82.1313731  44.6667934  96.9625177  87.3905505
  44.1632729  96.9255312  86.5773311  44.9598541  97.8717920  87.4502162
  40.9110820  97.0463907  86.3971687  41.7763816  96.8506716  86.0377577
  40.9788329  96.8174259  87.3241044  50.5255950 107.3361488  79.8681881
  49.7485393 106.9972647  79.4237043  51.2047431 107.3414111  79.1936846
  45.3407979 102.4556225  79.7588488  45.0358115 102.7702374  80.6098632
  46.2938421 102.5337645  79.8015821  43.7854411 108.6146449  81.4081442
  43.2575773 107.8799208  81.0954680  43.2841914 109.3921125  81.1621411
  48.7647257 106.8095469  86.5248489  48.1070932 107.4994731  86.6128617
  49.5687656 107.1991901  86.8682475  38.5173139  99.2766115  83.7688054
  39.0916891  99.0541296  83.0361247  39.1044121  99.3454809  84.5216655
  47.5752716 105.1639842  84.5752430  48.0884598 105.7969834  85.0774140
  48.2253940 104.5641037  84.2095790  38.8442726 101.3070576  77.7883939
  38.0080038 101.6445262  78.1093214  38.7047495 101.1719556  76.8511076
  40.8195806  96.1507364  82.4963123  40.1660219  95.8356381  81.8719738
  40.7776281  95.5283104  83.2222946  41.9307011 106.4326659  74.4116415
  41.0234073 106.2015912  74.6107564  42.4278043 105.6364278  74.5990397
  44.8375090 115.1424166  77.3313102  44.1636789 115.4455863  77.9398059
  45.2240912 115.9453246  76.9818559  44.0533547 102.6389297  86.8210771
  43.1356108 102.8604244  86.6632459  44.4693690 102.7135608  85.9622478
  44.8368595 104.0380713  81.9513451  45.5840414 104.5502110  81.6420573
  45.1060184 103.7164766  82.8117845  43.1095245 106.5339254  78.9340405
  42.2006464 106.2498287  79.0312875  43.1390329 106.9538332  78.0743712
  48.3414512 110.1445843  82.7031573  47.8876839 109.3036753  82.7596763
  47.7108479 110.7807242  83.0406353  47.2847432 101.0737829  83.9332240
  46.5470189 100.5615215  84.2642483  47.5374205 100.6338211  83.1215517
  46.7847451 111.9822340  83.6381391  47.0770426 112.5427397  82.9193757
  47.2946072 112.2750901  84.3934550  47.3859059  93.8514081  84.5274010
  47.6917936  92.9911445  84.2399925  48.1111664  94.4431701  84.3273004
  33.6783415 104.2544768  82.9155608  33.4807815 103.6614129  82.1906674
  33.1230079 103.9496978  83.6331546  41.6580139 104.1467874  85.0350201
  41.7128749 103.1941711  84.9592677  40.8471341 104.3027313  85.5191499
  42.8071333 108.0747997  76.2728484  42.3690762 107.3583856  75.8134121
  43.5481773 108.3024112  75.7113575  39.5972499 102.7644934  82.7940580
  38.7840364 103.0639105  83.2005772  40.0931493 102.3700623  83.5115062
  41.7481077 112.7602691  84.7274844  41.7057255 112.9863537  83.7983376
  42.6643775 112.5266066  84.8760646  45.1946710 103.2286759  91.6255474
  45.5496098 103.4558232  92.4849939  45.8418842 103.5605135  91.0032729
  50.9244447 106.3505194  82.3304803  50.7862346 106.5406790  81.4025992
  50.5680666 107.1124577  82.7872854  39.0886573 100.3363290  88.4101815
  39.7285953 100.1952049  87.7124778  38.2564104 100.0497803  88.0340417
  50.9513827 108.4181721  87.3416074  51.3850334 108.3257011  88.1899128
  51.6645408 108.3939222  86.7036090  39.8646877 109.6365720  84.5236807
  40.6587476 109.1416040  84.3219382  39.1538570 109.1083583  84.1604513
  44.6841722 112.0183816  88.8749175  44.7378744 112.5874752  89.6426891
  43.8156503 112.1885701  88.5103212  36.1729641 103.7808802  80.5996560
  35.2427229 103.7193257  80.8166522  36.2687113 103.2584755  79.8033201
  36.0915190 100.3063615  83.1874801  36.3522007 101.2208948  83.0783962
  36.9132362  99.8388057  83.3371414  37.5640115 101.7201372  90.3573626
  38.2363169 101.5118734  89.7086275  36.7369902 101.5223458  89.9178858
  51.8129377 108.4605422  89.8748960  52.0065267 109.3651233  90.1208234
  51.7129995 108.0012841  90.7087545  43.4665687  98.3463313  92.3739287
  42.8193602  99.0453262  92.2803763  44.2366703  98.7799457  92.7415535
  46.8744485 108.6112165  95.4489840  46.7229992 108.3822717  94.5319924
  46.8649165 109.5682766  95.4621185  43.6429822 106.1844078  90.4336107
  44.5721882 106.3355237  90.2605074  43.2220852 106.2728098  89.5784753
  42.4418153 110.2094742  88.2034644  42.3029239 109.8413526  89.0760582
  41.6532750 110.7242381  88.0318602  43.0366305 115.3103838  79.5460181
  43.2118061 114.8391882  80.3605803  42.3499093 115.9369605  79.7741441
  43.9923369 109.5876345  85.5923482  43.6573201 109.5477115  86.4881132
  43.4927314 108.9221061  85.1193892  37.9667612 104.9943975  91.1176063
  37.8287410 104.2624214  91.7187602  38.8772536 104.9052875  90.8360251
  46.9282560 106.9332379  75.8660542  46.3111731 106.2079207  75.7693594
  46.4599049 107.6941739  75.5227616  40.5949913 104.7063934  90.6059743
  41.3049532 104.0657126  90.5646361  40.5519221 104.9576829  91.5285924
  48.5836692 111.6431287  93.5266322  48.5249238 110.9590508  92.8596905
  48.9856210 112.3850277  93.0746948  39.3078847 101.6929152  92.4255382
  38.7716204 101.2419890  93.0776979  38.7195556 101.8275061  91.6825847
  38.7181106 101.1517803  74.9881846  37.8410572 101.0306604  74.6244093
  39.1938859 100.3603882  74.7360735  48.5854099 109.6070871  91.7580302
  47.6980878 109.2696793  91.8806701  49.1552650 108.8753903  91.9949067
  30.2383246 105.9394963  85.0823353  30.9254286 105.6256693  84.4944368
  30.0831375 106.8436328  84.8090604  35.0417968 100.8285160  89.5108377
  34.9576157 100.2210829  88.7758787  34.2200675 101.3194178  89.5117873
  42.1155252 114.2672324  88.7241545  42.0425424 115.0727295  89.2360849
  41.6732646 114.4664290  87.8989566  41.9045032 113.5044094  82.2344366
  41.1212554 114.0465774  82.3282591  42.6037777 114.0218073  82.6338608
  45.2141682  99.3138723  84.8778572  45.7110382  98.5608686  84.5579642
  44.4428664  99.3503040  84.3121781  53.0671440 105.0179089  86.5196863
  53.0561316 105.9003804  86.1490796  52.1988819 104.6650640  86.3251400
  44.5753936 114.1659158  90.8799704  45.2881908 114.8006623  90.8075605
  44.0843965 114.2623024  90.0639705  46.2971463 108.0710410  82.4516995
  45.3627742 108.1911873  82.2821700  46.4748131 107.1682877  82.1877005
  41.7976651 101.4556106  84.6050256  41.4274438 100.9027147  85.2931162
  42.2935743 100.8514240  84.0525256  49.6844014 103.9127730  82.9867029
  50.1504466 104.7455721  82.9127332  50.1351515 103.4472711  83.6912288
  39.6265850 111.9153601  91.7005274  40.3275309 112.5490084  91.8534669
  39.1560965 112.2568333  90.9400914  47.7520245 110.2571551  79.9853181
  48.0280089 110.1428146  80.8947055  46.8824744 109.8589036  79.9465354
  47.6560677  96.2808317  87.0257931  46.7423757  96.5112544  87.1940138
  48.0853778  96.3646761  87.8771963  47.4267136 104.4698209  89.5257825
  46.7738586 104.7174116  88.8710277  47.8047515 103.6562347  89.1920302
  44.3874309 114.5057902  83.6285995  44.5696704 113.6879558  84.0913747
  45.2107295 114.7225594  83.1910885  44.7216475 113.4326087  80.8901043
  45.2504241 112.9218542  80.2771206  44.9844694 113.1168617  81.7546576
  43.4754709 105.2118020  96.0123862  42.7995346 105.1112149  96.6826237
  44.2982342 105.0557233  96.4759859  35.2233568 111.4489956  88.6336377
  35.8087004 110.7033644  88.7664281  35.0258406 111.7593913  89.5173041
  29.8151222 104.0195556  87.3540820  29.8535322 103.4859147  88.1477938
  29.3091515 103.4930762  86.7351797  37.1941985  98.8660097  90.8503362
  37.2583311  99.7274928  90.4380760  37.1309105  98.2534099  90.1175721
  36.6694257 100.9383230  94.4976397  37.2966296 100.5560307  95.1113921
  35.8122176 100.7197431  94.8632089  47.0688366 111.3446205  96.1030132
  47.6128270 111.9576163  95.6085087  46.4875211 111.9025783  96.6197145
  33.4459800 102.7459659  80.4294752  33.7413241 101.8370337  80.3761805
  32.5447836 102.7247398  80.1075754  45.3545879 114.4666923  87.2345160
  45.2297018 113.6656663  86.7256105  46.0124970 114.9613116  86.7459130
  36.9754047 100.8215655  86.4122300  36.2540633 101.4351623  86.2729773
  37.7647303 101.3573420  86.3338946  47.4180787 112.2675943  88.8624710
  46.4711123 112.1481294  88.7903037  47.7663560 111.3798441  88.9450971
  39.7780360  98.1570082  92.6862952  40.3014762  98.4032378  93.4489261
  39.5592694  98.9890116  92.2666089  35.1747642 100.4273756  80.5534077
  34.8460348  99.5471135  80.3709183  35.5287012 100.3721425  81.4410466
  44.4227220 112.0628659  85.0629062  44.2752183 111.1345366  85.2436632
  45.2480714 112.0848750  84.5786137  38.2889465 100.7146726  80.9209554
  38.6285537 101.2432647  80.1988163  38.7361585 101.0527132  81.6968121
  48.0261342 112.8857218  86.1493935  48.9507890 112.6800079  86.0118386
  47.8576646 112.6373619  87.0583276  40.9832905  99.0983777  90.3712622
  40.6429726  98.2991590  90.7733302  40.2771912  99.3985488  89.7989456
  41.6349377  96.1833089  88.8239945  42.4575447  95.7093567  88.7018836
  41.8787441  96.9623573  89.3238632  40.2757612  99.2121348  79.1202847
  40.9965974  99.5902600  78.6166564  39.6522916  99.9310224  79.2237825
  44.4188735  99.9166497  80.0561179  44.6352349 100.7991135  79.7550008
  43.9382802  99.5252710  79.3266821  39.1587956 102.8752210  86.6331924
  39.0132537 103.1892513  87.5256206  38.6813160 103.4937110  86.0802823
  41.0184339  99.8654758  86.6812814  41.0045908  98.9695851  86.3445112
  41.7356767  99.8725422  87.3151100  42.8710470 100.2992098  88.7265941
  42.6128247 101.2209169  88.7250271  42.3395510  99.9022533  89.4166405
  47.8156658 113.4042885  81.5056026  47.9893536 112.8389308  80.7529879
  48.3085550 114.2043780  81.3235516  33.6333618 105.4157554  89.5719585
  33.0887086 106.1917362  89.7039860  34.5112968 105.7628359  89.4138707
  40.4221235  98.7469138  81.9500384  40.5437146  97.8185784  82.1491271
  40.1323277  98.7607824  81.0378699  43.2912425  96.4324049  85.0867104
  43.3134122  96.4963382  84.1319083  43.7080484  95.5928557  85.2807610
  53.6696050 106.1679308  83.1246326  54.1127196 105.4186633  82.7265449
  52.7922560 106.1589444  82.7420058  48.8031831 112.7209650  78.6052925
  49.4982736 113.3416342  78.8240239  49.1454981 111.8705001  78.8805303
  34.4199640 104.5427451  92.4649742  33.6781376 104.6910086  93.0514373
  34.0992384 104.8035716  91.6016492  50.7023254 110.1709355  80.1340255
  51.2274578 110.5096628  79.4089576  50.6145607 109.2356370  79.9503390
  42.3643303 114.0843429  92.2630132  42.6730429 113.8392576  93.1352832
  43.1618785 114.2890067  91.7749002  34.8656254 112.4292879  84.4960137
  35.6914274 112.1296651  84.1158780  34.5150306 111.6600502  84.9449925
  39.8337787 111.7819347  86.5657810  39.2117796 111.1190052  86.2660038
  40.5042654 111.8080479  85.8831458  33.0664859 110.3479206  85.4549070
  32.2296767 109.9201380  85.2733072  33.0388504 110.5411649  86.3919862
  39.9062314 100.2601135  96.1590316  39.9550470 101.1363258  95.7768086
  40.4484829  99.7178529  95.5861960  50.3917160 110.8042259  95.4391453
  49.6012704 110.7866398  94.8995953  50.1550515 111.3430552  96.1940490
  50.5115035 107.6534725  92.7524182  50.5613040 107.4884733  93.6939705
  50.4028958 106.7861984  92.3622063  39.3951294 110.3323271  80.0416271
  39.5439414 111.0158735  79.3882944  40.2017737 110.3128361  80.5565727
  47.8018798 103.6365653  94.0683489  48.7028660 103.4972118  93.7767486
  47.8766772 103.8020108  95.0081666  42.1361603 101.0132508  92.9136675
  41.2664912 101.3066074  92.6419264  42.3721083 101.5972953  93.6343939
  52.0133232 110.0731667  92.9966204  51.7218040 110.4361647  93.8329664
  51.4005363 109.3598675  92.8179536  53.2128914 107.6384546  85.5168774
  54.0475806 108.0774350  85.6806334  53.3488043 107.1623200  84.6977020
  50.2620420 105.1964281  91.4646262  50.7374542 105.3891928  90.6565113
  49.3385986 105.2523467  91.2189645  37.1503927 106.3588448  81.0477340
  36.9049969 105.4550778  81.2457550  37.3199841 106.3605599  80.1056818
  44.8400637  97.2312125  90.4302095  45.3582581  97.9673152  90.1048584
  44.4855769  97.5376118  91.2648855  36.4199574 102.0916806  78.5463501
  35.7268819 102.1661161  77.8903537  36.1751326 101.3277150  79.0685018
  45.0913231  93.6512407  85.9502992  45.3714985  92.9835596  86.5763419
  45.8763838  93.8441503  85.4377656  42.8946699 112.8271401  77.5128018
  42.3220666 113.4461588  77.0598490  43.4679493 113.3770763  78.0467940
  48.9622089 102.0730041  89.6974567  49.9139512 102.1728139  89.7186791
  48.7925540 101.2808310  90.2072651  46.9836469  99.1585625  89.8833968
  46.3886401  99.4390637  89.1880457  46.6986165  99.6479525  90.6550709
  46.1143959 113.1108551  78.6436601  47.0474632 113.0454113  78.8469476
  46.0267172 113.9464818  78.1851133  48.7431976 112.4274422  75.6040548
  48.6645607 112.0934285  76.4976306  49.5641643 112.9196190  75.6032020
  51.4410167 105.2936161  88.8116867  51.4086487 104.3552162  88.9976551
  52.0510791 105.3720198  88.0782692  43.2793498 104.1632214  74.8544071
  44.2252603 104.0338422  74.9232489  42.9007743 103.4246876  75.3313499
  51.5904655 102.0847204  88.8575150  51.0743704 101.3005661  88.6705079
  52.4744604 101.7565921  89.0221669  49.2515382  95.8288220  84.8170963
  49.0540204  95.5203308  85.7014295  49.8615088  96.5549859  84.9468892
  57.2586717 106.3552168  87.9522904  57.9890105 106.0937456  88.5130607
  56.6493662 105.6180890  87.9924972  55.3402014 104.4960030  88.5497355
  54.6135178 104.3615995  87.9413846  54.9249301 104.8036859  89.3554073
  43.1632190 108.2149960  96.3144728  44.0835200 108.3928559  96.5084774
  43.1281773 107.2706005  96.1624427  41.4636415 102.0882190  74.7898956
  40.5567870 101.7915303  74.8661670  41.7412396 101.7912008  73.9233242
  32.3814355 103.4088554  85.2398002  32.0617140 102.5553862  84.9472376
  31.8347784 103.6237132  85.9955970  36.1594263 106.1250995  88.9567509
  36.3780273 107.0568103  88.9755543  36.5720037 105.7658969  89.7422313
  43.0798481  96.6319080  80.9443197  42.2699209  96.2866165  81.3198443
  43.7682898  96.3226624  81.5330809  45.0089029  95.7097127  82.5667494
  45.5620068  96.1292580  83.2257517  45.2459115  94.7832875  82.6090450
  41.0322128 101.6984201  98.3470258  40.9318855 102.6478558  98.2782349
  40.8143670 101.3702439  97.4746328  40.2335200  98.9469126  74.9310935
  41.0954364  99.2724024  75.1906753  40.4185544  98.1600622  74.4184001
  32.2502615 107.0291465  87.2091124  31.5566087 106.6145418  86.6961078
  32.9975606 107.0712002  86.6124543  48.3867836  97.8197652  82.0746158
  47.8066505  98.4782456  81.6924211  48.1203769  96.9974997  81.6633576
  46.8371402  97.2202710  84.2767479  47.3371181  97.3319244  83.4681797
  47.4807010  96.9163763  84.9168287  40.8953398 105.1281339  97.1635320
  40.4120480 105.9281700  97.3699209  40.9814337 105.1389284  96.2102764
  34.1639358 106.9609719  85.0857139  34.1410046 107.0597406  84.1339022
  34.4739994 107.8074870  85.4074305  36.8226736 109.0185874  89.2003753
  37.7769989 108.9869816  89.1333685  36.6239259 108.5576498  90.0153979
  37.4126118 107.5886990  91.7674551  38.2319007 108.0831069  91.7909388
  37.6862926 106.6718958  91.7392118  47.1692714  99.9797742  81.1302507
  46.2818569 100.2647393  80.9122701  47.5846703  99.8191506  80.2829783
  50.5207250 100.0044263  84.8456846  51.2967640 100.4940716  85.1181463
  49.7955384 100.4302318  85.3028715  52.9579809 100.7171883  85.9030786
  53.5524300 100.4767619  85.1924095  53.0306393  99.9979013  86.5304323
  46.3135928 109.7442417  75.2250526  47.0171778 109.9492420  75.8408182
  45.5898576 110.3119179  75.4899610  47.1433738 105.4952278  81.3452797
  47.0868939 105.9520830  80.5060429  47.6962080 104.7342963  81.1675639
  50.9538544 101.2842010  82.1702916  50.6975478 100.8838646  83.0011124
  50.3291412 101.9985804  82.0453055  55.2650882 104.0238084  84.6774208
  54.7050440 104.0931273  85.4505770  54.6594385 103.8479068  83.9573704
  48.2222625 110.1824946  77.2748987  49.0568229 109.7506145  77.0926461
  48.0606968 110.0106960  78.2025881  47.8768517 106.6857060  78.6405326
  47.8217321 106.5201331  77.6993770  47.2514572 107.3933093  78.7967516
  32.6661032 101.9225124  92.4666748  33.3119896 101.4124078  92.9553973
  32.4578183 102.6593806  93.0410173  45.1914424 108.9905971  97.9658889
  46.0605584 109.1646624  97.6045524  44.7121176 109.8100388  97.8434618
  41.1864643  96.1865169  78.2190644  41.1743312  97.1307009  78.3758915
  42.0788065  96.0035314  77.9250105  41.1154207 114.8634059  86.3058401
  40.1649838 114.8635921  86.1922773  41.4186693 114.1166794  85.7894436
  45.0016762  92.7807945  82.4736581  44.2349158  92.2266432  82.6193263
  45.4127467  92.8529814  83.3350733  37.0058523  99.0692741  96.5641762
  37.8689985  98.7129546  96.7745087  36.4323934  98.7306636  97.2517167
  56.4048169 118.4246051  84.4457371  57.1911258 118.0065474  84.0947788
  56.6686873 119.3292143  84.6139020  61.8056596 118.3621284  85.3490350
  62.5381768 117.7920501  85.5828179  61.0495951 117.9742885  85.7896855
  59.3282016 112.0742859  89.8084958  58.9965341 112.9438270  89.5846173
  58.7327629 111.7579143  90.4878989  53.0638202 115.8138426  77.5415041
  53.2312605 116.6818662  77.9085512  52.8735371 115.9765707  76.6176330
  59.2210679 116.7937945  86.8878308  58.3127557 116.7253353  86.5937069
  59.1698275 117.2709890  87.7160134  53.0427423 118.2696083  78.5261708
  52.9227048 118.7153134  79.3647188  52.3480012 118.6181401  77.9675246
  53.2951545 118.2127590  94.8313206  52.5184879 118.7721511  94.8216070
  53.9342108 118.6984373  95.3528076  61.0872326 114.9954383  88.6656182
  60.4446706 115.2886916  88.0195977  60.5827254 114.8807304  89.4709379
  58.7412489 118.7417556  79.3542042  59.6530346 118.9744943  79.1789739
  58.2322137 119.3254601  78.7917120  53.3784327 118.1014791  90.3636891
  54.2245522 118.5254205  90.5071540  53.3182965 117.4448415  91.0575454
  56.5283772 115.7619159  92.0218065  56.2844704 116.5161220  91.4852341
  56.8043703 116.1404507  92.8565312  56.0848464 114.9175592  87.6031903
  55.2232943 115.2156846  87.8948640  56.1110899 115.1345991  86.6712935
  67.6874056 121.5268476  85.2202659  66.9337765 120.9575874  85.0646664
  67.8221597 121.4931140  86.1673294  49.5640024 112.4773458  97.5571734
  49.1706970 111.9239656  98.2319378  50.3806164 112.7884036  97.9478251
  52.4807985 113.8931337  95.1491990  53.2217698 114.4938490  95.0696453
  52.7125908 113.1508975  94.5910033  56.4265148 109.9212440  89.4256272
  56.0829417 110.8114081  89.3495383  56.7944110 109.7314097  88.5625857
  56.3915431 119.9121051  77.9328707  55.8762054 120.6825656  78.1717095
  56.1192739 119.2386187  78.5561769  53.9762542 114.7570752  82.9913946
  53.1204138 114.3677602  82.8119584  54.3889493 114.8362712  82.1313731
  55.5061688 112.2917095  87.3905505  55.0026484 112.2547230  86.5773311
  55.7992295 113.2009838  87.4502162  51.7504574 112.3755825  86.3971687
  52.6157571 112.1798633  86.0377577  51.8182083 112.1466176  87.3241044
  61.3649705 122.6653406  79.8681881  60.5879147 122.3264565  79.4237043
  62.0441186 122.6706029  79.1936846  56.1801734 117.7848143  79.7588488
  55.8751869 118.0994292  80.6098632  57.1332176 117.8629563  79.8015821
  49.3566893 114.6058033  83.7688054  49.9310645 114.3833214  83.0361247
  49.9437876 114.6746727  84.5216655  58.4146470 120.4931759  84.5752430
  58.9278352 121.1261751  85.0774140  59.0647694 119.8932955  84.2095790
  49.6836480 116.6362494  77.7883939  48.8473793 116.9737180  78.1093214
  49.5441250 116.5011473  76.8511076  51.6589561 111.4799281  82.4963123
  51.0053973 111.1648299  81.8719738  51.6170035 110.8575022  83.2222946
  54.8927301 117.9681215  86.8210771  53.9749863 118.1896162  86.6632459
  55.3087445 118.0427525  85.9622478  55.6762349 119.3672631  81.9513451
  56.4234168 119.8794028  81.6420573  55.9453939 119.0456683  82.8117845
  58.1241186 116.4029747  83.9332240  57.3863943 115.8907133  84.2642483
  58.3767960 115.9630129  83.1215517  58.2252814 109.1805999  84.5274010
  58.5311690 108.3203362  84.2399925  58.9505418 109.7723619  84.3273004
  50.4366253 118.0936852  82.7940580  49.6234119 118.3931022  83.2005772
  50.9325247 117.6992541  83.5115062  56.0340465 118.5578676  91.6255474
  56.3889853 118.7850149  92.4849939  56.6812596 118.8897053  91.0032729
  61.7638202 121.6797112  82.3304803  61.6256100 121.8698708  81.4025992
  61.4074421 122.4416495  82.7872854  49.9280328 115.6655207  88.4101815
  50.5679707 115.5243966  87.7124778  49.0957859 115.3789721  88.0340417
  46.9308944 115.6355532  83.1874801  47.1915762 116.5500866  83.0783962
  47.7526117 115.1679975  83.3371414  48.4033870 117.0493289  90.3573626
  49.0756923 116.8410652  89.7086275  47.5763656 116.8515375  89.9178858
  54.3059442 113.6755230  92.3739287  53.6587357 114.3745180  92.2803763
  55.0760457 114.1091374  92.7415535  50.1472602 117.0221070  92.4255382
  49.6109959 116.5711808  93.0776979  49.5589310 117.1566978  91.6825847
  49.5574861 116.4809721  74.9881846  48.6804327 116.3598522  74.6244093
  50.0332614 115.6895799  74.7360735  45.8811723 116.1577077  89.5108377
  45.7969912 115.5502747  88.7758787  45.0594429 116.6486096  89.5117873
  56.0535437 114.6430641  84.8778572  56.5504136 113.8900603  84.5579642
  55.2822418 114.6794958  84.3121781  63.9065194 120.3471006  86.5196863
  63.8955070 121.2295722  86.1490796  63.0382574 119.9942557  86.3251400
  52.6370405 116.7848024  84.6050256  52.2668193 116.2319064  85.2931162
  53.1329498 116.1806157  84.0525256  60.5237769 119.2419647  82.9867029
  60.9898221 120.0747639  82.9127332  60.9745269 118.7764629  83.6912288
  58.4954431 111.6100234  87.0257931  57.5817511 111.8404461  87.1940138
  58.9247533 111.6938678  87.8771963  58.2660890 119.7990126  89.5257825
  57.6132340 120.0466034  88.8710277  58.6441270 118.9854265  89.1920302
  48.0335739 114.1952015  90.8503362  48.0977066 115.0566846  90.4380760
  47.9702859 113.5826016  90.1175721  47.5088012 116.2675147  94.4976397
  48.1360050 115.8852224  95.1113921  46.6515931 116.0489349  94.8632089
  47.8147801 116.1507573  86.4122300  47.0934387 116.7643541  86.2729773
  48.6041057 116.6865338  86.3338946  50.6174115 113.4861999  92.6862952
  51.1408517 113.7324296  93.4489261  50.3986448 114.3182034  92.2666089
  46.0141396 115.7565674  80.5534077  45.6854102 114.8763053  80.3709183
  46.3680767 115.7013343  81.4410466  49.1283219 116.0438644  80.9209554
  49.4679292 116.5724565  80.1988163  49.5755340 116.3819050  81.6968121
  51.8226660 114.4275694  90.3712622  51.4823480 113.6283508  90.7733302
  51.1165666 114.7277405  89.7989456  52.4743132 111.5125007  88.8239945
  53.2969201 111.0385485  88.7018836  52.7181195 112.2915491  89.3238632
  51.1151366 114.5413265  79.1202847  51.8359729 114.9194518  78.6166564
  50.4916670 115.2602142  79.2237825  55.2582489 115.2458414  80.0561179
  55.4746104 116.1283052  79.7550008  54.7776556 114.8544628  79.3266821
  51.8578093 115.1946676  86.6812814  51.8439662 114.2987769  86.3445112
  52.5750522 115.2017339  87.3151100  53.7104224 115.6284016  88.7265941
  53.4522002 116.5501086  88.7250271  53.1789265 115.2314450  89.4166405
  51.2614989 114.0761056  81.9500384  51.3830901 113.1477702  82.1491271
  50.9717032 114.0899742  81.0378699  54.1306180 111.7615966  85.0867104
  54.1527877 111.8255299  84.1319083  54.5474239 110.9220475  85.2807610
  64.5089804 121.4971226  83.1246326  64.9520950 120.7478551  82.7265449
  63.6316314 121.4881362  82.7420058  50.7456069 115.5893053  96.1590316
  50.7944224 116.4655176  95.7768086  51.2878583 115.0470446  95.5861960
  58.6412552 118.9657571  94.0683489  59.5422415 118.8264036  93.7767486
  58.7160527 119.1312026  95.0081666  52.9755357 116.3424426  92.9136675
  52.1058667 116.6357992  92.6419264  53.2114838 116.9264871  93.6343939
  64.0522669 122.9676464  85.5168774  64.8869560 123.4066268  85.6806334
  64.1881798 122.4915117  84.6977020  61.1014175 120.5256199  91.4646262
  61.5768296 120.7183845  90.6565113  60.1779740 120.5815385  91.2189645
  55.6794391 112.5604042  90.4302095  56.1976335 113.2965069  90.1048584
  55.3249524 112.8668036  91.2648855  47.2593329 117.4208724  78.5463501
  46.5662574 117.4953079  77.8903537  47.0145081 116.6569067  79.0685018
  55.9306985 108.9804325  85.9502992  56.2108739 108.3127514  86.5763419
  56.7157592 109.1733421  85.4377656  59.8015844 117.4021959  89.6974567
  60.7533267 117.5020057  89.7186791  59.6319294 116.6100228  90.2072651
  57.8230223 114.4877542  89.8833968  57.2280155 114.7682555  89.1880457
  57.5379920 114.9771443  90.6550709  62.2803921 120.6228079  88.8116867
  62.2480242 119.6844079  88.9976551  62.8904545 120.7012115  88.0782692
  54.1187252 119.4924132  74.8544071  55.0646357 119.3630340  74.9232489
  53.7401497 118.7538794  75.3313499  62.4298410 117.4139122  88.8575150
  61.9137459 116.6297579  88.6705079  63.3138358 117.0857839  89.0221669
  60.0909137 111.1580138  84.8170963  59.8933958 110.8495226  85.7014295
  60.7008842 111.8841777  84.9468892  68.0980471 121.6844086  87.9522904
  68.8283860 121.4229374  88.5130607  67.4887417 120.9472807  87.9924972
  66.1795768 119.8251948  88.5497355  65.4528932 119.6907913  87.9413846
  65.7643055 120.1328777  89.3554073  52.3030170 117.4174108  74.7898956
  51.3961625 117.1207221  74.8661670  52.5806151 117.1203926  73.9233242
  53.9192235 111.9610998  80.9443197  53.1092964 111.6158083  81.3198443
  54.6076652 111.6518542  81.5330809  55.8482784 111.0389045  82.5667494
  56.4013822 111.4584498  83.2257517  56.0852870 110.1124793  82.6090450
  51.8715883 117.0276118  98.3470258  51.7712610 117.9770475  98.2782349
  51.6537425 116.6994357  97.4746328  51.0728954 114.2761043  74.9310935
  51.9348118 114.6015942  75.1906753  51.2579298 113.4892539  74.4184001
  59.2261591 113.1489570  82.0746158  58.6460260 113.8074374  81.6924211
  58.9597523 112.3266914  81.6633576  57.6765157 112.5494627  84.2767479
  58.1764935 112.6611162  83.4681797  58.3200765 112.2455680  84.9168287
  58.0086469 115.3089660  81.1302507  57.1212324 115.5939311  80.9122701
  58.4240458 115.1483424  80.2829783  61.3601005 115.3336181  84.8456846
  62.1361395 115.8232634  85.1181463  60.6349139 115.7594235  85.3028715
  63.7973563 116.0463800  85.9030786  64.3918054 115.8059536  85.1924095
  63.8700147 115.3270931  86.5304323  57.9827492 120.8244196  81.3452797
  57.9262694 121.2812747  80.5060429  58.5355835 120.0634881  81.1675639
  61.7932298 116.6133928  82.1702916  61.5369233 116.2130564  83.0011124
  61.1685166 117.3277722  82.0453055  66.1044636 119.3530001  84.6774208
  65.5444194 119.4223190  85.4505770  65.4988140 119.1770986  83.9573704
  52.0258397 111.5157086  78.2190644  52.0137067 112.4598926  78.3758915
  52.9181819 111.3327232  77.9250105  55.8410517 108.1099863  82.4736581
  55.0742912 107.5558350  82.6193263  56.2521222 108.1821732  83.3350733
  47.8452278 114.3984659  96.5641762  48.7083739 114.0421464  96.7745087
  47.2717688 114.0598554  97.2517167  69.0646568 124.5097917  84.5274010
  69.3705445 123.6495280  84.2399925  69.7899173 125.1015537  84.3273004
  66.7700740 124.3096243  85.9502992  67.0502494 123.6419432  86.5763419
  67.5551347 124.5025338  85.4377656  66.6804271 123.4391781  82.4736581
  65.9136667 122.8850267  82.6193263  67.0914976 123.5113649  83.3350733
   2.6538129  21.0597132  74.0949470   3.2916539  20.9403879  73.3912810
   2.5358972  22.0077976  74.1537422   2.2079397  18.7848585  71.1702678
   2.9942487  18.3668009  70.8193095   2.4718102  19.6894678  71.3384326
   2.3789475  24.2221436  65.8691335   1.7435308  24.2956062  66.5812239
   2.0486881  24.8115035  65.1910414   7.6087825  18.7223819  72.0735656
   8.3412996  18.1523036  72.3073486   6.8527180  18.3345419  72.5142162
   1.6244764  24.6357939  75.9326178   1.3245487  25.5382978  75.8241985
   1.2795824  24.3690122  76.7847331   5.0241908  17.1540479  73.6123615
   4.1158786  17.0855887  73.3182376   4.9729504  17.6312424  74.4405441
   6.8903555  15.3556917  75.3901489   6.2477935  15.6489451  74.7441284
   6.3858483  15.2409838  76.1954686   4.5443718  19.1020091  66.0787348
   5.4561574  19.3347477  65.9035046   4.0353365  19.6857135  65.5162427
   2.8284486  23.5244718  79.7148641   3.2367842  23.0827129  78.9703273
   2.1061747  22.9497346  79.9682834   3.1513301  24.0845909  73.4700930
   2.5222163  24.2491623  72.7676998   2.7638963  24.4987519  74.2411894
   7.0302532  25.0200347  70.8245294   6.3453571  25.3999248  70.2742327
   7.1146382  25.6295674  71.5577241   4.2853464  22.6660306  77.4240637
   4.4970359  23.3092066  76.7475018   4.2383212  21.8322622  76.9562567
   5.3999292  25.5432261  75.5962994   6.2216736  25.1412449  75.3145676
   5.3961695  25.4400495  76.5479110  13.4905285  21.8871010  71.9447966
  12.7368993  21.3178408  71.7891970  13.6252826  21.8533674  72.8918601
   2.6053628  27.6610779  79.7784429   2.5872103  28.4819660  79.2864698
   3.5273548  27.5364854  80.0034570   2.1946659  20.2723585  64.6574014
   1.6793283  21.0428190  64.8962401   1.9223968  19.5988721  65.2807075
   7.1680934  23.0255940  66.5927187   6.3910376  22.6867099  66.1482349
   7.8472415  23.0308563  65.9182152   1.9832963  18.1450677  66.4833795
   1.6783098  18.4596826  67.3343938   2.9363405  18.2232097  66.5261128
   5.4072240  22.4989921  73.2493795   4.7495915  23.1889182  73.3373924
   6.2112640  22.8886353  73.5927782   4.2177699  20.8534294  71.2997737
   4.7309581  21.4864286  71.8019447   4.8678923  20.2535489  70.9341097
   1.4800073  30.8318618  64.0558408   0.8061772  31.1350315  64.6643366
   1.8665895  31.6347698  63.7063865   1.4793578  19.7275165  68.6758758
   2.2265397  20.2396562  68.3665880   1.7485167  19.4059218  69.5363151
   4.9839495  25.8340295  69.4276880   4.5301823  24.9931205  69.4842070
   4.3533462  26.4701694  69.7651660   3.9272415  16.7632281  70.6577547
   3.1895172  16.2509667  70.9887790   4.1799189  16.3232663  69.8460824
   3.4272435  27.6716792  70.3626698   3.7195409  28.2321849  69.6439063
   3.9371055  27.9645353  71.1179857   1.8371694  18.9181210  78.3500780
   2.1921081  19.1452684  79.2095246   2.4843825  19.2499587  77.7278036
   7.5669431  22.0399646  69.0550109   7.4287329  22.2301242  68.1271298
   7.2105649  22.8019029  69.5118160   7.5938810  24.1076173  74.0661381
   8.0275317  24.0151462  74.9144435   8.3070391  24.0833674  73.4281397
   1.3266705  27.7078267  75.5994481   1.3803727  28.2769204  76.3672197
   0.4581487  27.8780153  75.2348518   8.4554360  24.1499874  76.5994266
   8.6490250  25.0545685  76.8453541   8.3554978  23.6907293  77.4332851
   3.5169468  24.3006617  82.1735147   3.3654975  24.0717168  81.2565230
   3.5074148  25.2577218  82.1866492   3.5707543  22.6226831  62.5905848
   2.9536714  21.8973659  62.4938901   3.1024032  23.3836191  62.2472923
   5.2261675  27.3325739  80.2511629   5.1674221  26.6484959  79.5842212
   5.6281194  28.0744729  79.7992255   5.2279082  25.2965323  78.4825608
   4.3405861  24.9591245  78.6052007   5.7977633  24.5648354  78.7194374
   9.7096423  20.7073541  73.2442170   9.6986299  21.5898256  72.8736103
   8.8413802  20.3545091  73.0496707   1.2178919  29.8553610  77.6045010
   1.9306892  30.4901074  77.5320912   0.7268948  29.9517476  76.7885012
   2.9396446  23.7604862  69.1762302   2.0052725  23.8806325  69.0067006
   3.1173115  22.8577329  68.9122312   6.3268998  19.6022182  69.7112336
   6.7929450  20.4350173  69.6372639   6.7776498  19.1367163  70.4157594
   4.3945229  25.9466003  66.7098488   4.6705073  25.8322597  67.6192362
   3.5249727  25.5483488  66.6710661   4.0692119  20.1592661  76.2503131
   3.4163569  20.4068568  75.5955584   4.4472499  19.3456799  75.9165609
   1.0299293  30.1952354  70.3531302   1.2121687  29.3774010  70.8159054
   1.8532279  30.4120046  69.9156192   1.3641458  29.1220539  67.6146350
   1.8929225  28.6112993  67.0016512   1.6269678  28.8063069  68.4791883
   3.7113349  27.0340657  82.8275439   4.2553253  27.6470615  82.3330394
   3.1300194  27.5920235  83.3442452   1.9970862  30.1561375  73.9590467
   1.8722001  29.3551114  73.4501412   2.6549953  30.6507568  73.4704437
   4.0605770  27.9570395  75.5870017   3.1136106  27.8375746  75.5148343
   4.4088543  27.0692893  75.6696278   1.0652204  27.7523111  71.7874369
   0.9177166  26.8239818  71.9681939   1.8905697  27.7743202  71.3031444
   4.6686326  28.5751670  72.8739242   5.5932873  28.3694531  72.7363693
   4.5001629  28.3268071  73.7828583   4.4581642  29.0937337  68.2301333
   4.6318519  28.5283760  67.4775186   4.9510533  29.8938232  68.0480823
  10.3121033  21.8573760  69.8491633  10.7552179  21.1081085  69.4510756
   9.4347543  21.8483896  69.4665365   5.4456814  28.4104101  65.3298231
   6.1407719  29.0310794  65.5485546   5.7879964  27.5599453  65.6050609
   7.3448237  25.8603807  66.8585562   7.8699561  26.1991080  66.1334882
   7.2570590  24.9250822  66.6748697   7.0342143  26.4936711  82.1636760
   6.2437687  26.4760849  81.6241260   6.7975498  27.0325004  82.9185797
   7.1540018  23.3429177  79.4769489   7.2038023  23.1779184  80.4185011
   7.0453942  22.4756436  79.0867369   4.4443781  19.3260105  80.7928795
   5.3453644  19.1866570  80.5012793   4.5191755  19.4914560  81.7326973
   8.6558215  25.7626119  79.7211510   8.3643024  26.1256099  80.5574971
   8.0430347  25.0493127  79.5424842   9.8553898  23.3278998  72.2414080
  10.6900789  23.7668802  72.4051641   9.9913026  22.8517652  71.4222326
   6.9045404  20.8858733  78.1891568   7.3799525  21.0786379  77.3810420
   5.9810969  20.9417919  77.9434952   5.6047073  17.7624493  76.4219874
   6.5564495  17.8622591  76.4432098   5.4350523  16.9702762  76.9317958
   2.7568942  28.8003003  65.3681907   3.6899616  28.7348565  65.5714783
   2.6692155  29.6359270  64.9096440   5.3856959  28.1168874  62.3285855
   5.3070591  27.7828737  63.2221613   6.2066626  28.6090642  62.3277327
   8.0835150  20.9830613  75.5362173   8.0511470  20.0446614  75.7221857
   8.6935774  21.0614650  74.8027998   8.2329639  17.7741656  75.5820457
   7.7168687  16.9900113  75.3950385   9.1169587  17.4460373  75.7466976
  13.9011700  22.0446620  74.6768210  14.6315089  21.7831908  75.2375914
  13.2918646  21.3075342  74.7170278  11.9826997  20.1854482  75.2742661
  11.2560161  20.0510447  74.6659153  11.5674284  20.4931311  76.0799379
   3.8117697  15.6692194  67.8547813   2.9243552  15.9541845  67.6368008
   4.2271687  15.5085958  67.0075090   7.1632234  15.6938715  71.5702152
   7.9392624  16.1835168  71.8426769   6.4380368  16.1196770  72.0274022
   9.6004792  16.4066335  72.6276093  10.1949283  16.1662071  71.9169401
   9.6731376  15.6873465  73.2549629   2.9560911  25.4336869  61.9495833
   3.6596761  25.6386872  62.5653489   2.2323560  26.0013631  62.2144917
   3.7858721  21.1846730  68.0698103   3.7293923  21.6415282  67.2305736
   4.3387064  20.4237415  67.8920946   7.5963527  16.9736462  68.8948223
   7.3400461  16.5733098  69.7256430   6.9716395  17.6880256  68.7698362
  11.9075865  19.7132535  71.4019514  11.3475423  19.7825725  72.1751076
  11.3019368  19.5373520  70.6819010   4.8647608  25.8719398  63.9994293
   5.6993212  25.4400597  63.8171768   4.7031951  25.7001412  64.9271188
   4.5193500  22.3751512  65.3650632   4.4642304  22.2095783  64.4239077
   3.8939556  23.0827544  65.5212822   1.8339408  24.6800423  84.6904195
   2.7030567  24.8541076  84.3290830   1.3546159  25.4994840  84.5679925
  13.4931883  36.3889049  74.0949470  14.1310293  36.2695797  73.3912810
  13.3752726  37.3369893  74.1537422  10.3021590  36.3416477  74.0310995
   9.9640101  36.2257542  73.1431529  11.1711358  35.9407643  74.0112001
   6.1608405  38.1951954  70.0207886   5.5973271  38.1041891  69.2524173
   6.0460800  37.3751858  70.5010378  10.7841373  37.4951329  79.9897200
  10.7730013  37.1004127  79.1177704  10.9462012  36.7617402  80.5830972
   3.7072837  39.6903145  72.8592106   4.4994129  39.3493970  72.4438405
   3.9469487  39.7998120  73.7794259  11.7407964  41.8622922  65.3322350
  11.0895944  42.4477002  64.9456364  12.5352327  42.3929116  65.3917388
   5.6663591  38.9512059  65.7309485   6.4394467  38.4041046  65.5922361
   6.0188990  39.8156308  65.9423946   7.5048634  40.2788441  78.9376384
   7.2138500  41.1834072  78.8223050   8.1405618  40.3204969  79.6520454
   8.4304841  37.6565289  75.5277744   9.0268413  37.4321312  74.8134707
   8.4879812  36.9150035  76.1303192   8.0029869  35.1104725  63.3627935
   8.2555390  34.5886246  62.6011398   7.0654428  34.9470870  63.4654618
  13.0473152  34.1140503  71.1702678  13.8336241  33.6959926  70.8193095
  13.3111856  35.0186595  71.3384326  13.2183229  39.5513353  65.8691335
  12.5829062  39.6247980  66.5812239  12.8880636  40.1406952  65.1910414
  18.4481579  34.0515736  72.0735656  19.1806751  33.4814953  72.3073486
  17.6920935  33.6637337  72.5142162   7.7226158  37.0132831  65.5652310
   7.6062416  36.3377734  66.2333394   7.8328418  36.5265205  64.7484463
  10.0657699  36.4742978  69.2698999   9.7015906  35.9473599  69.9811920
  10.9224815  36.0841447  69.0965484  15.9706999  27.7637310  76.5330265
  15.6390324  28.6332721  76.3091480  15.3752613  27.4473594  77.2124295
   9.7063186  31.5032878  64.2660347   9.8737588  32.3713114  64.6330818
   9.5160355  31.6660159  63.3421637  12.4638519  39.9649856  75.9326178
  12.1639242  40.8674895  75.8241985  12.1189578  39.6982040  76.7847331
   5.9151000  36.4163653  71.9662882   4.9901497  36.2839867  72.1740574
   6.1635414  37.1957873  72.4632825  15.8635663  32.4832397  73.6123615
  14.9552540  32.4147805  73.3182376  15.8123258  32.9604342  74.4405441
   9.6852407  33.9590535  65.2507014   9.5652032  34.4047586  66.0892495
   8.9904995  34.3075853  64.6920552   3.2759811  36.0596927  72.8006671
   3.4052193  36.3131406  73.7146083   2.5957263  36.6524635  72.4811326
   7.4459299  46.7294177  68.8997146   7.3683328  47.6802002  68.9785626
   6.8420942  46.3840049  69.5572072   9.9376528  33.9022042  81.5558512
   9.1609863  34.4615962  81.5461377  10.5767092  34.3878825  82.0773383
  17.7297309  30.6848835  75.3901489  17.0871689  30.9781368  74.7441284
  17.2252238  30.5701755  76.1954686  15.3837473  34.4312008  66.0787348
  16.2955329  34.6639395  65.9035046  14.8747120  35.0149052  65.5162427
   8.1922901  36.7107496  81.1176479   8.9337585  37.2492540  80.8411303
   7.4859886  37.3373784  81.2748031  13.6678240  38.8536636  79.7148641
  14.0761596  38.4119047  78.9703273  12.9455502  38.2789264  79.9682834
  10.0209310  33.7909243  77.0882198  10.8670506  34.2148656  77.2316847
   9.9607948  33.1342867  77.7820761  13.9907055  39.4137827  73.4700930
  13.3615917  39.5783541  72.7676998  13.6032717  39.8279436  74.2411894
  17.8696287  40.3492265  70.8245294  17.1847325  40.7291166  70.2742327
  17.9540136  40.9587591  71.5577241  13.1708756  31.4513611  78.7463371
  12.9269688  32.2055672  78.2097647  13.4468686  31.8298959  79.5810619
  15.1247219  37.9952224  77.4240637  15.3364114  38.6383983  76.7475018
  15.0776967  37.1614540  76.9562567  12.7273448  30.6070044  74.3277209
  11.8657927  30.9051298  74.6193947  12.7535882  30.8240443  73.3958242
   9.5435017  39.1512235  70.7351015  10.0073362  39.4299938  69.9455637
   9.2791815  38.2495679  70.5524106   6.4359098  38.6983716  73.6730778
   7.0060455  39.1270985  73.0348263   7.0267210  38.4166301  74.3714964
   8.4803903  35.2735387  67.5440580   9.1827946  35.7256431  68.0114506
   8.1484531  34.6319206  68.1720473   6.9284265  33.8647144  81.9191789
   6.2982925  34.5463425  82.1527186   6.8220352  33.7530225  80.9744928
   2.2229237  33.5318940  72.8457714   1.4328291  33.7876468  72.3697824
   2.7140484  34.3467278  72.9509754  16.2393047  40.8724179  75.5962994
  17.0610490  40.4704366  75.3145676  16.2355449  40.7692413  76.5479110
   4.1743982  33.8963519  69.8041190   3.3775146  34.0082213  70.3224686
   3.9469575  34.2350171  68.9382081  10.0049650  40.4208222  77.7523705
  10.0694082  40.8828630  78.5881877   9.2960574  39.7905587  77.8806015
   0.5066940  33.7849430  75.2772704   0.7574978  34.6696440  75.5430280
   1.0426488  33.6054032  74.5047796  24.3299040  37.2162927  71.9447966
  23.5762748  36.6470326  71.7891970  24.4646581  37.1825592  72.8918601
   9.7197668  42.0876330  67.6202685   9.5843342  42.9327866  68.0487533
  10.2607480  42.2895607  66.8568619   6.2065007  28.1667910  84.2817040
   5.8131953  27.6134108  84.9564685   7.0231148  28.4778488  84.6723558
   3.1727065  39.6051768  68.1930610   3.6851586  40.3995018  68.3436175
   3.8249778  38.9078058  68.1264212   4.9821950  42.7217524  70.2753363
   5.1588578  43.6435489  70.0874347   5.7778783  42.4075943  70.7047743
   9.1232968  29.5825789  81.8737297   9.8642682  30.1832942  81.7941759
   9.3550891  28.8403427  81.3155340   4.2674306  34.7682156  80.1515527
   4.1527821  33.8667413  80.4522626   3.4118824  35.0145853  79.8000343
  11.3466144  42.7099896  81.7503027  10.9029998  41.9236275  81.4323932
  12.0083358  42.8979047  81.0846918   6.1053265  44.2395698  76.2763706
   6.6560690  44.1112761  75.5040700   5.2664741  44.5390587  75.9258599
  13.4447382  42.9902696  79.7784429  13.4265857  43.8111577  79.2864698
  14.3667302  42.8656771  80.0034570   9.9020436  40.5046826  80.6207937
  10.4348773  39.7435114  80.3907245   9.3734517  40.2120478  81.3632091
  13.0690131  25.6106892  76.1501579  12.7254401  26.5008533  76.0740689
  13.4369094  25.4208549  75.2871164   1.1375982  37.9340422  68.9690181
   1.9751204  38.3437430  68.7523889   1.3154249  36.9939864  68.9390375
  13.0340414  35.6015503  64.6574014  12.5187037  36.3720107  64.8962401
  12.7617722  34.9280639  65.2807075  10.6187525  30.4465204  69.7159252
   9.7629121  30.0572054  69.5364891  11.0314477  30.5257164  68.8559038
  12.1486672  27.9811547  74.1150812  11.6451467  27.9441682  73.3018617
  12.4417278  28.8904290  74.1747469   8.3929557  28.0650277  73.1216994
   9.2582554  27.8693085  72.7622883   8.4607066  27.8360628  74.0486350
  18.0074688  38.3547857  66.5927187  17.2304131  38.0159017  66.1482349
  18.6866169  38.3600481  65.9182152  12.8226717  33.4742595  66.4833795
  12.5176853  33.7888744  67.3343938  13.7757159  33.5524015  66.5261128
  11.2673149  39.6332818  68.1326749  10.7394510  38.8985578  67.8199986
  10.7660652  40.4107495  67.8866717  16.2465995  37.8281839  73.2493795
  15.5889669  38.5181100  73.3373924  17.0506394  38.2178271  73.5927782
   5.9991877  30.2952484  70.4933360   6.5735628  30.0727666  69.7606553
   6.5862859  30.3641179  71.2461962  15.0571454  36.1826211  71.2997737
  15.5703335  36.8156203  71.8019447  15.7072678  35.5827407  70.9341097
   6.3261464  32.3256945  64.5129246   5.4898776  32.6631632  64.8338520
   6.1866233  32.1905925  63.5756383   8.3014544  27.1693733  69.2208430
   7.6478957  26.8542751  68.5965045   8.2595018  26.5469474  69.9468253
   9.4125749  37.4513028  61.1361722   8.5052811  37.2202282  61.3352871
   9.9096781  36.6550648  61.3235704  12.3193828  46.1610536  64.0558408
  11.6455527  46.4642232  64.6643366  12.7059650  46.9639616  63.7063865
  11.5352285  33.6575667  73.5456078  10.6174846  33.8790614  73.3877766
  11.9512428  33.7321977  72.6867785  12.3187332  35.0567083  68.6758758
  13.0659151  35.5688480  68.3665880  12.5878922  34.7351135  69.5363151
  10.5913983  37.5525623  65.6585712   9.6825202  37.2684656  65.7558182
  10.6209066  37.9724702  64.7989019  15.8233250  41.1632213  69.4276880
  15.3695577  40.3223123  69.4842070  15.1927217  41.7993611  69.7651660
  14.7666170  32.0924199  70.6577547  14.0288926  31.5801585  70.9887790
  15.0192943  31.6524580  69.8460824  14.2666189  43.0008710  70.3626698
  14.5589164  43.5613767  69.6439063  14.7764810  43.2937271  71.1179857
  14.8677797  24.8700451  71.2519316  15.1736674  24.0097814  70.9645231
  15.5930402  25.4618071  71.0518310   1.1602153  35.2731137  69.6400914
   0.9626553  34.6800498  68.9151981   0.6048817  34.9683348  70.3576853
   9.1398877  35.1654244  71.7595507   9.1947486  34.2128080  71.6837984
   8.3290079  35.3213683  72.2436806  10.2890070  39.0934367  62.9973791
   9.8509500  38.3770226  62.5379428  11.0300511  39.3210482  62.4358882
   7.0791236  33.7831304  69.5185886   6.2659102  34.0825474  69.9251078
   7.5750231  33.3886992  70.2360369   9.2299814  43.7789061  71.4520151
   9.1875993  44.0049907  70.5228683  10.1462513  43.5452435  71.6005952
  12.6765448  34.2473128  78.3500780  13.0314836  34.4744601  79.2095246
  13.3237579  34.5791505  77.7278036  18.4063185  37.3691564  69.0550109
  18.2681084  37.5593160  68.1271298  18.0499404  38.1310947  69.5118160
   6.5705311  31.3549659  75.1347121   7.2104691  31.2138418  74.4370085
   5.7382842  31.0684173  74.7585723  18.4332565  39.4368091  74.0661381
  18.8669071  39.3443380  74.9144435  19.1464145  39.4125591  73.4281397
   7.3465615  40.6552090  71.2482114   8.1406214  40.1602410  71.0464689
   6.6357308  40.1269953  70.8849819  12.1660460  43.0370185  75.5994481
  12.2197482  43.6061121  76.3672197  11.2975241  43.2072070  75.2348518
   3.6548379  34.7995171  67.3241866   2.7245967  34.7379627  67.5411829
   3.7505851  34.2771124  66.5278508   3.5733928  31.3249984  69.9120108
   3.8340745  32.2395317  69.8029269   4.3951100  30.8574427  70.0616721
   5.0458853  32.7387741  77.0818933   5.7181906  32.5305103  76.4331582
   4.2188640  32.5409827  76.6424165  19.2948114  39.4791792  76.5994266
  19.4884004  40.3837602  76.8453541  19.1948732  39.0199211  77.4332851
  10.9484425  29.3649682  79.0984593  10.3012340  30.0639632  79.0049070
  11.7185440  29.7985826  79.4660842  14.3563223  39.6298534  82.1735147
  14.2048729  39.4009086  81.2565230  14.3467902  40.5869136  82.1866492
  11.1248559  37.2030447  77.1581413  12.0540619  37.3541607  76.9850381
  10.7039589  37.2914468  76.3030060   9.9236891  41.2281112  74.9279951
   9.7847977  40.8599896  75.8005889   9.1351487  41.7428751  74.7563909
  10.5185043  46.3290208  66.2705487  10.6936799  45.8578251  67.0851110
   9.8317831  46.9555974  66.4986748  11.4742106  40.6062714  72.3168789
  11.1391939  40.5663484  73.2126438  10.9746052  39.9407430  71.8439199
   5.4486350  36.0130344  77.8421370   5.3106148  35.2810583  78.4432909
   6.3591274  35.9239244  77.5605558  14.4101298  37.9518749  62.5905848
  13.7930469  37.2265577  62.4938901  13.9417786  38.7128109  62.2472923
   8.0768651  35.7250304  77.3305049   8.7868269  35.0843496  77.2891668
   8.0337959  35.9763198  78.2531230  16.0655430  42.6617657  80.2511629
  16.0067976  41.9776877  79.5842212  16.4674948  43.4036647  79.7992255
   6.7897585  32.7115522  79.1500689   6.2534942  32.2606260  79.8022285
   6.2014293  32.8461430  78.4071153   5.0846128  49.4779571  73.0445348
   5.3242727  50.1098095  73.7224366   4.2415325  49.1267611  73.3310707
   6.1999844  32.1704173  61.7127153   5.3229310  32.0492974  61.3489399
   6.6757597  31.3790251  61.4606041  16.0672837  40.6257241  78.4825608
  15.1799616  40.2883163  78.6052007  16.6371388  39.8940272  78.7194374
   2.5236706  31.8471529  76.2353683   2.4394895  31.2397199  75.5004093
   1.7019413  32.3380548  76.2363180   9.5973990  45.2858693  75.4486852
   9.5244162  46.0913665  75.9606156   9.1551383  45.4850659  74.6234873
   9.3863770  44.5230463  68.9589673   8.6031292  45.0652143  69.0527898
  10.0856515  45.0404443  69.3583914  12.6960420  30.3325093  71.6023878
  13.1929120  29.5795055  71.2824949  11.9247402  30.3689409  71.0367088
  20.5490177  36.0365458  73.2442170  20.5380054  36.9190174  72.8736103
  19.6807557  35.6837009  73.0496707  12.0572674  45.1845527  77.6045010
  12.7700646  45.8192992  77.5320912  11.5662702  45.2809393  76.7885012
  13.7790201  39.0896780  69.1762302  12.8446479  39.2098242  69.0067006
  13.9566869  38.1869247  68.9122312   9.2795389  32.4742476  71.3295563
   8.9093176  31.9213516  72.0176469   9.7754481  31.8700609  70.7770563
  17.1662752  34.9314099  69.7112336  17.6323204  35.7642091  69.6372639
  17.6170253  34.4659081  70.4157594   7.1084587  42.9339971  78.4250581
   7.8094047  43.5676454  78.5779975   6.6379702  43.2754702  77.6646220
  15.2338983  41.2757921  66.7098488  15.5098827  41.1614515  67.6192362
  14.3643482  40.8775405  66.6710661  15.1379415  27.2994686  73.7503237
  14.2242495  27.5298913  73.9185444  15.5672516  27.3833130  74.6017270
  14.9085873  35.4884578  76.2503131  14.2557324  35.7360486  75.5955584
  15.2866253  34.6748716  75.9165609  11.8693047  45.5244271  70.3531302
  12.0515442  44.7065927  70.8159054  12.6926033  45.7411964  69.9156192
  12.2035213  44.4512457  67.6146350  12.7322979  43.9404911  67.0016512
  12.4663432  44.1354987  68.4791883  10.9573446  36.2304389  82.7369168
  10.2814083  36.1298519  83.4071544  11.7801080  36.0743603  83.2005166
   2.7052305  42.4676326  75.3581684   3.2905742  41.7220014  75.4909588
   2.5077144  42.7780283  76.2418348   5.5590961  45.5027573  70.3744126
   4.8901336  45.9873701  69.8908166   5.4203830  45.7496794  71.2887505
   9.6996229  47.5371317  76.9726784  10.2514537  47.7002938  77.7375870
  10.0402423  48.1275755  76.3006809   4.6760722  29.8846467  77.5748669
   4.7402049  30.7461297  77.1626067   4.6127843  29.2720468  76.8421028
   4.1512995  31.9569599  81.2221703   4.7785034  31.5746676  81.8359228
   3.2940914  31.7383801  81.5877396  14.5507104  42.3632574  82.8275439
  15.0947007  42.9762533  82.3330394  13.9693948  42.9212153  83.3442452
  12.8364616  45.4853292  73.9590467  12.7115756  44.6843032  73.4501412
  13.4943708  45.9799486  73.4704437   4.4572785  31.8402025  73.1367607
   3.7359370  32.4537992  72.9975080   5.2466040  32.3759790  73.0584253
  14.8999525  43.2862312  75.5870017  13.9529860  43.1667664  75.5148343
  15.2482298  42.3984810  75.6696278   7.2599098  29.1756451  79.4108259
   7.7833500  29.4218748  80.1734568   7.0411431  30.0076486  78.9911396
   2.6566379  31.4460126  67.2779383   2.3279085  30.5657505  67.0954489
   3.0105750  31.3907795  68.1655773  11.9045958  43.0815029  71.7874369
  11.7570921  42.1531736  71.9681939  12.7299452  43.1035119  71.3031444
   5.7708202  31.7333096  67.6454861   6.1104275  32.2619017  66.9233469
   6.2180323  32.0713502  68.4213428  15.5080080  43.9043587  72.8739242
  16.4326627  43.6986449  72.7363693  15.3395383  43.6559988  73.7828583
   8.4651643  30.1170146  77.0957929   8.1248464  29.3177959  77.4978609
   7.7590650  30.4171857  76.5234762   9.1168115  27.2019459  75.5485252
   9.9394184  26.7279937  75.4264142   9.3606179  27.9809943  76.0483938
   7.7576350  30.2307717  65.8448154   8.4784712  30.6088970  65.3411871
   7.1341654  30.9496594  65.9483132  11.9007472  30.9352866  66.7806486
  12.1171087  31.8177504  66.4795314  11.4201540  30.5439080  66.0512128
   6.6406694  33.8938579  73.3577231   6.4951275  34.2078882  74.2501512
   6.1631897  34.5123480  72.8048129   8.5003077  30.8841127  73.4058120
   8.4864645  29.9882221  73.0690418   9.2175505  30.8911791  74.0396406
  10.3529207  31.3178468  75.4511248  10.0946985  32.2395538  75.4495578
   9.8214248  30.9208902  76.1411712  15.2975396  44.4229255  68.2301333
  15.4712274  43.8575677  67.4775186  15.7904287  45.2230150  68.0480823
   1.1152356  36.4343924  76.2964892   0.5705824  37.2103732  76.4285166
   1.9931706  36.7814728  76.1384013   7.9039973  29.7655508  68.6745690
   8.0255884  28.8372154  68.8736578   7.6142015  29.7794194  67.7624006
  10.7731163  27.4510418  71.8112410  10.7952860  27.5149751  70.8564390
  11.1899222  26.6114927  72.0052916  21.1514787  37.1865678  69.8491633
  21.5945933  36.4373003  69.4510756  20.2741298  37.1775814  69.4665365
  16.2850569  43.7396019  65.3298231  16.9801473  44.3602712  65.5485546
  16.6273719  42.8891370  65.6050609   1.9018378  35.5613820  79.1895049
   1.1600114  35.7096455  79.7759679   1.5811122  35.8222086  78.3261798
  18.1841992  41.1895725  66.8585562  18.7093316  41.5282997  66.1334882
  18.0964344  40.2542740  66.6748697   9.8462041  45.1029798  78.9875439
  10.1549167  44.8578945  79.8598138  10.6437523  45.3076437  78.4994309
   9.8682653  47.2567708  71.2180815   9.4287643  46.7644087  71.9113672
  10.6190770  46.7140676  70.9772891   2.3474992  43.4479249  71.2205443
   3.1733011  43.1483021  70.8404087   1.9969044  42.6786871  71.6695232
   7.3156525  42.8005717  73.2903117   6.6936534  42.1376422  72.9905345
   7.9861392  42.8266849  72.6076765   7.3881052  31.2787505  82.8835623
   7.4369208  32.1549628  82.5013393   7.9303566  30.7364898  82.3107266
  17.8735898  41.8228628  82.1636760  17.0831442  41.8052767  81.6241260
  17.6369252  42.3616922  82.9185797  17.9933773  38.6721095  79.4769489
  18.0431778  38.5071102  80.4185011  17.8847696  37.8048354  79.0867369
   6.8770032  41.3509640  66.7661578   7.0258152  42.0345105  66.1128250
   7.6836475  41.3314730  67.2811033  15.2837535  34.6552023  80.7928795
  16.1847398  34.5158488  80.5012793  15.3585510  34.8206478  81.7326973
   9.6180341  32.0318877  79.6381982   8.7483650  32.3252444  79.3664570
   9.8539821  32.6159322  80.3589245  19.4951970  41.0918036  79.7211510
  19.2036778  41.4548017  80.5574971  18.8824101  40.3785044  79.5424842
  20.6947652  38.6570916  72.2414080  21.5294543  39.0960720  72.4051641
  20.8306781  38.1809569  71.4222326  17.7439158  36.2150651  78.1891568
  18.2193280  36.4078297  77.3810420  16.8204723  36.2709837  77.9434952
   4.6322665  37.3774818  67.7722646   4.3868707  36.4737148  67.9702857
   4.8018579  37.3791968  66.8302124  12.3219374  28.2498494  77.1547402
  12.8401318  28.9859521  76.8293891  11.9674507  28.5562488  77.9894161
   3.9018312  33.1103176  65.2708808   3.2087557  33.1847531  64.6148844
   3.6570064  32.3463519  65.7930325  12.5731969  24.6698777  72.6748299
  12.8533722  24.0021966  73.3008725  13.3582576  24.8627873  72.1622962
  10.3765437  43.8457771  64.2373325   9.8039404  44.4647958  63.7843797
  10.9498231  44.3957133  64.7713247  16.4440827  33.0916411  76.4219874
  17.3958250  33.1914509  76.4432098  16.2744277  32.2994679  76.9317958
  14.4655206  30.1771994  76.6079275  13.8705139  30.4577007  75.9125763
  14.1804903  30.6665895  77.3796016  13.5962697  44.1294921  65.3681907
  14.5293370  44.0640483  65.5714783  13.5085910  44.9651188  64.9096440
  16.2250714  43.4460791  62.3285855  16.1464345  43.1120655  63.2221613
  17.0460380  43.9382559  62.3277327  18.9228905  36.3122531  75.5362173
  18.8905225  35.3738531  75.7221857  19.5329528  36.3906567  74.8027998
  10.7612236  35.1818584  61.5789377  11.7071340  35.0524792  61.6477795
  10.3826481  34.4433245  62.0558806  19.0723393  33.1033574  75.5820457
  18.5562442  32.3192031  75.3950385  19.9563342  32.7752291  75.7466976
  16.7334120  26.8474590  71.5416269  16.5358941  26.5389678  72.4259601
  17.3433826  27.5736229  71.6714199  24.7405455  37.3738537  74.6768210
  25.4708843  37.1123826  75.2375914  24.1312400  36.6367259  74.7170278
  22.8220752  35.5146400  75.2742661  22.0953915  35.3802365  74.6659153
  22.4068039  35.8223229  76.0799379  10.6450928  39.2336330  83.0390034
  11.5653938  39.4114929  83.2330081  10.6100511  38.2892375  82.8869734
   8.9455153  33.1068560  61.5144263   8.0386608  32.8101673  61.5906976
   9.2231134  32.8098378  60.6478549   3.6413001  37.1437364  75.6812816
   3.8599011  38.0754472  75.7000849   4.0538775  36.7845339  76.4667619
  10.5617219  27.6505450  67.6688504   9.7517947  27.3052535  68.0443750
  11.2501635  27.3412993  68.2576116  12.4907767  26.7283496  69.2912801
  13.0438805  27.1478950  69.9502824  12.7277853  25.8019245  69.3335757
   8.5140866  32.7170570  85.0715565   8.4137593  33.6664927  85.0027656
   8.2962408  32.3888809  84.1991635   7.7153937  29.9655495  61.6556242
   8.5773101  30.2910393  61.9152059   7.9004282  29.1786991  61.1429308
  15.8686574  28.8384022  68.7991465  15.2885243  29.4968826  68.4169517
  15.6022507  28.0161366  68.3878882  14.3190140  28.2389079  71.0012785
  14.8189919  28.3505614  70.1927104  14.9625748  27.9350132  71.6413594
   8.3772136  36.1467709  83.8880626   7.8939218  36.9468069  84.0944515
   8.4633075  36.1575654  82.9348070   1.6458096  37.9796089  71.8102446
   1.6228784  38.0783776  70.8584329   1.9558732  38.8261239  72.1319612
   4.3045474  40.0372244  75.9249060   5.2588727  40.0056186  75.8578992
   4.1057997  39.5762867  76.7399286   4.8944856  38.6073360  78.4919858
   5.7137745  39.1017438  78.5154695   5.1681663  37.6905328  78.4637425
  14.6511452  30.9984112  67.8547813  13.7637307  31.2833763  67.6368008
  15.0665441  30.8377875  67.0075090  18.0025988  31.0230633  71.5702152
  18.7786378  31.5127085  71.8426769  17.2774122  31.4488687  72.0274022
  20.4398547  31.7358252  72.6276093  21.0343037  31.4953988  71.9169401
  20.5125130  31.0165383  73.2549629   2.6595702  45.5791863  72.9419258
   2.5250170  44.8192264  72.3757256   2.2427765  46.3032763  72.4748047
  13.7954665  40.7628787  61.9495833  14.4990516  40.9678789  62.5653489
  13.0717314  41.3305549  62.2144917  14.6252476  36.5138648  68.0698103
  14.5687677  36.9707199  67.2305736  15.1780818  35.7529333  67.8920946
  18.4357282  32.3028380  68.8948223  18.1794216  31.9025015  69.7256430
  17.8110150  33.0172174  68.7698362  22.7469619  35.0424453  71.4019514
  22.1869177  35.1117642  72.1751076  22.1413123  34.8665438  70.6819010
   5.8164828  46.4761180  73.1537700   5.6997212  47.4206613  73.0516391
   4.9957275  46.1734742  73.5423500  15.7041363  41.2011316  63.9994293
  16.5386967  40.7692514  63.8171768  15.5425706  41.0293330  64.9271188
  15.3587255  37.7043429  65.3650632  15.3036059  37.5387701  64.4239077
  14.7333310  38.4119462  65.5212822  12.6733162  40.0092341  84.6904195
  13.5424322  40.1832993  84.3290830  12.1939914  40.8286758  84.5679925
   8.6683380  27.2051538  64.9435951   8.6562050  28.1493378  65.1004222
   9.5606802  27.0221684  64.6495412   6.8419342  47.1289442  76.3693629
   7.7446589  47.1613052  76.6860124   6.6156712  46.1989893  76.3839965
   8.5972944  45.8820429  73.0303708   7.6468575  45.8822290  72.9168080
   8.9005431  45.1353163  72.5139742  12.4835500  23.7994315  69.1981888
  11.7167896  23.2452802  69.3438570  12.8946205  23.8716184  70.0596039
   4.4877261  30.0879111  83.2887069   5.3508723  29.7315916  83.4990393
   3.9142672  29.7493005  83.9762473  24.3325638  51.7180967  74.0949470
  24.9704048  51.5987714  73.3912810  24.2146481  52.6661811  74.1537422
  21.1415344  51.6708395  74.0310995  20.8033856  51.5549460  73.1431529
  22.0105112  51.2699560  74.0112001  17.0002160  53.5243872  70.0207886
  16.4367025  53.4333808  69.2524173  16.8854555  52.7043776  70.5010378
  21.6235127  52.8243247  79.9897200  21.6123768  52.4296045  79.1177704
  21.7855767  52.0909319  80.5830972  14.5466592  55.0195063  72.8592106
  15.3387884  54.6785888  72.4438405  14.7863242  55.1290038  73.7794259
  22.5801719  57.1914839  65.3322350  21.9289698  57.7768920  64.9456364
  23.3746081  57.7221034  65.3917388  16.5057346  54.2803976  65.7309485
  17.2788222  53.7332963  65.5922361  16.8582745  55.1448226  65.9423946
  18.3442388  55.6080359  78.9376384  18.0532254  56.5125989  78.8223050
  18.9799373  55.6496886  79.6520454  19.2698595  52.9857207  75.5277744
  19.8662167  52.7613230  74.8134707  19.3273567  52.2441953  76.1303192
  18.8423624  50.4396642  63.3627935  19.0949144  49.9178164  62.6011398
  17.9048183  50.2762788  63.4654618  23.8866906  49.4432421  71.1702678
  24.6729996  49.0251844  70.8193095  24.1505611  50.3478513  71.3384326
  24.0576984  54.8805271  65.8691335  23.4222817  54.9539898  66.5812239
  23.7274390  55.4698870  65.1910414  29.2875334  49.3807654  72.0735656
  30.0200505  48.8106871  72.3073486  28.5314689  48.9929255  72.5142162
  18.5619912  52.3424748  65.5652310  18.4456170  51.6669652  66.2333394
  18.6722172  51.8557122  64.7484463  20.9051453  51.8034896  69.2698999
  20.5409660  51.2765517  69.9811920  21.7618569  51.4133365  69.0965484
  26.8100754  43.0929228  76.5330265  26.4784079  43.9624639  76.3091480
  26.2146367  42.7765512  77.2124295  20.5456940  46.8324795  64.2660347
  20.7131343  47.7005032  64.6330818  20.3554109  46.9952077  63.3421637
  23.3032273  55.2941774  75.9326178  23.0032996  56.1966813  75.8241985
  22.9583333  55.0273957  76.7847331  16.7544755  51.7455571  71.9662882
  15.8295251  51.6131785  72.1740574  17.0029168  52.5249790  72.4632825
  26.7029417  47.8124314  73.6123615  25.7946295  47.7439723  73.3182376
  26.6517013  48.2896259  74.4405441  20.5246161  49.2882453  65.2507014
  20.4045786  49.7339504  66.0892495  19.8298749  49.6367770  64.6920552
  14.1153566  51.3888845  72.8006671  14.2445947  51.6423323  73.7146083
  13.4351017  51.9816553  72.4811326  18.2853053  62.0586095  68.8997146
  18.2077083  63.0093920  68.9785626  17.6814697  61.7131967  69.5572072
  20.7770283  49.2313960  81.5558512  20.0003617  49.7907880  81.5461377
  21.4160846  49.7170743  82.0773383  28.5691064  46.0140753  75.3901489
  27.9265444  46.3073286  74.7441284  28.0645992  45.8993673  76.1954686
  26.2231227  49.7603926  66.0787348  27.1349083  49.9931313  65.9035046
  25.7140874  50.3440970  65.5162427  19.0316655  52.0399413  81.1176479
  19.7731340  52.5784457  80.8411303  18.3253641  52.6665702  81.2748031
  24.5071995  54.1828554  79.7148641  24.9155351  53.7410964  78.9703273
  23.7849256  53.6081181  79.9682834  20.8603065  49.1201161  77.0882198
  21.7064260  49.5440574  77.2316847  20.8001703  48.4634785  77.7820761
  24.8300810  54.7429744  73.4700930  24.2009672  54.9075459  72.7676998
  24.4426472  55.1571354  74.2411894  28.7090041  55.6784182  70.8245294
  28.0241080  56.0583084  70.2742327  28.7933891  56.2879509  71.5577241
  24.0102510  46.7805529  78.7463371  23.7663442  47.5347589  78.2097647
  24.2862441  47.1590876  79.5810619  25.9640973  53.3244141  77.4240637
  26.1757868  53.9675901  76.7475018  25.9170721  52.4906458  76.9562567
  23.5667202  45.9361962  74.3277209  22.7051681  46.2343215  74.6193947
  23.5929637  46.1532361  73.3958242  20.3828771  54.4804152  70.7351015
  20.8467117  54.7591855  69.9455637  20.1185570  53.5787597  70.5524106
  17.2752852  54.0275634  73.6730778  17.8454210  54.4562902  73.0348263
  17.8660964  53.7458219  74.3714964  19.3197657  50.6027305  67.5440580
  20.0221701  51.0548349  68.0114506  18.9878286  49.9611124  68.1720473
  17.7678019  49.1939061  81.9191789  17.1376680  49.8755342  82.1527186
  17.6614107  49.0822143  80.9744928  13.0622991  48.8610857  72.8457714
  12.2722045  49.1168386  72.3697824  13.5534239  49.6759195  72.9509754
  27.0786801  56.2016097  75.5962994  27.9004245  55.7996284  75.3145676
  27.0749204  56.0984331  76.5479110  15.0137737  49.2255437  69.8041190
  14.2168900  49.3374131  70.3224686  14.7863329  49.5642089  68.9382081
  20.8443404  55.7500140  77.7523705  20.9087837  56.2120547  78.5881877
  20.1354328  55.1197505  77.8806015  11.3460694  49.1141348  75.2772704
  11.5968733  49.9988358  75.5430280  11.8820243  48.9345949  74.5047796
  35.1692794  52.5454845  71.9447966  34.4156502  51.9762243  71.7891970
  35.3040335  52.5117510  72.8918601  20.5591422  57.4168247  67.6202685
  20.4237097  58.2619783  68.0487533  21.1001235  57.6187525  66.8568619
  17.0458762  43.4959827  84.2817040  16.6525707  42.9426026  84.9564685
  17.8624902  43.8070406  84.6723558  14.0120819  54.9343685  68.1930610
  14.5245340  55.7286936  68.3436175  14.6643532  54.2369976  68.1264212
  15.8215704  58.0509442  70.2753363  15.9982333  58.9727406  70.0874347
  16.6172538  57.7367861  70.7047743  19.9626723  44.9117706  81.8737297
  20.7036436  45.5124860  81.7941759  20.1944646  44.1695344  81.3155340
  15.1068061  50.0974074  80.1515527  14.9921576  49.1959331  80.4522626
  14.2512578  50.3437770  79.8000343  22.1859898  58.0391814  81.7503027
  21.7423753  57.2528193  81.4323932  22.8477112  58.2270964  81.0846918
  16.9447020  59.5687616  76.2763706  17.4954445  59.4404679  75.5040700
  16.1058496  59.8682505  75.9258599  24.2841137  58.3194614  79.7784429
  24.2659612  59.1403495  79.2864698  25.2061057  58.1948689  80.0034570
  20.7414191  55.8338743  80.6207937  21.2742527  55.0727032  80.3907245
  20.2128272  55.5412395  81.3632091  23.9083886  40.9398809  76.1501579
  23.5648155  41.8300451  76.0740689  24.2762848  40.7500467  75.2871164
  11.9769736  53.2632340  68.9690181  12.8144958  53.6729348  68.7523889
  12.1548004  52.3231782  68.9390375  23.8734168  50.9307420  64.6574014
  23.3580792  51.7012025  64.8962401  23.6011477  50.2572557  65.2807075
  21.4581279  45.7757121  69.7159252  20.6022876  45.3863972  69.5364891
  21.8708231  45.8549082  68.8559038  22.9880426  43.3103465  74.1150812
  22.4845222  43.2733600  73.3018617  23.2811033  44.2196207  74.1747469
  19.2323312  43.3942194  73.1216994  20.0976309  43.1985003  72.7622883
  19.3000821  43.1652546  74.0486350  28.8468443  53.6839775  66.5927187
  28.0697885  53.3450935  66.1482349  29.5259923  53.6892398  65.9182152
  23.6620472  48.8034513  66.4833795  23.3570607  49.1180662  67.3343938
  24.6150914  48.8815932  66.5261128  22.1066903  54.9624736  68.1326749
  21.5788265  54.2277495  67.8199986  21.6054406  55.7399412  67.8866717
  27.0859749  53.1573756  73.2493795  26.4283424  53.8473018  73.3373924
  27.8900149  53.5470188  73.5927782  16.8385631  45.6244402  70.4933360
  17.4129383  45.4019584  69.7606553  17.4256613  45.6933097  71.2461962
  25.8965208  51.5118129  71.2997737  26.4097090  52.1448121  71.8019447
  26.5466432  50.9119325  70.9341097  17.1655218  47.6548863  64.5129246
  16.3292530  47.9923550  64.8338520  17.0259988  47.5197843  63.5756383
  19.1408299  42.4985651  69.2208430  18.4872711  42.1834668  68.5965045
  19.0988773  41.8761392  69.9468253  20.2519504  52.7804946  61.1361722
  19.3446565  52.5494200  61.3352871  20.7490536  51.9842565  61.3235704
  23.1587582  61.4902453  64.0558408  22.4849281  61.7934150  64.6643366
  23.5453404  62.2931534  63.7063865  22.3746039  48.9867585  73.5456078
  21.4568600  49.2082532  73.3877766  22.7906183  49.0613895  72.6867785
  23.1581087  50.3859000  68.6758758  23.9052906  50.8980397  68.3665880
  23.4272676  50.0643053  69.5363151  21.4307737  52.8817541  65.6585712
  20.5218956  52.5976574  65.7558182  21.4602821  53.3016620  64.7989019
  26.6627004  56.4924130  69.4276880  26.2089332  55.6515040  69.4842070
  26.0320971  57.1285529  69.7651660  25.6059924  47.4216117  70.6577547
  24.8682681  46.9093503  70.9887790  25.8586698  46.9816498  69.8460824
  25.1059944  58.3300627  70.3626698  25.3982918  58.8905684  69.6439063
  25.6158564  58.6229188  71.1179857  25.7071551  40.1992369  71.2519316
  26.0130428  39.3389732  70.9645231  26.4324156  40.7909989  71.0518310
  11.9995907  50.6023055  69.6400914  11.8020307  50.0092416  68.9151981
  11.4442571  50.2975265  70.3576853  19.9792631  50.4946162  71.7595507
  20.0341241  49.5419998  71.6837984  19.1683833  50.6505601  72.2436806
  21.1283825  54.4226285  62.9973791  20.6903255  53.7062144  62.5379428
  21.8694266  54.6502399  62.4358882  17.9184991  49.1123221  69.5185886
  17.1052857  49.4117392  69.9251078  18.4143985  48.7178910  70.2360369
  20.0693569  59.1080978  71.4520151  20.0269748  59.3341825  70.5228683
  20.9856268  58.8744353  71.6005952  23.5159203  49.5765046  78.3500780
  23.8708590  49.8036519  79.2095246  24.1631334  49.9083423  77.7278036
  29.2456940  52.6983482  69.0550109  29.1074838  52.8885078  68.1271298
  28.8893158  53.4602865  69.5118160  17.4099066  46.6841577  75.1347121
  18.0498445  46.5430336  74.4370085  16.5776596  46.3976090  74.7585723
  29.2726319  54.7660009  74.0661381  29.7062826  54.6735298  74.9144435
  29.9857900  54.7417509  73.4281397  18.1859370  55.9844007  71.2482114
  18.9799968  55.4894327  71.0464689  17.4751062  55.4561870  70.8849819
  23.0054214  58.3662103  75.5994481  23.0591236  58.9353039  76.3672197
  22.1368995  58.5363988  75.2348518  14.4942133  50.1287089  67.3241866
  13.5639721  50.0671545  67.5411829  14.5899605  49.6063042  66.5278508
  14.4127682  46.6541902  69.9120108  14.6734499  47.5687235  69.8029269
  15.2344854  46.1866344  70.0616721  15.8852607  48.0679659  77.0818933
  16.5575661  47.8597021  76.4331582  15.0582394  47.8701745  76.6424165
  30.1341869  54.8083709  76.5994266  30.3277759  55.7129520  76.8453541
  30.0342487  54.3491128  77.4332851  21.7878180  44.6941600  79.0984593
  21.1406095  45.3931550  79.0049070  22.5579195  45.1277744  79.4660842
  25.1956977  54.9590452  82.1735147  25.0442484  54.7301004  81.2565230
  25.1861657  55.9161054  82.1866492  21.9642314  52.5322365  77.1581413
  22.8934374  52.6833524  76.9850381  21.5433344  52.6206386  76.3030060
  20.7630646  56.5573029  74.9279951  20.6241731  56.1891814  75.8005889
  19.9745242  57.0720669  74.7563909  21.3578798  61.6582126  66.2705487
  21.5330553  61.1870169  67.0851110  20.6711586  62.2847892  66.4986748
  22.3135861  55.9354632  72.3168789  21.9785693  55.8955402  73.2126438
  21.8139806  55.2699348  71.8439199  16.2880105  51.3422262  77.8421370
  16.1499903  50.6102501  78.4432909  17.1985028  51.2531162  77.5605558
  25.2495052  53.2810666  62.5905848  24.6324223  52.5557494  62.4938901
  24.7811541  54.0420027  62.2472923  18.9162405  51.0542221  77.3305049
  19.6262024  50.4135414  77.2891668  18.8731714  51.3055116  78.2531230
  26.9049184  57.9909575  80.2511629  26.8461730  57.3068795  79.5842212
  27.3068702  58.7328565  79.7992255  17.6291339  48.0407439  79.1500689
  17.0928696  47.5898178  79.8022285  17.0408048  48.1753348  78.4071153
  15.9239883  64.8071489  73.0445348  16.1636481  65.4390013  73.7224366
  15.0809079  64.4559529  73.3310707  17.0393598  47.4996091  61.7127153
  16.1623065  47.3784891  61.3489399  17.5151351  46.7082169  61.4606041
  26.9066591  55.9549159  78.4825608  26.0193370  55.6175080  78.6052007
  27.4765142  55.2232190  78.7194374   8.5595738  52.2873250  71.8068660
   9.2466778  51.9734980  71.2189675   8.4043867  53.1914615  71.5335911
  13.3630461  47.1763447  76.2353683  13.2788649  46.5689116  75.5004093
  12.5413167  47.6672465  76.2363180  20.4367745  60.6150611  75.4486852
  20.3637916  61.4205582  75.9606156  19.9945138  60.8142577  74.6234873
  20.2257524  59.8522381  68.9589673  19.4425046  60.3944061  69.0527898
  20.9250270  60.3696361  69.3583914  23.5354174  45.6617010  71.6023878
  24.0322874  44.9086973  71.2824949  22.7641156  45.6981327  71.0367088
  31.3883932  51.3657376  73.2442170  31.3773808  52.2482091  72.8736103
  30.5201311  51.0128927  73.0496707  22.8966428  60.5137445  77.6045010
  23.6094400  61.1484910  77.5320912  22.4056457  60.6101311  76.7885012
  24.6183955  54.4188698  69.1762302  23.6840234  54.5390160  69.0067006
  24.7960624  53.5161164  68.9122312  20.1189143  47.8034393  71.3295563
  19.7486931  47.2505434  72.0176469  20.6148236  47.1992527  70.7770563
  28.0056507  50.2606017  69.7112336  28.4716959  51.0934009  69.6372639
  28.4564007  49.7950999  70.4157594  17.9478342  58.2631888  78.4250581
  18.6487801  58.8968371  78.5779975  17.4773457  58.6046620  77.6646220
  26.0732738  56.6049838  66.7098488  26.3492582  56.4906433  67.6192362
  25.2037236  56.2067323  66.6710661  25.9773169  42.6286604  73.7503237
  25.0636249  42.8590831  73.9185444  26.4066271  42.7125048  74.6017270
  25.7479628  50.8176496  76.2503131  25.0951078  51.0652403  75.5955584
  26.1260008  50.0040634  75.9165609  22.7086802  60.8536189  70.3531302
  22.8909196  60.0357845  70.8159054  23.5319788  61.0703881  69.9156192
  23.0428967  59.7804374  67.6146350  23.5716734  59.2696829  67.0016512
  23.3057187  59.4646904  68.4791883  21.7967201  51.5596307  82.7369168
  21.1207838  51.4590436  83.4071544  22.6194835  51.4035521  83.2005166
  13.5446060  57.7968243  75.3581684  14.1299497  57.0511931  75.4909588
  13.3470898  58.1072200  76.2418348  16.3984715  60.8319491  70.3744126
  15.7295090  61.3165619  69.8908166  16.2597585  61.0788711  71.2887505
   8.1363715  50.3673844  74.0786127   8.1747814  49.8337434  74.8723245
   7.6304007  49.8409049  73.4597104  20.5389984  62.8663234  76.9726784
  21.0908292  63.0294856  77.7375870  20.8796177  63.4567672  76.3006809
  15.5154477  45.2138384  77.5748669  15.5795803  46.0753215  77.1626067
  15.4521597  44.6012386  76.8421028  14.9906749  47.2861517  81.2221703
  15.6178788  46.9038594  81.8359228  14.1334668  47.0675719  81.5877396
  25.3900858  57.6924492  82.8275439  25.9340762  58.3054450  82.3330394
  24.8087703  58.2504070  83.3442452  11.7672292  49.0937946  67.1540058
  12.0625733  48.1848624  67.1007112  10.8660328  49.0725685  66.8321061
  23.6758371  60.8145210  73.9590467  23.5509510  60.0134950  73.4501412
  24.3337462  61.3091403  73.4704437  15.2966539  47.1693942  73.1367607
  14.5753125  47.7829910  72.9975080  16.0859795  47.7051707  73.0584253
  25.7393279  58.6154230  75.5870017  24.7923615  58.4959581  75.5148343
  26.0876052  57.7276728  75.6696278  18.0992853  44.5048369  79.4108259
  18.6227255  44.7510665  80.1734568  17.8805186  45.3368404  78.9911396
  13.4960134  46.7752044  67.2779383  13.1672840  45.8949422  67.0954489
  13.8499504  46.7199712  68.1655773  22.7439713  58.4106946  71.7874369
  22.5964675  57.4823654  71.9681939  23.5693206  58.4327037  71.3031444
  16.6101957  47.0625013  67.6454861  16.9498029  47.5910935  66.9233469
  17.0574077  47.4005419  68.4213428  26.3473834  59.2335505  72.8739242
  27.2720382  59.0278366  72.7363693  26.1789138  58.9851906  73.7828583
  19.3045398  45.4462064  77.0957929  18.9642218  44.6469877  77.4978609
  18.5984404  45.7463775  76.5234762  19.9561870  42.5311376  75.5485252
  20.7787939  42.0571855  75.4264142  20.1999933  43.3101860  76.0483938
  18.5970104  45.5599635  65.8448154  19.3178467  45.9380888  65.3411871
  17.9735408  46.2788512  65.9483132  22.7401227  46.2644784  66.7806486
  22.9564841  47.1469422  66.4795314  22.2595294  45.8730997  66.0512128
  17.4800448  49.2230497  73.3577231  17.3345029  49.5370800  74.2501512
  17.0025652  49.8415397  72.8048129  19.3396831  46.2133045  73.4058120
  19.3258400  45.3174138  73.0690418  20.0569259  46.2203709  74.0396406
  21.1922962  46.6470385  75.4511248  20.9340740  47.5687456  75.4495578
  20.6608002  46.2500820  76.1411712  26.1369151  59.7521172  68.2301333
  26.3106028  59.1867595  67.4775186  26.6298042  60.5522067  68.0480823
  11.9546110  51.7635841  76.2964892  11.4099579  52.5395649  76.4285166
  12.8325460  52.1106646  76.1384013  18.7433727  45.0947425  68.6745690
  18.8649638  44.1664072  68.8736578  18.4535770  45.1086111  67.7624006
  21.6124918  42.7802336  71.8112410  21.6346614  42.8441669  70.8564390
  22.0292977  41.9406844  72.0052916  31.9908542  52.5157595  69.8491633
  32.4339688  51.7664921  69.4510756  31.1135052  52.5067732  69.4665365
  27.1244323  59.0687937  65.3298231  27.8195228  59.6894629  65.5485546
  27.4667473  58.2183288  65.6050609  12.7412132  50.8905738  79.1895049
  11.9993868  51.0388373  79.7759679  12.4204877  51.1514003  78.3261798
  29.0235746  56.5187642  66.8585562  29.5487070  56.8574915  66.1334882
  28.9358099  55.5834658  66.6748697  20.6855795  60.4321716  78.9875439
  20.9942921  60.1870863  79.8598138  21.4831277  60.6368354  78.4994309
  20.7076407  62.5859626  71.2180815  20.2681397  62.0936004  71.9113672
  21.4584524  62.0432593  70.9772891  13.1868746  58.7771166  71.2205443
  14.0126766  58.4774938  70.8404087  12.8362798  58.0078789  71.6695232
  18.1550279  58.1297635  73.2903117  17.5330288  57.4668340  72.9905345
  18.8255146  58.1558767  72.6076765  11.3877351  56.6957493  72.1794377
  10.5509259  56.2679667  71.9978378  11.3600997  56.8889936  73.1165168
  18.2274807  46.6079423  82.8835623  18.2762962  47.4841546  82.5013393
  18.7697321  46.0656816  82.3107266  28.7129652  57.1520546  82.1636760
  27.9225196  57.1344685  81.6241260  28.4763007  57.6908840  82.9185797
  28.8327527  54.0013012  79.4769489  28.8825532  53.8363020  80.4185011
  28.7241451  53.1340271  79.0867369  17.7163786  56.6801558  66.7661578
  17.8651906  57.3637022  66.1128250  18.5230230  56.6606648  67.2811033
  26.1231290  49.9843940  80.7928795  27.0241153  49.8450405  80.5012793
  26.1979264  50.1498395  81.7326973  20.4574095  47.3610795  79.6381982
  19.5877405  47.6544361  79.3664570  20.6933576  47.9451240  80.3589245
  30.3345724  56.4209954  79.7211510  30.0430533  56.7839934  80.5574971
  29.7217856  55.7076962  79.5424842  31.5341407  53.9862834  72.2414080
  32.3688298  54.4252638  72.4051641  31.6700535  53.5101487  71.4222326
  28.5832912  51.5442568  78.1891568  29.0587034  51.7370215  77.3810420
  27.6598478  51.6001754  77.9434952  15.4716419  52.7066736  67.7722646
  15.2262461  51.8029066  67.9702857  15.6412334  52.7083886  66.8302124
  23.1613129  43.5790412  77.1547402  23.6795073  44.3151439  76.8293891
  22.8068262  43.8854405  77.9894161  14.7412067  48.4395093  65.2708808
  14.0481312  48.5139448  64.6148844  14.4963819  47.6755437  65.7930325
  23.4125723  39.9990695  72.6748299  23.6927477  39.3313884  73.3008725
  24.1976330  40.1919790  72.1622962  21.2159192  59.1749688  64.2373325
  20.6433159  59.7939876  63.7843797  21.7891985  59.7249050  64.7713247
  27.2834581  48.4208329  76.4219874  28.2352004  48.5206426  76.4432098
  27.1138032  47.6286597  76.9317958  25.3048961  45.5063912  76.6079275
  24.7098893  45.7868925  75.9125763  25.0198658  45.9957813  77.3796016
  24.4356451  59.4586839  65.3681907  25.3687125  59.3932400  65.5714783
  24.3479664  60.2943105  64.9096440  27.0644468  58.7752709  62.3285855
  26.9858100  58.4412573  63.2221613  27.8854135  59.2674477  62.3277327
  29.7622659  51.6414448  75.5362173  29.7298979  50.7030449  75.7221857
  30.3723283  51.7198485  74.8027998  21.6005990  50.5110501  61.5789377
  22.5465095  50.3816709  61.6477795  21.2220235  49.7725163  62.0558806
  29.9117148  48.4325492  75.5820457  29.3956196  47.6483948  75.3950385
  30.7957096  48.1044208  75.7466976  27.5727875  42.1766507  71.5416269
  27.3752696  41.8681595  72.4259601  28.1827580  42.9028146  71.6714199
  35.5799209  52.7030455  74.6768210  36.3102598  52.4415743  75.2375914
  34.9706155  51.9659177  74.7170278  33.6614506  50.8438318  75.2742661
  32.9347670  50.7094283  74.6659153  33.2461793  51.1515146  76.0799379
  21.4844683  54.5628247  83.0390034  22.4047692  54.7406846  83.2330081
  21.4494266  53.6184293  82.8869734  19.7848907  48.4360478  61.5144263
  18.8780363  48.1393590  61.5906976  20.0624888  48.1390296  60.6478549
  10.7026848  49.7566841  71.9643309  10.3829632  48.9032149  71.6717683
  10.1560276  49.9715419  72.7201276  14.4806755  52.4729282  75.6812816
  14.6992765  53.4046390  75.7000849  14.8932529  52.1137256  76.4667619
  21.4010973  42.9797367  67.6688504  20.5911701  42.6344452  68.0443750
  22.0895390  42.6704911  68.2576116  23.3301521  42.0575414  69.2912801
  23.8832560  42.4770868  69.9502824  23.5671608  41.1311162  69.3335757
  19.3534621  48.0462488  85.0715565  19.2531347  48.9956845  85.0027656
  19.1356163  47.7180727  84.1991635  18.5547692  45.2947413  61.6556242
  19.4166856  45.6202311  61.9152059  18.7398036  44.5078909  61.1429308
  10.5715108  53.3769753  73.9336431   9.8778579  52.9623705  73.4206385
  11.3188099  53.4190289  73.3369850  26.7080328  44.1675939  68.7991465
  26.1278997  44.8260743  68.4169517  26.4416261  43.3453284  68.3878882
  25.1583895  43.5680997  71.0012785  25.6583673  43.6797532  70.1927104
  25.8019503  43.2642050  71.6413594  19.2165891  51.4759627  83.8880626
  18.7332972  52.2759987  84.0944515  19.3026830  51.4867572  82.9348070
  12.4851850  53.3088006  71.8102446  12.4622538  53.4075694  70.8584329
  12.7952487  54.1553157  72.1319612  15.1439228  55.3664161  75.9249060
  16.0982482  55.3348104  75.8578992  14.9451752  54.9054785  76.7399286
  15.7338610  53.9365277  78.4919858  16.5531499  54.4309356  78.5154695
  16.0075418  53.0197246  78.4637425  25.4905206  46.3276030  67.8547813
  24.6031061  46.6125680  67.6368008  25.9059195  46.1669793  67.0075090
  28.8419743  46.3522551  71.5702152  29.6180133  46.8419003  71.8426769
  28.1167877  46.7780605  72.0274022  31.2792301  47.0650170  72.6276093
  31.8736792  46.8245906  71.9169401  31.3518885  46.3457300  73.2549629
  13.4989457  60.9083781  72.9419258  13.3643925  60.1484182  72.3757256
  13.0821519  61.6324681  72.4748047  24.6348420  56.0920704  61.9495833
  25.3384270  56.2970707  62.5653489  23.9111069  56.6597466  62.2144917
  25.4646230  51.8430566  68.0698103  25.4081432  52.2999117  67.2305736
  26.0174573  51.0821250  67.8920946  29.2751036  47.6320297  68.8948223
  29.0187970  47.2316933  69.7256430  28.6503904  48.3464091  68.7698362
  33.5863374  50.3716371  71.4019514  33.0262932  50.4409560  72.1751076
  32.9806877  50.1957355  70.6819010  16.6558583  61.8053098  73.1537700
  16.5390967  62.7498530  73.0516391  15.8351029  61.5026659  73.5423500
  26.5435117  56.5303234  63.9994293  27.3780721  56.0984432  63.8171768
  26.3819460  56.3585247  64.9271188  26.1981009  53.0335347  65.3650632
  26.1429813  52.8679618  64.4239077  25.5727065  53.7411380  65.5212822
  10.9873524  48.2703411  79.1912055  11.6332388  47.7602365  79.6799280
  10.7790676  49.0072093  79.7655480  23.5126917  55.3384259  84.6904195
  24.3818076  55.5124911  84.3290830  23.0333668  56.1578676  84.5679925
  19.5077135  42.5343456  64.9435951  19.4955805  43.4785296  65.1004222
  20.4000557  42.3513601  64.6495412  17.6813097  62.4581360  76.3693629
  18.5840344  62.4904970  76.6860124  17.4550467  61.5281811  76.3839965
  19.4366699  61.2112346  73.0303708  18.4862330  61.2114208  72.9168080
  19.7399185  60.4645081  72.5139742  23.3229254  39.1286233  69.1981888
  22.5561650  38.5744719  69.3438570  23.7339959  39.2008101  70.0596039
  15.3271015  45.4171028  83.2887069  16.1902477  45.0607833  83.4990393
  14.7536426  45.0784923  83.9762473  35.1719392  67.0472885  74.0949470
  35.8097802  66.9279632  73.3912810  35.0540235  67.9953729  74.1537422
  31.9809099  67.0000313  74.0310995  31.6427610  66.8841377  73.1431529
  32.8498867  66.5991478  74.0112001  27.8395914  68.8535789  70.0207886
  27.2760779  68.7625726  69.2524173  27.7248309  68.0335694  70.5010378
  32.4628882  68.1535165  79.9897200  32.4517522  67.7587963  79.1177704
  32.6249521  67.4201237  80.5830972  25.3860346  70.3486981  72.8592106
  26.1781638  70.0077805  72.4438405  25.6256996  70.4581956  73.7794259
  33.4195473  72.5206757  65.3322350  32.7683453  73.1060837  64.9456364
  34.2139836  73.0512952  65.3917388  27.3451100  69.6095894  65.7309485
  28.1181976  69.0624881  65.5922361  27.6976499  70.4740143  65.9423946
  29.1836143  70.9372276  78.9376384  28.8926009  71.8417907  78.8223050
  29.8193127  70.9788804  79.6520454  30.1092350  68.3149125  75.5277744
  30.7055922  68.0905147  74.8134707  30.1667321  67.5733870  76.1303192
  29.6817378  65.7688560  63.3627935  29.9342899  65.2470081  62.6011398
  28.7441937  65.6054706  63.4654618  34.7260661  64.7724339  71.1702678
  35.5123750  64.3543762  70.8193095  34.9899365  65.6770431  71.3384326
  34.8970738  70.2097189  65.8691335  34.2616571  70.2831815  66.5812239
  34.5668145  70.7990788  65.1910414  40.1269088  64.7099572  72.0735656
  40.8594260  64.1398789  72.3073486  39.3708444  64.3221172  72.5142162
  29.4013667  67.6716666  65.5652310  29.2849925  66.9961570  66.2333394
  29.5115927  67.1849040  64.7484463  31.7445208  67.1326813  69.2698999
  31.3803415  66.6057434  69.9811920  32.6012324  66.7425282  69.0965484
  37.6494508  58.4221146  76.5330265  37.3177833  59.2916557  76.3091480
  37.0540122  58.1057430  77.2124295  31.3850695  62.1616713  64.2660347
  31.5525097  63.0296949  64.6330818  31.1947864  62.3243995  63.3421637
  34.1426028  70.6233692  75.9326178  33.8426751  71.5258731  75.8241985
  33.7977087  70.3565875  76.7847331  27.5938509  67.0747489  71.9662882
  26.6689006  66.9423703  72.1740574  27.8422923  67.8541708  72.4632825
  37.5423172  63.1416232  73.6123615  36.6340049  63.0731640  73.3182376
  37.4910767  63.6188177  74.4405441  31.3639916  64.6174370  65.2507014
  31.2439541  65.0631421  66.0892495  30.6692504  64.9659688  64.6920552
  24.9547320  66.7180762  72.8006671  25.0839702  66.9715241  73.7146083
  24.2744772  67.3108470  72.4811326  29.1246808  77.3878012  68.8997146
  29.0470837  78.3385837  68.9785626  28.5208451  77.0423885  69.5572072
  31.6164037  64.5605878  81.5558512  30.8397372  65.1199798  81.5461377
  32.2554600  65.0462661  82.0773383  39.4084818  61.3432670  75.3901489
  38.7659198  61.6365204  74.7441284  38.9039747  61.2285591  76.1954686
  37.0624982  65.0895844  66.0787348  37.9742838  65.3223230  65.9035046
  36.5534629  65.6732888  65.5162427  29.8710410  67.3691331  81.1176479
  30.6125094  67.9076375  80.8411303  29.1647395  67.9957620  81.2748031
  35.3465749  69.5120471  79.7148641  35.7549105  69.0702882  78.9703273
  34.6243011  68.9373099  79.9682834  31.6996819  64.4493078  77.0882198
  32.5458015  64.8732492  77.2316847  31.6395457  63.7926703  77.7820761
  35.6694564  70.0721662  73.4700930  35.0403426  70.2367376  72.7676998
  35.2820226  70.4863272  74.2411894  39.5483796  71.0076100  70.8245294
  38.8634834  71.3875001  70.2742327  39.6327645  71.6171427  71.5577241
  34.8496265  62.1097447  78.7463371  34.6057197  62.8639507  78.2097647
  35.1256195  62.4882794  79.5810619  36.8034728  68.6536059  77.4240637
  37.0151623  69.2967819  76.7475018  36.7564476  67.8198375  76.9562567
  34.4060956  61.2653880  74.3277209  33.5445436  61.5635133  74.6193947
  34.4323391  61.4824278  73.3958242  31.2222526  69.8096070  70.7351015
  31.6860871  70.0883773  69.9455637  30.9579324  68.9079515  70.5524106
  28.1146607  69.3567552  73.6730778  28.6847964  69.7854820  73.0348263
  28.7054719  69.0750136  74.3714964  30.1591412  65.9319223  67.5440580
  30.8615455  66.3840266  68.0114506  29.8272040  65.2903041  68.1720473
  28.6071773  64.5230979  81.9191789  27.9770434  65.2047260  82.1527186
  28.5007861  64.4114061  80.9744928  23.9016746  64.1902775  72.8457714
  23.1115800  64.4460304  72.3697824  24.3927993  65.0051113  72.9509754
  37.9180555  71.5308014  75.5962994  38.7397999  71.1288202  75.3145676
  37.9142958  71.4276249  76.5479110  25.8531491  64.5547354  69.8041190
  25.0562655  64.6666049  70.3224686  25.6257084  64.8934007  68.9382081
  31.6837159  71.0792058  77.7523705  31.7481591  71.5412465  78.5881877
  30.9748083  70.4489423  77.8806015  22.1854449  64.4433266  75.2772704
  22.4362487  65.3280276  75.5430280  22.7213997  64.2637867  74.5047796
  46.0086549  67.8746763  71.9447966  45.2550257  67.3054161  71.7891970
  46.1434090  67.8409427  72.8918601  31.3985177  72.7460165  67.6202685
  31.2630851  73.5911701  68.0487533  31.9394989  72.9479443  66.8568619
  27.8852516  58.8251745  84.2817040  27.4919462  58.2717944  84.9564685
  28.7018657  59.1362323  84.6723558  24.8514574  70.2635603  68.1930610
  25.3639095  71.0578853  68.3436175  25.5037287  69.5661894  68.1264212
  26.6609459  73.3801359  70.2753363  26.8376087  74.3019324  70.0874347
  27.4566292  73.0659779  70.7047743  30.8020477  60.2409624  81.8737297
  31.5430191  60.8416777  81.7941759  31.0338400  59.4987262  81.3155340
  25.9461815  65.4265991  80.1515527  25.8315330  64.5251249  80.4522626
  25.0906333  65.6729688  79.8000343  33.0253653  73.3683732  81.7503027
  32.5817507  72.5820110  81.4323932  33.6870867  73.5562882  81.0846918
  27.7840774  74.8979533  76.2763706  28.3348199  74.7696597  75.5040700
  26.9452250  75.1974422  75.9258599  35.1234891  73.6486532  79.7784429
  35.1053366  74.4695413  79.2864698  36.0454811  73.5240607  80.0034570
  31.5807945  71.1630661  80.6207937  32.1136282  70.4018949  80.3907245
  31.0522026  70.8704313  81.3632091  34.7477640  56.2690727  76.1501579
  34.4041910  57.1592369  76.0740689  35.1156603  56.0792385  75.2871164
  22.8163491  68.5924257  68.9690181  23.6538713  69.0021266  68.7523889
  22.9941758  67.6523700  68.9390375  34.7127923  66.2599338  64.6574014
  34.1974546  67.0303943  64.8962401  34.4405231  65.5864474  65.2807075
  32.2975034  61.1049039  69.7159252  31.4416630  60.7155889  69.5364891
  32.7101986  61.1841000  68.8559038  33.8274181  58.6395382  74.1150812
  33.3238976  58.6025517  73.3018617  34.1204787  59.5488125  74.1747469
  30.0717066  58.7234112  73.1216994  30.9370063  58.5276921  72.7622883
  30.1394575  58.4944464  74.0486350  39.6862197  69.0131693  66.5927187
  38.9091640  68.6742852  66.1482349  40.3653678  69.0184316  65.9182152
  34.5014226  64.1326430  66.4833795  34.1964362  64.4472579  67.3343938
  35.4544668  64.2107850  66.5261128  32.9460658  70.2916654  68.1326749
  32.4182019  69.5569413  67.8199986  32.4448161  71.0691330  67.8866717
  37.9253504  68.4865674  73.2493795  37.2677178  69.1764935  73.3373924
  38.7293903  68.8762106  73.5927782  27.6779386  60.9536320  70.4933360
  28.2523137  60.7311501  69.7606553  28.2650368  61.0225014  71.2461962
  36.7358963  66.8410047  71.2997737  37.2490844  67.4740039  71.8019447
  37.3860187  66.2411242  70.9341097  28.0048973  62.9840781  64.5129246
  27.1686285  63.3215467  64.8338520  27.8653742  62.8489761  63.5756383
  29.9802053  57.8277569  69.2208430  29.3266466  57.5126586  68.5965045
  29.9382527  57.2053309  69.9468253  31.0913258  68.1096864  61.1361722
  30.1840320  67.8786117  61.3352871  31.5884290  67.3134483  61.3235704
  33.9981337  76.8194371  64.0558408  33.3243036  77.1226068  64.6643366
  34.3847159  77.6223451  63.7063865  33.2139794  64.3159502  73.5456078
  32.2962355  64.5374449  73.3877766  33.6299937  64.3905813  72.6867785
  33.9974841  65.7150918  68.6758758  34.7446660  66.2272315  68.3665880
  34.2666431  65.3934971  69.5363151  32.2701492  68.2109459  65.6585712
  31.3612711  67.9268491  65.7558182  32.2996575  68.6308537  64.7989019
  37.5020759  71.8216048  69.4276880  37.0483086  70.9806958  69.4842070
  36.8714726  72.4577447  69.7651660  36.4453678  62.7508034  70.6577547
  35.7076435  62.2385420  70.9887790  36.6980452  62.3108416  69.8460824
  35.9453698  73.6592545  70.3626698  36.2376673  74.2197602  69.6439063
  36.4552319  73.9521106  71.1179857  36.5465306  55.5284286  71.2519316
  36.8524183  54.6681650  70.9645231  37.2717911  56.1201906  71.0518310
  22.8389662  65.9314973  69.6400914  22.6414062  65.3384334  68.9151981
  22.2836326  65.6267183  70.3576853  30.8186386  65.8238079  71.7595507
  30.8734995  64.8711916  71.6837984  30.0077588  65.9797518  72.2436806
  31.9677579  69.7518202  62.9973791  31.5297009  69.0354061  62.5379428
  32.7088020  69.9794317  62.4358882  28.7578745  64.4415139  69.5185886
  27.9446611  64.7409310  69.9251078  29.2537740  64.0470828  70.2360369
  30.9087323  74.4372896  71.4520151  30.8663502  74.6633742  70.5228683
  31.8250022  74.2036271  71.6005952  34.3552957  64.9056963  78.3500780
  34.7102345  65.1328437  79.2095246  35.0025088  65.2375340  77.7278036
  40.0850694  68.0275399  69.0550109  39.9468593  68.2176995  68.1271298
  39.7286913  68.7894782  69.5118160  28.2492820  62.0133495  75.1347121
  28.8892200  61.8722254  74.4370085  27.4170351  61.7268008  74.7585723
  40.1120074  70.0951926  74.0661381  40.5456580  70.0027215  74.9144435
  40.8251654  70.0709427  73.4281397  29.0253124  71.3135925  71.2482114
  29.8193723  70.8186245  71.0464689  28.3144817  70.7853788  70.8849819
  33.8447969  73.6954020  75.5994481  33.8984991  74.2644957  76.3672197
  32.9762750  73.8655906  75.2348518  25.3335888  65.4579007  67.3241866
  24.4033476  65.3963462  67.5411829  25.4293360  64.9354959  66.5278508
  25.2521437  61.9833820  69.9120108  25.5128254  62.8979153  69.8029269
  26.0738609  61.5158262  70.0616721  26.7246362  63.3971577  77.0818933
  27.3969415  63.1888939  76.4331582  25.8976149  63.1993663  76.6424165
  40.9735623  70.1375627  76.5994266  41.1671513  71.0421438  76.8453541
  40.8736241  69.6783046  77.4332851  32.6271934  60.0233518  79.0984593
  31.9799849  60.7223467  79.0049070  33.3972949  60.4569662  79.4660842
  36.0350732  70.2882370  82.1735147  35.8836238  70.0592921  81.2565230
  36.0255411  71.2452971  82.1866492  32.8036068  67.8614283  77.1581413
  33.7328128  68.0125442  76.9850381  32.3827098  67.9498303  76.3030060
  31.6024400  71.8864947  74.9279951  31.4635486  71.5183731  75.8005889
  30.8138996  72.4012586  74.7563909  32.1972552  76.9874043  66.2705487
  32.3724308  76.5162087  67.0851110  31.5105340  77.6139810  66.4986748
  33.1529615  71.2646550  72.3168789  32.8179448  71.2247320  73.2126438
  32.6533561  70.5991266  71.8439199  27.1273859  66.6714180  77.8421370
  26.9893657  65.9394419  78.4432909  28.0378783  66.5823080  77.5605558
  36.0888807  68.6102584  62.5905848  35.4717978  67.8849412  62.4938901
  35.6205295  69.3711944  62.2472923  29.7556160  66.3834139  77.3305049
  30.4655778  65.7427331  77.2891668  29.7125468  66.6347034  78.2531230
  37.7442939  73.3201492  80.2511629  37.6855485  72.6360712  79.5842212
  38.1462457  74.0620482  79.7992255  28.4685094  63.3699357  79.1500689
  27.9322451  62.9190095  79.8022285  27.8801802  63.5045266  78.4071153
  26.7633637  80.1363406  73.0445348  27.0030236  80.7681930  73.7224366
  25.9202834  79.7851446  73.3310707  27.8787353  62.8288008  61.7127153
  27.0016819  62.7076809  61.3489399  28.3545106  62.0374087  61.4606041
  37.7460346  71.2841076  78.4825608  36.8587125  70.9466998  78.6052007
  38.3158897  70.5524108  78.7194374  19.3989493  67.6165168  71.8068660
  20.0860533  67.3026898  71.2189675  19.2437622  68.5206533  71.5335911
  24.2024215  62.5055365  76.2353683  24.1182404  61.8981034  75.5004093
  23.3806922  62.9964383  76.2363180  31.2761499  75.9442529  75.4486852
  31.2031671  76.7497500  75.9606156  30.8338892  76.1434494  74.6234873
  31.0651279  75.1814299  68.9589673  30.2818801  75.7235979  69.0527898
  31.7644024  75.6988278  69.3583914  34.3747929  60.9908928  71.6023878
  34.8716629  60.2378890  71.2824949  33.6034910  61.0273245  71.0367088
  42.2277686  66.6949294  73.2442170  42.2167563  67.5774009  72.8736103
  41.3595066  66.3420844  73.0496707  33.7360183  75.8429363  77.6045010
  34.4488155  76.4776827  77.5320912  33.2450211  75.9393229  76.7885012
  35.4577710  69.7480615  69.1762302  34.5233988  69.8682078  69.0067006
  35.6354378  68.8453082  68.9122312  30.9582898  63.1326311  71.3295563
  30.5880685  62.5797351  72.0176469  31.4541990  62.5284445  70.7770563
  38.8450261  65.5897935  69.7112336  39.3110713  66.4225926  69.6372639
  39.2957762  65.1242916  70.4157594  28.7872096  73.5923806  78.4250581
  29.4881556  74.2260289  78.5779975  28.3167211  73.9338538  77.6646220
  36.9126492  71.9341756  66.7098488  37.1886336  71.8198350  67.6192362
  36.0430991  71.5359241  66.6710661  36.8166924  57.9578522  73.7503237
  35.9030004  58.1882748  73.9185444  37.2460025  58.0416966  74.6017270
  36.5873382  66.1468414  76.2503131  35.9344833  66.3944321  75.5955584
  36.9653762  65.3332552  75.9165609  33.5480556  76.1828107  70.3531302
  33.7302951  75.3649763  70.8159054  34.3713542  76.3995799  69.9156192
  33.8822722  75.1096292  67.6146350  34.4110488  74.5988746  67.0016512
  34.1450941  74.7938822  68.4791883  32.6360955  66.8888225  82.7369168
  31.9601592  66.7882354  83.4071544  33.4588589  66.7327438  83.2005166
  24.3839814  73.1260161  75.3581684  24.9693251  72.3803849  75.4909588
  24.1864653  73.4364118  76.2418348  27.2378470  76.1611409  70.3744126
  26.5688845  76.6457536  69.8908166  27.0991339  76.4080629  71.2887505
  18.9757469  65.6965761  74.0786127  19.0141569  65.1629352  74.8723245
  18.4697762  65.1700967  73.4597104  31.3783738  78.1955152  76.9726784
  31.9302046  78.3586774  77.7375870  31.7189932  78.7859590  76.3006809
  26.3548231  60.5430302  77.5748669  26.4189558  61.4045133  77.1626067
  26.2915352  59.9304304  76.8421028  25.8300504  62.6153434  81.2221703
  26.4572543  62.2330512  81.8359228  24.9728423  62.3967636  81.5877396
  36.2294612  73.0216410  82.8275439  36.7734516  73.6346368  82.3330394
  35.6481457  73.5795988  83.3442452  22.6066047  64.4229864  67.1540058
  22.9019488  63.5140542  67.1007112  21.7054082  64.4017603  66.8321061
  34.5152125  76.1437128  73.9590467  34.3903265  75.3426867  73.4501412
  35.1731217  76.6383321  73.4704437  26.1360294  62.4985860  73.1367607
  25.4146879  63.1121828  72.9975080  26.9253549  63.0343625  73.0584253
  36.5787034  73.9446148  75.5870017  35.6317369  73.8251499  75.5148343
  36.9269807  73.0568646  75.6696278  28.9386607  59.8340287  79.4108259
  29.4621009  60.0802583  80.1734568  28.7198940  60.6660321  78.9911396
  24.3353888  62.1043961  67.2779383  24.0066594  61.2241340  67.0954489
  24.6893259  62.0491630  68.1655773  33.5833467  73.7398864  71.7874369
  33.4358430  72.8115571  71.9681939  34.4086961  73.7618955  71.3031444
  27.4495711  62.3916931  67.6454861  27.7891784  62.9202852  66.9233469
  27.8967832  62.7297337  68.4213428  37.1867589  74.5627423  72.8739242
  38.1114136  74.3570284  72.7363693  37.0182892  74.3143824  73.7828583
  30.1439152  60.7753982  77.0957929  29.8035973  59.9761795  77.4978609
  29.4378159  61.0755693  76.5234762  30.7955624  57.8603294  75.5485252
  31.6181693  57.3863772  75.4264142  31.0393688  58.6393778  76.0483938
  29.4363859  60.8891553  65.8448154  30.1572221  61.2672805  65.3411871
  28.8129163  61.6080429  65.9483132  33.5794981  61.5936702  66.7806486
  33.7958596  62.4761339  66.4795314  33.0989049  61.2022915  66.0512128
  28.3194203  64.5522415  73.3577231  28.1738784  64.8662718  74.2501512
  27.8419406  65.1707315  72.8048129  30.1790586  61.5424963  73.4058120
  30.1652154  60.6466056  73.0690418  30.8963014  61.5495627  74.0396406
  32.0316716  61.9762303  75.4511248  31.7734494  62.8979374  75.4495578
  31.5001757  61.5792738  76.1411712  36.9762905  75.0813090  68.2301333
  37.1499783  74.5159513  67.4775186  37.4691796  75.8813985  68.0480823
  22.7939865  67.0927759  76.2964892  22.2493333  67.8687567  76.4285166
  23.6719215  67.4398564  76.1384013  29.5827482  60.4239343  68.6745690
  29.7043393  59.4955989  68.8736578  29.2929524  60.4378029  67.7624006
  32.4518672  58.1094253  71.8112410  32.4740369  58.1733587  70.8564390
  32.8686731  57.2698762  72.0052916  42.8302296  67.8449513  69.8491633
  43.2733442  67.0956838  69.4510756  41.9528807  67.8359649  69.4665365
  23.5805887  66.2197655  79.1895049  22.8387623  66.3680291  79.7759679
  23.2598631  66.4805921  78.3261798  31.5249549  75.7613634  78.9875439
  31.8336676  75.5162780  79.8598138  32.3225032  75.9660272  78.4994309
  31.5470162  77.9151543  71.2180815  31.1075152  77.4227922  71.9113672
  32.2978278  77.3724511  70.9772891  24.0262501  74.1063084  71.2205443
  24.8520520  73.8066856  70.8404087  23.6756553  73.3370707  71.6695232
  28.9944034  73.4589552  73.2903117  28.3724043  72.7960257  72.9905345
  29.6648901  73.4850684  72.6076765  22.2271106  72.0249411  72.1794377
  21.3903014  71.5971585  71.9978378  22.1994751  72.2181854  73.1165168
  29.0668561  61.9371340  82.8835623  29.1156717  62.8133463  82.5013393
  29.6091075  61.3948733  82.3107266  39.5523407  72.4812464  82.1636760
  38.7618951  72.4636603  81.6241260  39.3156761  73.0200757  82.9185797
  39.6721282  69.3304930  79.4769489  39.7219287  69.1654937  80.4185011
  39.5635205  68.4632189  79.0867369  28.5557541  72.0093476  66.7661578
  28.7045661  72.6928940  66.1128250  29.3623984  71.9898566  67.2811033
  36.9625044  65.3135858  80.7928795  37.8634907  65.1742323  80.5012793
  37.0373019  65.4790313  81.7326973  31.2967850  62.6902713  79.6381982
  30.4271159  62.9836279  79.3664570  31.5327330  63.2743158  80.3589245
  41.1739479  71.7501872  79.7211510  40.8824287  72.1131852  80.5574971
  40.5611610  71.0368880  79.5424842  42.3735161  69.3154751  72.2414080
  43.2082052  69.7544555  72.4051641  42.5094290  68.8393405  71.4222326
  39.4226667  66.8734486  78.1891568  39.8980789  67.0662132  77.3810420
  38.4992232  66.9293672  77.9434952  26.3110174  68.0358653  67.7722646
  26.0656216  67.1320983  67.9702857  26.4806088  68.0375804  66.8302124
  34.0006883  58.9082330  77.1547402  34.5188827  59.6443357  76.8293891
  33.6462016  59.2146323  77.9894161  25.5805821  63.7687011  65.2708808
  24.8875066  63.8431366  64.6148844  25.3357573  63.0047355  65.7930325
  34.2519478  55.3282612  72.6748299  34.5321231  54.6605801  73.3008725
  35.0370085  55.5211708  72.1622962  32.0552946  74.5041606  64.2373325
  31.4826913  75.1231793  63.7843797  32.6285740  75.0540968  64.7713247
  38.1228336  63.7500246  76.4219874  39.0745759  63.8498344  76.4432098
  37.9531786  62.9578515  76.9317958  36.1442715  60.8355829  76.6079275
  35.5492648  61.1160842  75.9125763  35.8592412  61.3249730  77.3796016
  35.2750206  74.7878756  65.3681907  36.2080879  74.7224318  65.5714783
  35.1873419  75.6235023  64.9096440  40.6016414  66.9706366  75.5362173
  40.5692734  66.0322367  75.7221857  41.2117037  67.0490403  74.8027998
  32.4399745  65.8402419  61.5789377  33.3858849  65.7108627  61.6477795
  32.0613990  65.1017081  62.0558806  40.7510902  63.7617409  75.5820457
  40.2349951  62.9775866  75.3950385  41.6350851  63.4336126  75.7466976
  38.4121629  57.5058425  71.5416269  38.2146450  57.1973513  72.4259601
  39.0221335  58.2320064  71.6714199  46.4192964  68.0322373  74.6768210
  47.1496352  67.7707661  75.2375914  45.8099909  67.2951095  74.7170278
  44.5008261  66.1730235  75.2742661  43.7741424  66.0386200  74.6659153
  44.0855548  66.4807064  76.0799379  32.3238437  69.8920165  83.0390034
  33.2441447  70.0698764  83.2330081  32.2888020  68.9476210  82.8869734
  30.6242662  63.7652395  61.5144263  29.7174117  63.4685508  61.5906976
  30.9018643  63.4682213  60.6478549  21.5420602  65.0858759  71.9643309
  21.2223387  64.2324067  71.6717683  20.9954030  65.3007337  72.7201276
  25.3200510  67.8021200  75.6812816  25.5386519  68.7338308  75.7000849
  25.7326284  67.4429174  76.4667619  32.2404728  58.3089285  67.6688504
  31.4305456  57.9636370  68.0443750  32.9289144  57.9996829  68.2576116
  34.1695276  57.3867332  69.2912801  34.7226314  57.8062785  69.9502824
  34.4065362  56.4603080  69.3335757  30.1928375  63.3754405  85.0715565
  30.0925102  64.3248762  85.0027656  29.9749917  63.0472644  84.1991635
  29.3941446  60.6239331  61.6556242  30.2560610  60.9494229  61.9152059
  29.5791791  59.8370826  61.1429308  21.4108862  68.7061670  73.9336431
  20.7172334  68.2915623  73.4206385  22.1581853  68.7482207  73.3369850
  37.5474083  59.4967857  68.7991465  36.9672752  60.1552661  68.4169517
  37.2810016  58.6745202  68.3878882  35.9977649  58.8972915  71.0012785
  36.4977428  59.0089449  70.1927104  36.6413257  58.5933968  71.6413594
  30.0559645  66.8051544  83.8880626  29.5726727  67.6051904  84.0944515
  30.1420584  66.8159489  82.9348070  23.3245605  68.6379924  71.8102446
  23.3016293  68.7367611  70.8584329  23.6346241  69.4845075  72.1319612
  25.9832983  70.6956079  75.9249060  26.9376236  70.6640021  75.8578992
  25.7845506  70.2346703  76.7399286  26.5732365  69.2657195  78.4919858
  27.3925254  69.7601274  78.5154695  26.8469172  68.3489163  78.4637425
  36.3298961  61.6567947  67.8547813  35.4424816  61.9417598  67.6368008
  36.7452950  61.4961711  67.0075090  39.6813497  61.6814468  71.5702152
  40.4573887  62.1710921  71.8426769  38.9561631  62.1072523  72.0274022
  42.1186056  62.3942088  72.6276093  42.7130546  62.1537824  71.9169401
  42.1912639  61.6749218  73.2549629  24.3383211  76.2375699  72.9419258
  24.2037679  75.4776099  72.3757256  23.9215274  76.9616598  72.4748047
  36.3039985  67.1722483  68.0698103  36.2475186  67.6291035  67.2305736
  36.8568327  66.4113168  67.8920946  40.1144791  62.9612215  68.8948223
  39.8581725  62.5608851  69.7256430  39.4897659  63.6756009  68.7698362
  44.4257128  65.7008288  71.4019514  43.8656686  65.7701478  72.1751076
  43.8200632  65.5249273  70.6819010  27.4952337  77.1345016  73.1537700
  27.3784721  78.0790448  73.0516391  26.6744784  76.8318577  73.5423500
  37.0374764  68.3627265  65.3650632  36.9823568  68.1971536  64.4239077
  36.4120819  69.0703297  65.5212822  21.8267279  63.5995329  79.1912055
  22.4726143  63.0894283  79.6799280  21.6184430  64.3364011  79.7655480
  34.3520671  70.6676176  84.6904195  35.2211831  70.8416829  84.3290830
  33.8727423  71.4870593  84.5679925  30.3470889  57.8635374  64.9435951
  30.3349559  58.8077213  65.1004222  31.2394311  57.6805519  64.6495412
  28.5206851  77.7873277  76.3693629  29.4234098  77.8196888  76.6860124
  28.2944221  76.8573728  76.3839965  30.2760453  76.5404264  73.0303708
  29.3256084  76.5406126  72.9168080  30.5792940  75.7936999  72.5139742
  34.1623009  54.4578150  69.1981888  33.3955405  53.9036637  69.3438570
  34.5733714  54.5300019  70.0596039  26.1664770  60.7462946  83.2887069
  27.0296231  60.3899751  83.4990393  25.5930181  60.4076841  83.9762473
  46.0113147  82.3764802  74.0949470  46.6491557  82.2571550  73.3912810
  45.8933990  83.3245646  74.1537422  42.8202853  82.3292230  74.0310995
  42.4821365  82.2133295  73.1431529  43.6892621  81.9283396  74.0112001
  38.6789669  84.1827707  70.0207886  38.1154534  84.0917644  69.2524173
  38.5642064  83.3627611  70.5010378  43.3022636  83.4827082  79.9897200
  43.2911277  83.0879880  79.1177704  43.4643276  82.7493155  80.5830972
  36.2254101  85.6778898  72.8592106  37.0175393  85.3369723  72.4438405
  36.4650751  85.7873874  73.7794259  44.2589228  87.8498675  65.3322350
  43.6077207  88.4352755  64.9456364  45.0533590  88.3804869  65.3917388
  38.1844855  84.9387812  65.7309485  38.9575731  84.3916799  65.5922361
  38.5370254  85.8032061  65.9423946  40.0229897  86.2664194  78.9376384
  39.7319763  87.1709825  78.8223050  40.6586882  86.3080722  79.6520454
  40.9486104  83.6441043  75.5277744  41.5449676  83.4197065  74.8134707
  41.0061076  82.9025788  76.1303192  45.5654415  80.1016256  71.1702678
  46.3517505  79.6835679  70.8193095  45.8293120  81.0062348  71.3384326
  45.7364493  85.5389107  65.8691335  45.1010326  85.6123733  66.5812239
  45.4061899  86.1282705  65.1910414  50.9662842  80.0391489  72.0735656
  51.6988014  79.4690706  72.3073486  50.2102198  79.6513090  72.5142162
  42.5838962  82.4618731  69.2698999  42.2197169  81.9349352  69.9811920
  43.4406078  82.0717200  69.0965484  48.4888263  73.7513064  76.5330265
  48.1571588  74.6208474  76.3091480  47.8933876  73.4349348  77.2124295
  44.9819782  85.9525610  75.9326178  44.6820505  86.8550648  75.8241985
  44.6370842  85.6857793  76.7847331  38.4332264  82.4039406  71.9662882
  37.5082760  82.2715620  72.1740574  38.6816677  83.1833626  72.4632825
  48.3816926  78.4708150  73.6123615  47.4733803  78.4023558  73.3182376
  48.3304522  78.9480095  74.4405441  35.7941075  82.0472680  72.8006671
  35.9233456  82.3007159  73.7146083  35.1138526  82.6400388  72.4811326
  39.9640562  92.7169930  68.8997146  39.8864592  93.6677755  68.9785626
  39.3602206  92.3715802  69.5572072  42.4557792  79.8897795  81.5558512
  41.6791126  80.4491715  81.5461377  43.0948355  80.3754578  82.0773383
  50.2478573  76.6724588  75.3901489  49.6052953  76.9657121  74.7441284
  49.7433501  76.5577508  76.1954686  47.9018736  80.4187761  66.0787348
  48.8136592  80.6515148  65.9035046  47.3928383  81.0024805  65.5162427
  40.7104164  82.6983249  81.1176479  41.4518849  83.2368293  80.8411303
  40.0041150  83.3249537  81.2748031  46.1859504  84.8412389  79.7148641
  46.5942860  84.3994800  78.9703273  45.4636765  84.2665017  79.9682834
  42.5390574  79.7784996  77.0882198  43.3851769  80.2024409  77.2316847
  42.4789212  79.1218620  77.7820761  46.5088319  85.4013580  73.4700930
  45.8797181  85.5659294  72.7676998  46.1213981  85.8155189  74.2411894
  50.3877550  86.3368018  70.8245294  49.7028589  86.7166919  70.2742327
  50.4721400  86.9463344  71.5577241  45.6890019  77.4389364  78.7463371
  45.4450951  78.1931425  78.2097647  45.9649950  77.8174712  79.5810619
  47.6428482  83.9827977  77.4240637  47.8545377  84.6259737  76.7475018
  47.5958230  83.1490293  76.9562567  45.2454711  76.5945797  74.3277209
  44.3839190  76.8927051  74.6193947  45.2717146  76.8116196  73.3958242
  42.0616280  85.1387988  70.7351015  42.5254626  85.4175691  69.9455637
  41.7973079  84.2371432  70.5524106  38.9540361  84.6859469  73.6730778
  39.5241719  85.1146738  73.0348263  39.5448473  84.4042054  74.3714964
  39.4465528  79.8522897  81.9191789  38.8164189  80.5339178  82.1527186
  39.3401616  79.7405978  80.9744928  34.7410500  79.5194693  72.8457714
  33.9509554  79.7752221  72.3697824  35.2321748  80.3343031  72.9509754
  48.7574310  86.8599932  75.5962994  49.5791754  86.4580119  75.3145676
  48.7536713  86.7568166  76.5479110  36.6925246  79.8839272  69.8041190
  35.8956409  79.9957966  70.3224686  36.4650838  80.2225924  68.9382081
  42.5230913  86.4083975  77.7523705  42.5875346  86.8704383  78.5881877
  41.8141837  85.7781340  77.8806015  33.0248203  79.7725183  75.2772704
  33.2756242  80.6572193  75.5430280  33.5607752  79.5929785  74.5047796
  56.8480303  83.2038681  71.9447966  56.0944011  82.6346079  71.7891970
  56.9827844  83.1701345  72.8918601  42.2378931  88.0752083  67.6202685
  42.1024606  88.9203619  68.0487533  42.7788744  88.2771360  66.8568619
  38.7246271  74.1543663  84.2817040  38.3313216  73.6009861  84.9564685
  39.5412411  74.4654241  84.6723558  35.6908328  85.5927521  68.1930610
  36.2032849  86.3870771  68.3436175  36.3431041  84.8953811  68.1264212
  37.5003213  88.7093277  70.2753363  37.6769842  89.6311242  70.0874347
  38.2960047  88.3951696  70.7047743  41.6414232  75.5701542  81.8737297
  42.3823945  76.1708695  81.7941759  41.8732155  74.8279180  81.3155340
  36.7855570  80.7557909  80.1515527  36.6709085  79.8543166  80.4522626
  35.9300087  81.0021606  79.8000343  43.8647407  88.6975649  81.7503027
  43.4211262  87.9112028  81.4323932  44.5264621  88.8854800  81.0846918
  38.6234529  90.2271451  76.2763706  39.1741954  90.0988514  75.5040700
  37.7846005  90.5266340  75.9258599  45.9628646  88.9778449  79.7784429
  45.9447121  89.7987330  79.2864698  46.8848566  88.8532524  80.0034570
  42.4201700  86.4922579  80.6207937  42.9530036  85.7310867  80.3907245
  41.8915781  86.1996231  81.3632091  45.5871395  71.5982645  76.1501579
  45.2435664  72.4884286  76.0740689  45.9550357  71.4084302  75.2871164
  33.6557245  83.9216175  68.9690181  34.4932467  84.3313184  68.7523889
  33.8335513  82.9815617  68.9390375  43.1368788  76.4340957  69.7159252
  42.2810385  76.0447807  69.5364891  43.5495740  76.5132917  68.8559038
  44.6667935  73.9687300  74.1150812  44.1632731  73.9317435  73.3018617
  44.9598542  74.8780043  74.1747469  40.9110821  74.0526030  73.1216994
  41.7763818  73.8568838  72.7622883  40.9788330  73.8236381  74.0486350
  50.5255951  84.3423610  66.5927187  49.7485394  84.0034770  66.1482349
  51.2047432  84.3476234  65.9182152  43.7854412  85.6208571  68.1326749
  43.2575774  84.8861331  67.8199986  43.2841915  86.3983248  67.8866717
  48.7647258  83.8157592  73.2493795  48.1070933  84.5056853  73.3373924
  49.5687658  84.2054024  73.5927782  38.5173140  76.2828238  70.4933360
  39.0916892  76.0603419  69.7606553  39.1044122  76.3516932  71.2461962
  47.5752717  82.1701964  71.2997737  48.0884599  82.8031956  71.8019447
  48.2253941  81.5703160  70.9341097  44.8375091  92.1486289  64.0558408
  44.1636790  92.4517985  64.6643366  45.2240913  92.9515369  63.7063865
  44.0533548  79.6451420  73.5456078  43.1356109  79.8666367  73.3877766
  44.4693692  79.7197730  72.6867785  44.8368596  81.0442836  68.6758758
  45.5840415  81.5564233  68.3665880  45.1060185  80.7226888  69.5363151
  43.1095246  83.5401376  65.6585712  42.2006465  83.2560409  65.7558182
  43.1390330  83.9600455  64.7989019  48.3414513  87.1507966  69.4276880
  47.8876841  86.3098876  69.4842070  47.7108480  87.7869364  69.7651660
  47.2847433  78.0799952  70.6577547  46.5470190  77.5677338  70.9887790
  47.5374207  77.6400333  69.8460824  46.7847453  88.9884463  70.3626698
  47.0770427  89.5489520  69.6439063  47.2946073  89.2813024  71.1179857
  33.6783416  81.2606890  69.6400914  33.4807816  80.6676251  68.9151981
  33.1230080  80.9559101  70.3576853  41.6580140  81.1529997  71.7595507
  41.7128750  80.2003833  71.6837984  40.8471342  81.3089436  72.2436806
  42.8071334  85.0810120  62.9973791  42.3690764  84.3645979  62.5379428
  43.5481775  85.3086235  62.4358882  39.5972500  79.7707057  69.5185886
  38.7840366  80.0701227  69.9251078  40.0931494  79.3762745  70.2360369
  41.7481078  89.7664814  71.4520151  41.7057257  89.9925660  70.5228683
  42.6643777  89.5328188  71.6005952  45.1946712  80.2348881  78.3500780
  45.5496099  80.4620354  79.2095246  45.8418843  80.5667258  77.7278036
  50.9244449  83.3567317  69.0550109  50.7862347  83.5468913  68.1271298
  50.5680667  84.1186700  69.5118160  39.0886575  77.3425412  75.1347121
  39.7285954  77.2014171  74.4370085  38.2564105  77.0559926  74.7585723
  50.9513828  85.4243844  74.0661381  51.3850335  85.3319133  74.9144435
  51.6645409  85.4001345  73.4281397  39.8646879  86.6427843  71.2482114
  40.6587477  86.1478163  71.0464689  39.1538571  86.1145706  70.8849819
  44.6841723  89.0245938  75.5994481  44.7378745  89.5936874  76.3672197
  43.8156504  89.1947823  75.2348518  36.0915191  77.3125737  69.9120108
  36.3522008  78.2271070  69.8029269  36.9132363  76.8450180  70.0616721
  37.5640116  78.7263494  77.0818933  38.2363170  78.5180857  76.4331582
  36.7369903  78.5285580  76.6424165  51.8129378  85.4667545  76.5994266
  52.0065268  86.3713355  76.8453541  51.7129996  85.0074964  77.4332851
  43.4665688  75.3525435  79.0984593  42.8193604  76.0515385  79.0049070
  44.2366704  75.7861579  79.4660842  46.8744486  85.6174287  82.1735147
  46.7229993  85.3884839  81.2565230  46.8649166  86.5744889  82.1866492
  43.6429823  83.1906200  77.1581413  44.5721883  83.3417360  76.9850381
  43.2220853  83.2790221  76.3030060  42.4418155  87.2156865  74.9279951
  42.3029240  86.8475649  75.8005889  41.6532751  87.7304504  74.7563909
  43.0366307  92.3165961  66.2705487  43.2118062  91.8454004  67.0851110
  42.3499095  92.9431727  66.4986748  43.9923370  86.5938467  72.3168789
  43.6573202  86.5539237  73.2126438  43.4927315  85.9283183  71.8439199
  37.9667614  82.0006097  77.8421370  37.8287412  81.2686336  78.4432909
  38.8772537  81.9114997  77.5605558  46.9282561  83.9394502  62.5905848
  46.3111732  83.2141330  62.4938901  46.4599050  84.7003862  62.2472923
  40.5949914  81.7126057  77.3305049  41.3049533  81.0719249  77.2891668
  40.5519223  81.9638952  78.2531230  48.5836693  88.6493410  80.2511629
  48.5249239  87.9652630  79.5842212  48.9856211  89.3912400  79.7992255
  39.3078848  78.6991275  79.1500689  38.7716205  78.2482013  79.8022285
  38.7195557  78.8337183  78.4071153  37.6027392  95.4655324  73.0445348
  37.8423990  96.0973848  73.7224366  36.7596588  95.1143364  73.3310707
  48.5854100  86.6132994  78.4825608  47.6980879  86.2758916  78.6052007
  49.1552651  85.8816025  78.7194374  30.2383247  82.9457086  71.8068660
  30.9254287  82.6318816  71.2189675  30.0831376  83.8498450  71.5335911
  35.0417970  77.8347282  76.2353683  34.9576158  77.2272952  75.5004093
  34.2200676  78.3256301  76.2363180  42.1155254  91.2734446  75.4486852
  42.0425425  92.0789418  75.9606156  41.6732647  91.4726412  74.6234873
  41.9045033  90.5106216  68.9589673  41.1212555  91.0527897  69.0527898
  42.6037779  91.0280196  69.3583914  45.2141683  76.3200846  71.6023878
  45.7110383  75.5670808  71.2824949  44.4428665  76.3565162  71.0367088
  53.0671441  82.0241211  73.2442170  53.0561317  82.9065927  72.8736103
  52.1988820  81.6712762  73.0496707  44.5753937  91.1721280  77.6045010
  45.2881909  91.8068745  77.5320912  44.0843966  91.2685146  76.7885012
  46.2971464  85.0772533  69.1762302  45.3627743  85.1973995  69.0067006
  46.4748133  84.1745000  68.9122312  41.7976652  78.4618229  71.3295563
  41.4274440  77.9089269  72.0176469  42.2935745  77.8576362  70.7770563
  49.6844016  80.9189852  69.7112336  50.1504468  81.7517844  69.6372639
  50.1351516  80.4534834  70.4157594  39.6265851  88.9215724  78.4250581
  40.3275310  89.5552207  78.5779975  39.1560966  89.2630455  77.6646220
  47.7520247  87.2633674  66.7098488  48.0280091  87.1490268  67.6192362
  46.8824745  86.8651158  66.6710661  47.6560678  73.2870439  73.7503237
  46.7423758  73.5174666  73.9185444  48.0853780  73.3708883  74.6017270
  47.4267137  81.4760331  76.2503131  46.7738587  81.7236239  75.5955584
  47.8047517  80.6624469  75.9165609  44.3874311  91.5120024  70.3531302
  44.5696705  90.6941680  70.8159054  45.2107297  91.7287717  69.9156192
  44.7216476  90.4388210  67.6146350  45.2504243  89.9280664  67.0016512
  44.9844696  90.1230740  68.4791883  43.4754710  82.2180142  82.7369168
  42.7995347  82.1174272  83.4071544  44.2982344  82.0619356  83.2005166
  35.2233569  88.4552079  75.3581684  35.8087006  87.7095767  75.4909588
  35.0258407  88.7656036  76.2418348  38.0772224  91.4903326  70.3744126
  37.4082599  91.9749454  69.8908166  37.9385094  91.7372547  71.2887505
  29.8151224  81.0257679  74.0786127  29.8535323  80.4921270  74.8723245
  29.3091516  80.4992885  73.4597104  42.2177493  93.5247070  76.9726784
  42.7695801  93.6878691  77.7375870  42.5583686  94.1151508  76.3006809
  37.1941986  75.8722220  77.5748669  37.2583312  76.7337050  77.1626067
  37.1309106  75.2596221  76.8421028  36.6694258  77.9445352  81.2221703
  37.2966297  77.5622429  81.8359228  35.8122177  77.7259554  81.5877396
  47.0688367  88.3508327  82.8275439  47.6128271  88.9638286  82.3330394
  46.4875212  88.9087906  83.3442452  33.4459801  79.7521781  67.1540058
  33.7413242  78.8432460  67.1007112  32.5447837  79.7309521  66.8321061
  45.3545880  91.4729045  73.9590467  45.2297019  90.6718785  73.4501412
  46.0124971  91.9675239  73.4704437  36.9754048  77.8277778  73.1367607
  36.2540634  78.4413745  72.9975080  37.7647304  78.3635543  73.0584253
  47.4180788  89.2738065  75.5870017  46.4711124  89.1543417  75.5148343
  47.7663561  88.3860563  75.6696278  39.7780362  75.1632204  79.4108259
  40.3014764  75.4094501  80.1734568  39.5592695  75.9952239  78.9911396
  35.1747643  77.4335879  67.2779383  34.8460349  76.5533258  67.0954489
  35.5287013  77.3783548  68.1655773  44.4227222  89.0690782  71.7874369
  44.2752184  88.1407489  71.9681939  45.2480715  89.0910872  71.3031444
  48.0261343  89.8919340  72.8739242  48.9507891  89.6862202  72.7363693
  47.8576647  89.6435741  73.7828583  40.9832907  76.1045899  77.0957929
  40.6429727  75.3053712  77.4978609  40.2771913  76.4047610  76.5234762
  41.6349379  73.1895212  75.5485252  42.4575448  72.7155690  75.4264142
  41.8787442  73.9685696  76.0483938  39.1587957  79.8814332  73.3577231
  39.0132538  80.1954636  74.2501512  38.6813161  80.4999233  72.8048129
  41.0184340  76.8716880  73.4058120  41.0045909  75.9757974  73.0690418
  41.7356768  76.8787544  74.0396406  42.8710471  77.3054221  75.4511248
  42.6128249  78.2271291  75.4495578  42.3395511  76.9084655  76.1411712
  47.8156660  90.4105008  68.2301333  47.9893537  89.8451430  67.4775186
  48.3085551  91.2105903  68.0480823  33.6333619  82.4219677  76.2964892
  33.0887088  83.1979485  76.4285166  34.5112969  82.7690481  76.1384013
  40.4221236  75.7531261  68.6745690  40.5437147  74.8247907  68.8736578
  40.1323279  75.7669947  67.7624006  43.2912427  73.4386171  71.8112410
  43.3134123  73.5025504  70.8564390  43.7080486  72.5990680  72.0052916
  53.6696051  83.1741431  69.8491633  54.1127197  82.4248756  69.4510756
  52.7922561  83.1651567  69.4665365  48.8031832  89.7271772  65.3298231
  49.4982737  90.3478465  65.5485546  49.1454982  88.8767123  65.6050609
  34.4199641  81.5489573  79.1895049  33.6781377  81.6972208  79.7759679
  34.0992386  81.8097839  78.3261798  50.7023255  87.1771478  66.8585562
  51.2274579  87.5158750  66.1334882  50.6145608  86.2418493  66.6748697
  42.3643304  91.0905551  78.9875439  42.6730430  90.8454698  79.8598138
  43.1618786  91.2952190  78.4994309  42.3863916  93.2443461  71.2180815
  41.9468906  92.7519840  71.9113672  43.1372033  92.7016429  70.9772891
  34.8656255  89.4355002  71.2205443  35.6914275  89.1358774  70.8404087
  34.5150307  88.6662624  71.6695232  39.8337788  88.7881470  73.2903117
  39.2117797  88.1252175  72.9905345  40.5042655  88.8142602  72.6076765
  33.0664860  87.3541328  72.1794377  32.2296768  86.9263503  71.9978378
  33.0388505  87.5473772  73.1165168  39.9062316  77.2663258  82.8835623
  39.9550471  78.1425381  82.5013393  40.4484830  76.7240651  82.3107266
  50.3917161  87.8104381  82.1636760  49.6012705  87.7928520  81.6241260
  50.1550516  88.3492675  82.9185797  50.5115036  84.6596848  79.4769489
  50.5613041  84.4946855  80.4185011  50.4028960  83.7924107  79.0867369
  39.3951295  87.3385393  66.7661578  39.5439415  88.0220858  66.1128250
  40.2017739  87.3190483  67.2811033  47.8018799  80.6427776  80.7928795
  48.7028662  80.5034241  80.5012793  47.8766773  80.8082231  81.7326973
  42.1361604  78.0194630  79.6381982  41.2664914  78.3128197  79.3664570
  42.3721084  78.6035075  80.3589245  52.0133233  87.0793789  79.7211510
  51.7218042  87.4423770  80.5574971  51.4005365  86.3660798  79.5424842
  53.2128916  84.6446669  72.2414080  54.0475807  85.0836473  72.4051641
  53.3488044  84.1685322  71.4222326  50.2620421  82.2026404  78.1891568
  50.7374543  82.3954050  77.3810420  49.3385987  82.2585590  77.9434952
  37.1503928  83.3650571  67.7722646  36.9049970  82.4612901  67.9702857
  37.3199843  83.3667721  66.8302124  44.8400638  74.2374247  77.1547402
  45.3582582  74.9735274  76.8293891  44.4855771  74.5438241  77.9894161
  45.0913232  70.6574530  72.6748299  45.3714986  69.9897719  73.3008725
  45.8763839  70.8503626  72.1622962  42.8946701  89.8333524  64.2373325
  42.3220668  90.4523711  63.7843797  43.4679494  90.3832886  64.7713247
  48.9622090  79.0792164  76.4219874  49.9139513  79.1790262  76.4432098
  48.7925541  78.2870432  76.9317958  46.9836470  76.1647747  76.6079275
  46.3886402  76.4452760  75.9125763  46.6986167  76.6541648  77.3796016
  46.1143960  90.1170674  65.3681907  47.0474634  90.0516236  65.5714783
  46.0267173  90.9526941  64.9096440  48.7431977  89.4336544  62.3285855
  48.6645609  89.0996408  63.2221613  49.5641644  89.9258312  62.3277327
  51.4410168  82.2998284  75.5362173  51.4086488  81.3614284  75.7221857
  52.0510792  82.3782320  74.8027998  51.5904657  79.0909327  75.5820457
  51.0743705  78.3067784  75.3950385  52.4744605  78.7628044  75.7466976
  57.2586718  83.3614290  74.6768210  57.9890107  83.0999579  75.2375914
  56.6493664  82.6243012  74.7170278  55.3402015  81.5022153  75.2742661
  54.6135179  81.3678118  74.6659153  54.9249302  81.8098982  76.0799379
  43.1632192  85.2212083  83.0390034  44.0835201  85.3990682  83.2330081
  43.1281775  84.2768128  82.8869734  32.3814357  80.4150676  71.9643309
  32.0617141  79.5615985  71.6717683  31.8347785  80.6299255  72.7201276
  36.1594264  83.1313117  75.6812816  36.3780274  84.0630225  75.7000849
  36.5720038  82.7721092  76.4667619  41.0322130  78.7046323  85.0715565
  40.9318856  79.6540680  85.0027656  40.8143672  78.3764562  84.1991635
  32.2502617  84.0353588  73.9336431  31.5566088  83.6207541  73.4206385
  32.9975608  84.0774124  73.3369850  46.8371404  74.2264832  71.0012785
  47.3371182  74.3381367  70.1927104  47.4807012  73.9225885  71.6413594
  40.8953400  82.1343462  83.8880626  40.4120481  82.9343822  84.0944515
  40.9814339  82.1451407  82.9348070  34.1639359  83.9671842  71.8102446
  34.1410047  84.0659529  70.8584329  34.4739996  84.8136992  72.1319612
  36.8226737  86.0247997  75.9249060  37.7769991  85.9931939  75.8578992
  36.6239261  85.5638620  76.7399286  37.4126119  84.5949113  78.4919858
  38.2319008  85.0893191  78.5154695  37.6862927  83.6781081  78.4637425
  47.1692715  76.9859865  67.8547813  46.2818570  77.2709516  67.6368008
  47.5846704  76.8253628  67.0075090  50.5207252  77.0106386  71.5702152
  51.2967642  77.5002838  71.8426769  49.7955386  77.4364440  72.0274022
  52.9579810  77.7234005  72.6276093  53.5524301  77.4829741  71.9169401
  53.0306394  77.0041136  73.2549629  35.1776966  91.5667616  72.9419258
  35.0431434  90.8068017  72.3757256  34.7609028  92.2908516  72.4748047
  46.3135929  86.7504540  61.9495833  47.0171779  86.9554542  62.5653489
  45.5898578  87.3181302  62.2144917  47.1433739  82.5014401  68.0698103
  47.0868941  82.9582952  67.2305736  47.6962082  81.7405086  67.8920946
  50.9538545  78.2904133  68.8948223  50.6975479  77.8900769  69.7256430
  50.3291413  79.0047927  68.7698362  55.2650883  81.0300206  71.4019514
  54.7050441  81.0993395  72.1751076  54.6594386  80.8541191  70.6819010
  38.3346092  92.4636933  73.1537700  38.2178476  93.4082366  73.0516391
  37.5138538  92.1610495  73.5423500  48.2222626  87.1887069  63.9994293
  49.0568230  86.7568267  63.8171768  48.0606969  87.0169083  64.9271188
  47.8768518  83.6919182  65.3650632  47.8217322  83.5263454  64.4239077
  47.2514574  84.3995215  65.5212822  32.6661033  78.9287247  79.1912055
  33.3119897  78.4186201  79.6799280  32.4578185  79.6655928  79.7655480
  45.1914426  85.9968094  84.6904195  46.0605585  86.1708746  84.3290830
  44.7121177  86.8162511  84.5679925  39.3600606  93.1165195  76.3693629
  40.2627853  93.1488805  76.6860124  39.1337976  92.1865646  76.3839965
  41.1154208  91.8696182  73.0303708  40.1649839  91.8698043  72.9168080
  41.4186694  91.1228916  72.5139742  37.0058524  76.0754864  83.2887069
  37.8689986  75.7191669  83.4990393  36.4323935  75.7368759  83.9762473
  56.8506901  97.7056720  74.0949470  57.4885311  97.5863467  73.3912810
  56.7327744  98.6537564  74.1537422  53.6596608  97.6584148  74.0310995
  53.3215119  97.5425213  73.1431529  54.5286376  97.2575313  74.0112001
  49.5183423  99.5119625  70.0207886  48.9548288  99.4209561  69.2524173
  49.4035818  98.6919529  70.5010378  54.1416391  98.8119000  79.9897200
  54.1305031  98.4171798  79.1177704  54.3037030  98.0785072  80.5830972
  47.0647855 101.0070816  72.8592106  47.8569147 100.6661641  72.4438405
  47.3044505 101.1165791  73.7794259  55.0982982 103.1790592  65.3322350
  54.4470962 103.7644673  64.9456364  55.8927345 103.7096787  65.3917388
  49.0238609 100.2679729  65.7309485  49.7969485  99.7208716  65.5922361
  49.3764008 101.1323979  65.9423946  50.8623652 101.5956112  78.9376384
  50.5713518 102.5001743  78.8223050  51.4980636 101.6372639  79.6520454
  51.7879859  98.9732960  75.5277744  52.3843431  98.7488983  74.8134707
  51.8454830  98.2317706  76.1303192  51.3604887  96.4272396  63.3627935
  51.6130408  95.9053917  62.6011398  50.4229446  96.2638541  63.4654618
  56.4048170  95.4308174  71.1702678  57.1911259  95.0127597  70.8193095
  56.6686874  96.3354266  71.3384326  56.5758247 100.8681024  65.8691335
  55.9404080 100.9415651  66.5812239  56.2455654 101.4574623  65.1910414
  61.8056597  95.3683407  72.0735656  62.5381769  94.7982624  72.3073486
  61.0495953  94.9805008  72.5142162  51.0801176  98.3300501  65.5652310
  50.9637434  97.6545405  66.2333394  51.1903436  97.8432875  64.7484463
  53.4232717  97.7910649  69.2698999  53.0590924  97.2641270  69.9811920
  54.2799833  97.4009118  69.0965484  59.3282017  89.0804981  76.5330265
  58.9965342  89.9500392  76.3091480  58.7327631  88.7641265  77.2124295
  53.0638204  92.8200548  64.2660347  53.2312606  93.6880785  64.6330818
  52.8735373  92.9827830  63.3421637  55.8213537 101.2817527  75.9326178
  55.5214260 102.1842566  75.8241985  55.4764596 101.0149710  76.7847331
  49.2726018  97.7331324  71.9662882  48.3476515  97.6007538  72.1740574
  49.5210432  98.5125543  72.4632825  59.2210681  93.8000067  73.6123615
  58.3127558  93.7315476  73.3182376  59.1698276  94.2772012  74.4405441
  53.0427425  95.2758206  65.2507014  52.9227050  95.7215257  66.0892495
  52.3480013  95.6243523  64.6920552  46.6334829  97.3764598  72.8006671
  46.7627211  97.6299077  73.7146083  45.9532281  97.9692306  72.4811326
  50.8034317 108.0461848  68.8997146  50.7258346 108.9969673  68.9785626
  50.1995960 107.7007720  69.5572072  53.2951546  95.2189713  81.5558512
  52.5184880  95.7783633  81.5461377  53.9342109  95.7046496  82.0773383
  61.0872327  92.0016506  75.3901489  60.4446707  92.2949039  74.7441284
  60.5827256  91.8869426  76.1954686  58.7412491  95.7479679  66.0787348
  59.6530347  95.9807066  65.9035046  58.2322138  96.3316723  65.5162427
  51.5497919  98.0275166  81.1176479  52.2912603  98.5660210  80.8411303
  50.8434904  98.6541455  81.2748031  57.0253258 100.1704307  79.7148641
  57.4336614  99.7286717  78.9703273  56.3030520  99.5956934  79.9682834
  53.3784328  95.1076914  77.0882198  54.2245524  95.5316327  77.2316847
  53.3182966  94.4510538  77.7820761  57.3482073 100.7305497  73.4700930
  56.7190935 100.8951212  72.7676998  56.9607735 101.1447107  74.2411894
  61.2271305 101.6659935  70.8245294  60.5422343 102.0458837  70.2742327
  61.3115154 102.2755262  71.5577241  56.5283774  92.7681282  78.7463371
  56.2844706  93.5223342  78.2097647  56.8043704  93.1466630  79.5810619
  58.4822237  99.3119894  77.4240637  58.6939132  99.9551654  76.7475018
  58.4351985  98.4782211  76.9562567  56.0848465  91.9237715  74.3277209
  55.2232945  92.2218968  74.6193947  56.1110900  92.1408114  73.3958242
  52.9010035 100.4679905  70.7351015  53.3648380 100.7467608  69.9455637
  52.6366833  99.5663350  70.5524106  49.7934116 100.0151387  73.6730778
  50.3635473 100.4438655  73.0348263  50.3842228  99.7333972  74.3714964
  51.8378921  96.5903058  67.5440580  52.5402964  97.0424102  68.0114506
  51.5059549  95.9486877  68.1720473  50.2859282  95.1814814  81.9191789
  49.6557943  95.8631095  82.1527186  50.1795370  95.0697896  80.9744928
  45.5804255  94.8486611  72.8457714  44.7903309  95.1044139  72.3697824
  46.0715502  95.6634948  72.9509754  59.5968064 102.1891850  75.5962994
  60.4185508 101.7872037  75.3145676  59.5930467 102.0860084  76.5479110
  47.5319000  95.2131190  69.8041190  46.7350164  95.3249884  70.3224686
  47.3044592  95.5517842  68.9382081  53.3624668 101.7375893  77.7523705
  53.4269100 102.1996300  78.5881877  52.6535592 101.1073258  77.8806015
  43.8641958  95.1017101  75.2772704  44.1149996  95.9864111  75.5430280
  44.4001506  94.9221703  74.5047796  67.6874058  98.5330598  71.9447966
  66.9337766  97.9637996  71.7891970  67.8221599  98.4993263  72.8918601
  53.0772686 103.4044000  67.6202685  52.9418360 104.2495536  68.0487533
  53.6182498 103.6063278  66.8568619  49.5640025  89.4835580  84.2817040
  49.1706971  88.9301779  84.9564685  50.3806166  89.7946159  84.6723558
  46.5302083 100.9219439  68.1930610  47.0426604 101.7162689  68.3436175
  47.1824796 100.2245729  68.1264212  48.3396968 104.0385195  70.2753363
  48.5163596 104.9603160  70.0874347  49.1353801 103.7243614  70.7047743
  52.4807986  90.8993459  81.8737297  53.2217700  91.5000613  81.7941759
  52.7125909  90.1571097  81.3155340  47.6249324  96.0849827  80.1515527
  47.5102839  95.1835084  80.4522626  46.7693842  96.3313523  79.8000343
  54.7041162 104.0267567  81.7503027  54.2605016 103.2403946  81.4323932
  55.3658376 104.2146718  81.0846918  49.4628283 105.5563369  76.2763706
  50.0135708 105.4280432  75.5040700  48.6239759 105.8558258  75.9258599
  56.8022400 104.3070367  79.7784429  56.7840875 105.1279248  79.2864698
  57.7242320 104.1824442  80.0034570  53.2595454 101.8214496  80.6207937
  53.7923791 101.0602785  80.3907245  52.7309535 101.5288148  81.3632091
  56.4265149  86.9274562  76.1501579  56.0829419  87.8176204  76.0740689
  56.7944112  86.7376220  75.2871164  44.4951000  99.2508093  68.9690181
  45.3326222  99.6605101  68.7523889  44.6729267  98.3107535  68.9390375
  56.3915432  96.9183173  64.6574014  55.8762055  97.6887778  64.8962401
  56.1192740  96.2448310  65.2807075  53.9762543  91.7632874  69.7159252
  53.1204139  91.3739725  69.5364891  54.3889495  91.8424835  68.8559038
  55.5061690  89.2979218  74.1150812  55.0026485  89.2609353  73.3018617
  55.7992296  90.2071960  74.1747469  51.7504575  89.3817947  73.1216994
  52.6157572  89.1860756  72.7622883  51.8182084  89.1528299  74.0486350
  61.3649706  99.6715528  66.5927187  60.5879149  99.3326688  66.1482349
  62.0441187  99.6768151  65.9182152  56.1801735  94.7910266  66.4833795
  55.8751871  95.1056415  67.3343938  57.1332177  94.8691685  66.5261128
  54.6248167 100.9500489  68.1326749  54.0969528 100.2153248  67.8199986
  54.1235670 101.7275165  67.8866717  59.6041013  99.1449509  73.2493795
  58.9464687  99.8348771  73.3373924  60.4081412  99.5345941  73.5927782
  49.3566894  91.6120155  70.4933360  49.9310646  91.3895337  69.7606553
  49.9437877  91.6808850  71.2461962  58.4146472  97.4993882  71.2997737
  58.9278353  98.1323874  71.8019447  59.0647696  96.8995078  70.9341097
  49.6836482  93.6424616  64.5129246  48.8473794  93.9799303  64.8338520
  49.5441251  93.5073596  63.5756383  51.6589562  88.4861404  69.2208430
  51.0053975  88.1710421  68.5965045  51.6170036  87.8637145  69.9468253
  52.7700767  98.7680699  61.1361722  51.8627829  98.5369953  61.3352871
  53.2671799  97.9718318  61.3235704  55.6768846 107.4778206  64.0558408
  55.0030545 107.7809903  64.6643366  56.0634668 108.2807287  63.7063865
  54.8927303  94.9743338  73.5456078  53.9749864  95.1958285  73.3877766
  55.3087446  95.0489648  72.6867785  55.6762350  96.3734753  68.6758758
  56.4234169  96.8856151  68.3665880  55.9453940  96.0518806  69.5363151
  53.9489000  98.8693294  65.6585712  53.0400220  98.5852327  65.7558182
  53.9784084  99.2892373  64.7989019  59.1808268 102.4799884  69.4276880
  58.7270595 101.6390793  69.4842070  58.5502235 103.1161282  69.7651660
  58.1241187  93.4091870  70.6577547  57.3863944  92.8969256  70.9887790
  58.3767961  92.9692251  69.8460824  57.6241207 104.3176380  70.3626698
  57.9164182 104.8781437  69.6439063  58.1339828 104.6104941  71.1179857
  58.2252815  86.1868122  71.2519316  58.5311692  85.3265485  70.9645231
  58.9505420  86.7785742  71.0518310  44.5177171  96.5898808  69.6400914
  44.3201571  95.9968169  68.9151981  43.9623835  96.2851018  70.3576853
  52.4973895  96.4821915  71.7595507  52.5522504  95.5295751  71.6837984
  51.6865097  96.6381354  72.2436806  53.6465088 100.4102038  62.9973791
  53.2084518  99.6937897  62.5379428  54.3875529 100.6378153  62.4358882
  50.4366254  95.0998974  69.5185886  49.6234120  95.3993145  69.9251078
  50.9325249  94.7054663  70.2360369  52.5874832 105.0956731  71.4520151
  52.5451011 105.3217578  70.5228683  53.5037531 104.8620106  71.6005952
  56.0340466  95.5640799  78.3500780  56.3889854  95.7912272  79.2095246
  56.6812597  95.8959176  77.7278036  61.7638203  98.6859235  69.0550109
  61.6256102  98.8760831  68.1271298  61.4074422  99.4478618  69.5118160
  49.9280329  92.6717330  75.1347121  50.5679709  92.5306089  74.4370085
  49.0957860  92.3851843  74.7585723  61.7907583 100.7535762  74.0661381
  62.2244089 100.6611051  74.9144435  62.5039163 100.7293262  73.4281397
  50.7040633 101.9719760  71.2482114  51.4981232 101.4770080  71.0464689
  49.9932326 101.4437623  70.8849819  55.5235478 104.3537856  75.5994481
  55.5772500 104.9228792  76.3672197  54.6550259 104.5239741  75.2348518
  47.0123397  96.1162842  67.3241866  46.0820985  96.0547298  67.5411829
  47.1080869  95.5938795  66.5278508  46.9308946  92.6417655  69.9120108
  47.1915763  93.5562988  69.8029269  47.7526118  92.1742097  70.0616721
  48.4033871  94.0555412  77.0818933  49.0756924  93.8472774  76.4331582
  47.5763657  93.8577498  76.6424165  62.6523132 100.7959462  76.5994266
  62.8459022 101.7005273  76.8453541  62.5523750 100.3366881  77.4332851
  54.3059443  90.6817353  79.0984593  53.6587358  91.3807303  79.0049070
  55.0760458  91.1153497  79.4660842  57.7138241 100.9466205  82.1735147
  57.5623747 100.7176757  81.2565230  57.7042920 101.9036807  82.1866492
  54.4823577  98.5198118  77.1581413  55.4115637  98.6709277  76.9850381
  54.0614607  98.6082139  76.3030060  53.2811909 102.5448782  74.9279951
  53.1422995 102.1767567  75.8005889  52.4926505 103.0596422  74.7563909
  53.8760061 107.6457879  66.2705487  54.0511817 107.1745922  67.0851110
  53.1892849 108.2723645  66.4986748  54.8317124 101.9230385  72.3168789
  54.4966957 101.8831155  73.2126438  54.3321070 101.2575101  71.8439199
  48.8061368  97.3298015  77.8421370  48.6681166  96.5978254  78.4432909
  49.7166292  97.2406915  77.5605558  57.7676316  99.2686419  62.5905848
  57.1505487  98.5433248  62.4938901  57.2992804 100.0295780  62.2472923
  51.4343669  97.0417974  77.3305049  52.1443287  96.4011167  77.2891668
  51.3912977  97.2930869  78.2531230  59.4230448 103.9785328  80.2511629
  59.3642994 103.2944548  79.5842212  59.8249966 104.7204318  79.7992255
  50.1472603  94.0283192  79.1500689  49.6109960  93.5773931  79.8022285
  49.5589311  94.1629101  78.4071153  48.4421146 110.7947242  73.0445348
  48.6817745 111.4265766  73.7224366  47.5990343 110.4435282  73.3310707
  49.5574862  93.4871844  61.7127153  48.6804328  93.3660644  61.3489399
  50.0332615  92.6957922  61.4606041  59.4247855 101.9424912  78.4825608
  58.5374634 101.6050833  78.6052007  59.9946406 101.2107943  78.7194374
  41.0777002  98.2749003  71.8068660  41.7648042  97.9610733  71.2189675
  40.9225131  99.1790368  71.5335911  45.8811724  93.1639200  76.2353683
  45.7969913  92.5564869  75.5004093  45.0594431  93.6548218  76.2363180
  52.9549008 106.6026364  75.4486852  52.8819180 107.4081335  75.9606156
  52.5126401 106.8018330  74.6234873  52.7438788 105.8398134  68.9589673
  51.9606310 106.3819814  69.0527898  53.4431533 106.3572114  69.3583914
  56.0535438  91.6492763  71.6023878  56.5504138  90.8962726  71.2824949
  55.2822419  91.6857080  71.0367088  63.9065195  97.3533129  73.2442170
  63.8955072  98.2357844  72.8736103  63.0382575  97.0004680  73.0496707
  55.4147692 106.5013198  77.6045010  56.1275664 107.1360663  77.5320912
  54.9237720 106.5977064  76.7885012  57.1365219 100.4064451  69.1762302
  56.2021497 100.5265913  69.0067006  57.3141887  99.5036917  68.9122312
  52.6370407  93.7910146  71.3295563  52.2668194  93.2381187  72.0176469
  53.1329499  93.1868280  70.7770563  60.5237770  96.2481770  69.7112336
  60.9898222  97.0809762  69.6372639  60.9745271  95.7826752  70.4157594
  50.4659605 104.2507641  78.4250581  51.1669065 104.8844124  78.5779975
  49.9954720 104.5922373  77.6646220  58.5914001 102.5925591  66.7098488
  58.8673845 102.4782186  67.6192362  57.7218500 102.1943076  66.6710661
  58.4954433  88.6162357  73.7503237  57.5817513  88.8466584  73.9185444
  58.9247534  88.7000801  74.6017270  58.2660891  96.8052249  76.2503131
  57.6132341  97.0528156  75.5955584  58.6441271  95.9916387  75.9165609
  55.2268065 106.8411942  70.3531302  55.4090460 106.0233598  70.8159054
  56.0501051 107.0579634  69.9156192  55.5610231 105.7680127  67.6146350
  56.0897997 105.2572582  67.0016512  55.8238450 105.4522657  68.4791883
  54.3148464  97.5472060  82.7369168  53.6389101  97.4466189  83.4071544
  55.1376098  97.3911274  83.2005166  46.0627323 103.7843997  75.3581684
  46.6480760 103.0387684  75.4909588  45.8652162 104.0947953  76.2418348
  48.9165979 106.8195244  70.3744126  48.2476354 107.3041372  69.8908166
  48.7778848 107.0664464  71.2887505  40.6544978  96.3549597  74.0786127
  40.6929078  95.8213187  74.8723245  40.1485271  95.8284802  73.4597104
  53.0571247 108.8538987  76.9726784  53.6089555 109.0170609  77.7375870
  53.3977441 109.4443425  76.3006809  48.0335740  91.2014137  77.5748669
  48.0977067  92.0628968  77.1626067  47.9702861  90.5888139  76.8421028
  47.5088013  93.2737270  81.2221703  48.1360052  92.8914347  81.8359228
  46.6515932  93.0551472  81.5877396  57.9082121 103.6800245  82.8275439
  58.4522025 104.2930203  82.3330394  57.3268966 104.2379823  83.3442452
  44.2853556  95.0813699  67.1540058  44.5806997  94.1724377  67.1007112
  43.3841591  95.0601438  66.8321061  56.1939634 106.8020963  73.9590467
  56.0690774 106.0010703  73.4501412  56.8518726 107.2967156  73.4704437
  47.8147803  93.1569695  73.1367607  47.0934388  93.7705663  72.9975080
  48.6041058  93.6927460  73.0584253  58.2574543 104.6029983  75.5870017
  57.3104878 104.4835334  75.5148343  58.6057316 103.7152481  75.6696278
  50.6174116  90.4924122  79.4108259  51.1408518  90.7386418  80.1734568
  50.3986449  91.3244157  78.9911396  46.0141397  92.7627797  67.2779383
  45.6854103  91.8825175  67.0954489  46.3680768  92.7075465  68.1655773
  55.2620976 104.3982699  71.7874369  55.1145939 103.4699407  71.9681939
  56.0874470 104.4202790  71.3031444  49.1283220  93.0500766  67.6454861
  49.4679293  93.5786688  66.9233469  49.5755341  93.3881172  68.4213428
  58.8655098 105.2211258  72.8739242  59.7901645 105.0154119  72.7363693
  58.6970401 104.9727659  73.7828583  51.8226661  91.4337817  77.0957929
  51.4823482  90.6345630  77.4978609  51.1165667  91.7339528  76.5234762
  52.4743133  88.5187129  75.5485252  53.2969202  88.0447608  75.4264142
  52.7181197  89.2977613  76.0483938  51.1151368  91.5475388  65.8448154
  51.8359730  91.9256641  65.3411871  50.4916672  92.2664265  65.9483132
  55.2582490  92.2520537  66.7806486  55.4746105  93.1345175  66.4795314
  54.7776558  91.8606750  66.0512128  49.9981712  95.2106250  73.3577231
  49.8526293  95.5246553  74.2501512  49.5206915  95.8291150  72.8048129
  51.8578095  92.2008798  73.4058120  51.8439663  91.3049891  73.0690418
  52.5750523  92.2079462  74.0396406  53.7104225  92.6346138  75.4511248
  53.4522003  93.5563209  75.4495578  53.1789266  92.2376573  76.1411712
  58.6550414 105.7396925  68.2301333  58.8287292 105.1743348  67.4775186
  59.1479305 106.5397820  68.0480823  44.4727374  97.7511595  76.2964892
  43.9280842  98.5271402  76.4285166  45.3506724  98.0982399  76.1384013
  51.2614991  91.0823178  68.6745690  51.3830902  90.1539825  68.8736578
  50.9717033  91.0961864  67.7624006  54.1306181  88.7678089  71.8112410
  54.1527878  88.8317422  70.8564390  54.5474240  87.9282597  72.0052916
  64.5089805  98.5033348  69.8491633  64.9520951  97.7540674  69.4510756
  63.6316316  98.4943485  69.4665365  59.6425587 105.0563690  65.3298231
  60.3376491 105.6770383  65.5485546  59.9848737 104.2059041  65.6050609
  45.2593396  96.8781491  79.1895049  44.5175132  97.0264126  79.7759679
  44.9386140  97.1389756  78.3261798  61.5417010 102.5063395  66.8585562
  62.0668334 102.8450668  66.1334882  61.4539362 101.5710411  66.6748697
  53.2037058 106.4197469  78.9875439  53.5124185 106.1746616  79.8598138
  54.0012540 106.6244107  78.4994309  53.2257671 108.5735379  71.2180815
  52.7862661 108.0811757  71.9113672  53.9765787 108.0308346  70.9772891
  45.7050010 104.7646920  71.2205443  46.5308029 104.4650691  70.8404087
  45.3544061 103.9954542  71.6695232  50.6731543 104.1173388  73.2903117
  50.0511552 103.4544093  72.9905345  51.3436410 104.1434520  72.6076765
  43.9058615 102.6833246  72.1794377  43.0690523 102.2555420  71.9978378
  43.8782260 102.8765689  73.1165168  50.7456070  92.5955176  82.8835623
  50.7944226  93.4717299  82.5013393  51.2878584  92.0532569  82.3107266
  61.2310916 103.1396299  82.1636760  60.4406460 103.1220438  81.6241260
  60.9944270 103.6784593  82.9185797  61.3508791  99.9888765  79.4769489
  61.4006796  99.8238773  80.4185011  61.2422714  99.1216024  79.0867369
  50.2345050 102.6677311  66.7661578  50.3833170 103.3512775  66.1128250
  51.0411493 102.6482401  67.2811033  58.6412553  95.9719693  80.7928795
  59.5422416  95.8326158  80.5012793  58.7160528  96.1374148  81.7326973
  52.9755359  93.3486548  79.6381982  52.1058668  93.6420114  79.3664570
  53.2114839  93.9326993  80.3589245  62.8526988 102.4085707  79.7211510
  62.5611796 102.7715687  80.5574971  62.2399119 101.6952715  79.5424842
  64.0522670  99.9738587  72.2414080  64.8869561 100.4128391  72.4051641
  64.1881799  99.4977240  71.4222326  61.1014176  97.5318322  78.1891568
  61.5768298  97.7245968  77.3810420  60.1779741  97.5877507  77.9434952
  47.9897683  98.6942489  67.7722646  47.7443725  97.7904819  67.9702857
  48.1593597  98.6959639  66.8302124  55.6794392  89.5666165  77.1547402
  56.1976336  90.3027192  76.8293891  55.3249525  89.8730158  77.9894161
  47.2593330  94.4270846  65.2708808  46.5662575  94.5015201  64.6148844
  47.0145082  93.6631190  65.7930325  55.9306987  85.9866448  72.6748299
  56.2108740  85.3189637  73.3008725  56.7157594  86.1795543  72.1622962
  53.7340455 105.1625442  64.2373325  53.1614422 105.7815629  63.7843797
  54.3073249 105.7124803  64.7713247  59.8015845  94.4084082  76.4219874
  60.7533268  94.5082179  76.4432098  59.6319295  93.6162350  76.9317958
  57.8230224  91.4939665  76.6079275  57.2280157  91.7744678  75.9125763
  57.5379921  91.9833566  77.3796016  56.9537715 105.4462592  65.3681907
  57.8868388 105.3808153  65.5714783  56.8660928 106.2818859  64.9096440
  59.5825732 104.7628462  62.3285855  59.5039363 104.4288326  63.2221613
  60.4035398 105.2550230  62.3277327  62.2803923  97.6290201  75.5362173
  62.2480243  96.6906202  75.7221857  62.8904546  97.7074238  74.8027998
  54.1187254  96.4986254  61.5789377  55.0646358  96.3692462  61.6477795
  53.7401499  95.7600916  62.0558806  62.4298411  94.4201245  75.5820457
  61.9137460  93.6359701  75.3950385  63.3138360  94.0919961  75.7466976
  60.0909138  88.1642260  71.5416269  59.8933959  87.8557348  72.4259601
  60.7008844  88.8903899  71.6714199  68.0980473  98.6906208  74.6768210
  68.8283861  98.4291496  75.2375914  67.4887418  97.9534930  74.7170278
  66.1795770  96.8314071  75.2742661  65.4528933  96.6970036  74.6659153
  65.7643057  97.1390899  76.0799379  54.0025946 100.5504000  83.0390034
  54.9228956 100.7282599  83.2330081  53.9675529  99.6060046  82.8869734
  52.3030171  94.4236231  61.5144263  51.3961626  94.1269343  61.5906976
  52.5806152  94.1266049  60.6478549  43.2208111  95.7442594  71.9643309
  42.9010895  94.8907902  71.6717683  42.6741539  95.9591172  72.7201276
  46.9988019  98.4605035  75.6812816  47.2174028  99.3922143  75.7000849
  47.4113793  98.1013009  76.4667619  53.9192236  88.9673120  67.6688504
  53.1092965  88.6220205  68.0443750  54.6076653  88.6580664  68.2576116
  55.8482785  88.0451167  69.2912801  56.4013823  88.4646621  69.9502824
  56.0852871  87.1186915  69.3335757  51.8715884  94.0338241  85.0715565
  51.7712611  94.9832598  85.0027656  51.6537426  93.7056480  84.1991635
  51.0728955  91.2823166  61.6556242  51.9348119  91.6078064  61.9152059
  51.2579300  90.4954662  61.1429308  43.0896371  99.3645506  73.9336431
  42.3959843  98.9499458  73.4206385  43.8369362  99.4066042  73.3369850
  59.2261592  90.1551692  68.7991465  58.6460261  90.8136496  68.4169517
  58.9597525  89.3329037  68.3878882  57.6765158  89.5556750  71.0012785
  58.1764937  89.6673285  70.1927104  58.3200766  89.2517803  71.6413594
  51.7347154  97.4635380  83.8880626  51.2514236  98.2635740  84.0944515
  51.8208093  97.4743325  82.9348070  45.0033114  99.2963759  71.8102446
  44.9803802  99.3951447  70.8584329  45.3133750 100.1428910  72.1319612
  47.6620492 101.3539914  75.9249060  48.6163745 101.3223857  75.8578992
  47.4633015 100.8930538  76.7399286  48.2519874  99.9241030  78.4919858
  49.0712763 100.4185109  78.5154695  48.5256681  99.0072999  78.4637425
  58.0086470  92.3151783  67.8547813  57.1212325  92.6001433  67.6368008
  58.4240459  92.1545546  67.0075090  61.3601006  92.3398304  71.5702152
  62.1361396  92.8294756  71.8426769  60.6349140  92.7656358  72.0274022
  63.7973565  93.0525923  72.6276093  64.3918055  92.8121659  71.9169401
  63.8700148  92.3333053  73.2549629  46.0170720 106.8959534  72.9419258
  45.8825188 106.1359935  72.3757256  45.6002783 107.6200434  72.4748047
  57.1529683 102.0796457  61.9495833  57.8565533 102.2846460  62.5653489
  56.4292332 102.6473219  62.2144917  57.9827494  97.8306319  68.0698103
  57.9262695  98.2874870  67.2305736  58.5355836  97.0697003  67.8920946
  61.7932300  93.6196051  68.8948223  61.5369234  93.2192686  69.7256430
  61.1685168  94.3339844  68.7698362  66.1044637  96.3592124  71.4019514
  65.5444195  96.4285313  72.1751076  65.4988141  96.1833108  70.6819010
  49.1739846 107.7928851  73.1537700  49.0572230 108.7374283  73.0516391
  48.3532292 107.4902412  73.5423500  59.0616381 102.5178987  63.9994293
  59.8961985 102.0860185  63.8171768  58.9000724 102.3461000  64.9271188
  58.7162273  99.0211100  65.3650632  58.6611077  98.8555371  64.4239077
  58.0908328  99.7287133  65.5212822  43.5054788  94.2579164  79.1912055
  44.1513652  93.7478118  79.6799280  43.2971939  94.9947846  79.7655480
  56.0308180 101.3260012  84.6904195  56.8999340 101.5000664  84.3290830
  55.5514932 102.1454429  84.5679925  52.0258398  88.5219209  64.9435951
  52.0137068  89.4661049  65.1004222  52.9181820  88.3389354  64.6495412
  50.1994360 108.4457113  76.3693629  51.1021607 108.4780723  76.6860124
  49.9731730 107.5157564  76.3839965  51.9547962 107.1988099  73.0303708
  51.0043593 107.1989961  72.9168080  52.2580449 106.4520834  72.5139742
  55.8410518  85.1161986  69.1981888  55.0742914  84.5620472  69.3438570
  56.2521223  85.1883854  70.0596039  47.8452279  91.4046781  83.2887069
  48.7083740  91.0483586  83.4990393  47.2717690  91.0660676  83.9762473
  67.6900656 113.0348638  74.0949470  68.3279066 112.9155385  73.3912810
  67.5721499 113.9829482  74.1537422  64.4990362 112.9876066  74.0310995
  64.1608874 112.8717131  73.1431529  65.3680130 112.5867231  74.0112001
  60.3577178 114.8411542  70.0207886  59.7942043 114.7501479  69.2524173
  60.2429573 114.0211447  70.5010378  64.9810145 114.1410918  79.9897200
  64.9698786 113.7463716  79.1177704  65.1430785 113.4076990  80.5830972
  57.9041610 116.3362734  72.8592106  58.6962902 115.9953558  72.4438405
  58.1438260 116.4457709  73.7794259  65.9376737 118.5082510  65.3322350
  65.2864716 119.0936590  64.9456364  66.7321099 119.0388705  65.3917388
  59.8632364 115.5971647  65.7309485  60.6363240 115.0500634  65.5922361
  60.2157763 116.4615896  65.9423946  61.7017406 116.9248029  78.9376384
  61.4107272 117.8293660  78.8223050  62.3374391 116.9664557  79.6520454
  62.6273613 114.3024878  75.5277744  63.2237185 114.0780900  74.8134707
  62.6848585 113.5609623  76.1303192  62.1998642 111.7564313  63.3627935
  62.4524162 111.2345834  62.6011398  61.2623201 111.5930459  63.4654618
  67.2441924 110.7600092  71.1702678  68.0305014 110.3419515  70.8193095
  67.5080629 111.6646184  71.3384326  67.4152002 116.1972942  65.8691335
  66.7797835 116.2707568  66.5812239  67.0849408 116.7866541  65.1910414
  72.6450351 110.6975325  72.0735656  73.3775523 110.1274542  72.3073486
  71.8889707 110.3096925  72.5142162  61.9194930 113.6592419  65.5652310
  61.8031188 112.9837323  66.2333394  62.0297190 113.1724793  64.7484463
  64.2626471 113.1202566  69.2698999  63.8984678 112.5933187  69.9811920
  65.1193587 112.7301035  69.0965484  70.1675772 104.4096899  76.5330265
  69.8359097 105.2792310  76.3091480  69.5721385 104.0933183  77.2124295
  63.9031958 108.1492466  64.2660347  64.0706361 109.0172702  64.6330818
  63.7129127 108.3119748  63.3421637  66.6607291 116.6109445  75.9326178
  66.3608014 117.5134484  75.8241985  66.3158351 116.3441628  76.7847331
  60.1119773 113.0623242  71.9662882  59.1870269 112.9299456  72.1740574
  60.3604186 113.8417461  72.4632825  70.0604435 109.1291985  73.6123615
  69.1521312 109.0607393  73.3182376  70.0092031 109.6063930  74.4405441
  63.8821179 110.6050123  65.2507014  63.7620804 111.0507174  66.0892495
  63.1873767 110.9535441  64.6920552  57.4728584 112.7056515  72.8006671
  57.6020965 112.9590994  73.7146083  56.7926035 113.2984223  72.4811326
  64.1345301 110.5481631  81.5558512  63.3578635 111.1075551  81.5461377
  64.7735864 111.0338414  82.0773383  71.9266082 107.3308423  75.3901489
  71.2840462 107.6240957  74.7441284  71.4221010 107.2161344  76.1954686
  69.5806245 111.0771597  66.0787348  70.4924101 111.3098983  65.9035046
  69.0715892 111.6608641  65.5162427  62.3891673 113.3567084  81.1176479
  63.1306358 113.8952128  80.8411303  61.6828659 113.9833373  81.2748031
  67.8647013 115.4996224  79.7148641  68.2730369 115.0578635  78.9703273
  67.1424274 114.9248852  79.9682834  64.2178083 110.4368831  77.0882198
  65.0639278 110.8608245  77.2316847  64.1576721 109.7802456  77.7820761
  68.1875828 116.0597415  73.4700930  67.5584690 116.2243129  72.7676998
  67.8001490 116.4739025  74.2411894  72.0665059 116.9951853  70.8245294
  71.3816098 117.3750754  70.2742327  72.1508909 117.6047180  71.5577241
  67.3677528 108.0973200  78.7463371  67.1238460 108.8515260  78.2097647
  67.6437459 108.4758547  79.5810619  69.3215991 114.6411812  77.4240637
  69.5332886 115.2843572  76.7475018  69.2745739 113.8074129  76.9562567
  66.9242220 107.2529633  74.3277209  66.0626699 107.5510886  74.6193947
  66.9504655 107.4700032  73.3958242  63.7403789 115.7971823  70.7351015
  64.2042135 116.0759526  69.9455637  63.4760587 114.8955268  70.5524106
  60.6327870 115.3443305  73.6730778  61.2029228 115.7730573  73.0348263
  61.2235982 115.0625889  74.3714964  62.6772675 111.9194976  67.5440580
  63.3796719 112.3716019  68.0114506  62.3453304 111.2778794  68.1720473
  61.1253037 110.5106732  81.9191789  60.4951698 111.1923013  82.1527186
  61.0189125 110.3989814  80.9744928  56.4198009 110.1778528  72.8457714
  55.6297063 110.4336057  72.3697824  56.9109257 110.9926866  72.9509754
  70.4361819 117.5183767  75.5962994  71.2579263 117.1163955  75.3145676
  70.4324222 117.4152002  76.5479110  58.3712755 110.5423107  69.8041190
  57.5743918 110.6541802  70.3224686  58.1438347 110.8809760  68.9382081
  64.2018422 117.0667811  77.7523705  64.2662855 117.5288218  78.5881877
  63.4929346 116.4365176  77.8806015  54.7035712 110.4309019  75.2772704
  54.9543751 111.3156029  75.5430280  55.2395261 110.2513620  74.5047796
  78.5267812 113.8622516  71.9447966  77.7731520 113.2929914  71.7891970
  78.6615353 113.8285180  72.8918601  63.9166440 118.7335918  67.6202685
  63.7812115 119.5787454  68.0487533  64.4576253 118.9355196  66.8568619
  60.4033780 104.8127498  84.2817040  60.0100725 104.2593697  84.9564685
  61.2199920 105.1238076  84.6723558  57.3695837 116.2511356  68.1930610
  57.8820358 117.0454606  68.3436175  58.0218550 115.5537647  68.1264212
  59.1790722 119.3677112  70.2753363  59.3557350 120.2895077  70.0874347
  59.9747556 119.0535532  70.7047743  63.3201741 106.2285377  81.8737297
  64.0611454 106.8292530  81.7941759  63.5519664 105.4863015  81.3155340
  58.4643079 111.4141744  80.1515527  58.3496594 110.5127002  80.4522626
  57.6087596 111.6605441  79.8000343  65.5434916 119.3559485  81.7503027
  65.0998771 118.5695863  81.4323932  66.2052130 119.5438635  81.0846918
  60.3022038 120.8855286  76.2763706  60.8529463 120.7572350  75.5040700
  59.4633514 121.1850175  75.9258599  67.6416155 119.6362285  79.7784429
  67.6234630 120.4571166  79.2864698  68.5636075 119.5116360  80.0034570
  64.0989209 117.1506414  80.6207937  64.6317545 116.3894702  80.3907245
  63.5703290 116.8580066  81.3632091  67.2658904 102.2566480  76.1501579
  66.9223173 103.1468122  76.0740689  67.6337866 102.0668138  75.2871164
  55.3344754 114.5800011  68.9690181  56.1719976 114.9897019  68.7523889
  55.5123022 113.6399453  68.9390375  67.2309186 112.2475091  64.6574014
  66.7155810 113.0179696  64.8962401  66.9586495 111.5740227  65.2807075
  64.8156297 107.0924792  69.7159252  63.9597894 106.7031642  69.5364891
  65.2283249 107.1716753  68.8559038  66.3455444 104.6271135  74.1150812
  65.8420240 104.5901270  73.3018617  66.6386051 105.5363878  74.1747469
  62.5898330 104.7109865  73.1216994  63.4551327 104.5152674  72.7622883
  62.6575839 104.4820217  74.0486350  72.2043460 115.0007446  66.5927187
  71.4272903 114.6618605  66.1482349  72.8834941 115.0060069  65.9182152
  67.0195490 110.1202183  66.4833795  66.7145625 110.4348332  67.3343938
  67.9725932 110.1983603  66.5261128  65.4641921 116.2792407  68.1326749
  64.9363283 115.5445166  67.8199986  64.9629424 117.0567083  67.8866717
  70.4434767 114.4741427  73.2493795  69.7858442 115.1640688  73.3373924
  71.2475167 114.8637859  73.5927782  60.1960649 106.9412073  70.4933360
  60.7704401 106.7187254  69.7606553  60.7831631 107.0100767  71.2461962
  69.2540226 112.8285800  71.2997737  69.7672108 113.4615792  71.8019447
  69.9041450 112.2286995  70.9341097  60.5230236 108.9716534  64.5129246
  59.6867548 109.3091220  64.8338520  60.3835006 108.8365514  63.5756383
  62.4983317 103.8153322  69.2208430  61.8447729 103.5002339  68.5965045
  62.4563791 103.1929062  69.9468253  63.6094522 114.0972617  61.1361722
  62.7021583 113.8661870  61.3352871  64.1065554 113.3010236  61.3235704
  66.5162600 122.8070124  64.0558408  65.8424299 123.1101821  64.6643366
  66.9028422 123.6099204  63.7063865  65.7321057 110.3035255  73.5456078
  64.8143618 110.5250202  73.3877766  66.1481201 110.3781566  72.6867785
  66.5156105 111.7026671  68.6758758  67.2627924 112.2148068  68.3665880
  66.7847694 111.3810724  69.5363151  64.7882755 114.1985212  65.6585712
  63.8793974 113.9144245  65.7558182  64.8177839 114.6184290  64.7989019
  70.0202022 117.8091801  69.4276880  69.5664349 116.9682711  69.4842070
  69.3895989 118.4453200  69.7651660  68.9634942 108.7383787  70.6577547
  68.2257699 108.2261173  70.9887790  69.2161715 108.2984169  69.8460824
  68.4634962 119.6468298  70.3626698  68.7557936 120.2073355  69.6439063
  68.9733582 119.9396859  71.1179857  69.0646569 101.5160039  71.2519316
  69.3705446 100.6557403  70.9645231  69.7899174 102.1077659  71.0518310
  55.3570925 111.9190726  69.6400914  55.1595325 111.3260087  68.9151981
  54.8017589 111.6142936  70.3576853  63.3367649 111.8113832  71.7595507
  63.3916259 110.8587669  71.6837984  62.5258851 111.9673271  72.2436806
  64.4858843 115.7393955  62.9973791  64.0478273 115.0229814  62.5379428
  65.2269284 115.9670070  62.4358882  61.2760009 110.4290892  69.5185886
  60.4627874 110.7285063  69.9251078  61.7719003 110.0346581  70.2360369
  63.4268587 120.4248649  71.4520151  63.3844766 120.6509495  70.5228683
  64.3431286 120.1912024  71.6005952  66.8734221 110.8932717  78.3500780
  67.2283608 111.1204190  79.2095246  67.5206352 111.2251093  77.7278036
  72.6031958 114.0151152  69.0550109  72.4649856 114.2052748  68.1271298
  72.2468176 114.7770535  69.5118160  60.7674084 108.0009248  75.1347121
  61.4073463 107.8598007  74.4370085  59.9351614 107.7143761  74.7585723
  72.6301337 116.0827679  74.0661381  73.0637844 115.9902969  74.9144435
  73.3432918 116.0585180  73.4281397  61.5434388 117.3011678  71.2482114
  62.3374986 116.8061998  71.0464689  60.8326080 116.7729541  70.8849819
  66.3629232 119.6829774  75.5994481  66.4166254 120.2520710  76.3672197
  65.4944013 119.8531659  75.2348518  57.8517151 111.4454760  67.3241866
  56.9214739 111.3839215  67.5411829  57.9474623 110.9230712  66.5278508
  57.7702700 107.9709573  69.9120108  58.0309517 108.8854906  69.8029269
  58.5919872 107.5034015  70.0616721  59.2427625 109.3847330  77.0818933
  59.9150679 109.1764692  76.4331582  58.4157412 109.1869416  76.6424165
  73.4916887 116.1251380  76.5994266  73.6852777 117.0297191  76.8453541
  73.3917505 115.6658799  77.4332851  65.1453197 106.0109271  79.0984593
  64.4981113 106.7099220  79.0049070  65.9154213 106.4445415  79.4660842
  68.5531995 116.2758123  82.1735147  68.4017502 116.0468675  81.2565230
  68.5436675 117.2328724  82.1866492  65.3217332 113.8490036  77.1581413
  66.2509392 114.0001195  76.9850381  64.9008362 113.9374056  76.3030060
  64.1205664 117.8740700  74.9279951  63.9816749 117.5059484  75.8005889
  63.3320260 118.3888339  74.7563909  64.7153816 122.9749796  66.2705487
  64.8905571 122.5037840  67.0851110  64.0286604 123.6015563  66.4986748
  65.6710879 117.2522303  72.3168789  65.3360711 117.2123073  73.2126438
  65.1714824 116.5867019  71.8439199  59.6455123 112.6589933  77.8421370
  59.5074921 111.9270172  78.4432909  60.5560046 112.5698833  77.5605558
  68.6070070 114.5978337  62.5905848  67.9899241 113.8725165  62.4938901
  68.1386559 115.3587697  62.2472923  62.2737423 112.3709892  77.3305049
  62.9837042 111.7303084  77.2891668  62.2306732 112.6222787  78.2531230
  70.2624202 119.3077245  80.2511629  70.2036748 118.6236465  79.5842212
  70.6643720 120.0496235  79.7992255  60.9866357 109.3575110  79.1500689
  60.4503714 108.9065848  79.8022285  60.3983066 109.4921019  78.4071153
  60.3968616 108.8163761  61.7127153  59.5198083 108.6952562  61.3489399
  60.8726369 108.0249840  61.4606041  70.2641609 117.2716829  78.4825608
  69.3768388 116.9342751  78.6052007  70.8340160 116.5399861  78.7194374
  51.9170756 113.6040921  71.8068660  52.6041796 113.2902651  71.2189675
  51.7618885 114.5082286  71.5335911  56.7205479 108.4931118  76.2353683
  56.6363667 107.8856787  75.5004093  55.8988185 108.9840136  76.2363180
  63.7942763 121.9318282  75.4486852  63.7212934 122.7373253  75.9606156
  63.3520156 122.1310247  74.6234873  63.5832542 121.1690052  68.9589673
  62.8000064 121.7111732  69.0527898  64.2825288 121.6864031  69.3583914
  66.8929192 106.9784681  71.6023878  67.3897892 106.2254643  71.2824949
  66.1216174 107.0148998  71.0367088  74.7458950 112.6825047  73.2442170
  74.7348826 113.5649762  72.8736103  73.8776329 112.3296598  73.0496707
  66.2541446 121.8305116  77.6045010  66.9669418 122.4652581  77.5320912
  65.7631475 121.9268982  76.7885012  67.9758973 115.7356368  69.1762302
  67.0415252 115.8557831  69.0067006  68.1535642 114.8328835  68.9122312
  63.4764161 109.1202064  71.3295563  63.1061949 108.5673105  72.0176469
  63.9723254 108.5160198  70.7770563  71.3631524 111.5773688  69.7112336
  71.8291977 112.4101679  69.6372639  71.8139025 111.1118669  70.4157594
  61.3053360 119.5799559  78.4250581  62.0062819 120.2136042  78.5779975
  60.8348475 119.9214291  77.6646220  69.4307756 117.9217509  66.7098488
  69.7067600 117.8074104  67.6192362  68.5612254 117.5234994  66.6710661
  69.3348187 103.9454275  73.7503237  68.4211267 104.1758501  73.9185444
  69.7641289 104.0292719  74.6017270  69.1054646 112.1344167  76.2503131
  68.4526096 112.3820074  75.5955584  69.4835026 111.3208305  75.9165609
  66.0661820 122.1703860  70.3531302  66.2484214 121.3525516  70.8159054
  66.8894806 122.3871552  69.9156192  66.4003985 121.0972045  67.6146350
  66.9291752 120.5864499  67.0016512  66.6632205 120.7814575  68.4791883
  65.1542219 112.8763978  82.7369168  64.4782856 112.7758107  83.4071544
  65.9769853 112.7203191  83.2005166  56.9021078 119.1135914  75.3581684
  57.4874515 118.3679602  75.4909588  56.7045916 119.4239871  76.2418348
  51.4938733 111.6841514  74.0786127  51.5322832 111.1505105  74.8723245
  50.9879025 111.1576720  73.4597104  58.8729495 106.5306055  77.5748669
  58.9370821 107.3920886  77.1626067  58.8096615 105.9180057  76.8421028
  58.3481767 108.6029187  81.2221703  58.9753806 108.2206265  81.8359228
  57.4909686 108.3843389  81.5877396  68.7475876 119.0092163  82.8275439
  69.2915780 119.6222121  82.3330394  68.1662721 119.5671741  83.3442452
  55.1247310 110.4105617  67.1540058  55.4200751 109.5016295  67.1007112
  54.2235346 110.3893356  66.8321061  67.0333389 122.1312881  73.9590467
  66.9084528 121.3302620  73.4501412  67.6912480 122.6259074  73.4704437
  58.6541557 108.4861613  73.1367607  57.9328143 109.0997581  72.9975080
  59.4434813 109.0219378  73.0584253  69.0968297 119.9321901  75.5870017
  68.1498633 119.8127252  75.5148343  69.4451070 119.0444399  75.6696278
  61.4567871 105.8216040  79.4108259  61.9802272 106.0678336  80.1734568
  61.2380204 106.6536074  78.9911396  56.8535152 108.0919714  67.2779383
  56.5247858 107.2117093  67.0954489  57.2074522 108.0367383  68.1655773
  66.1014731 119.7274617  71.7874369  65.9539693 118.7991324  71.9681939
  66.9268224 119.7494708  71.3031444  59.9676975 108.3792684  67.6454861
  60.3073047 108.9078605  66.9233469  60.4149095 108.7173090  68.4213428
  69.7048852 120.5503176  72.8739242  70.6295400 120.3446037  72.7363693
  69.5364156 120.3019577  73.7828583  62.6620416 106.7629735  77.0957929
  62.3217236 105.9637548  77.4978609  61.9559422 107.0631446  76.5234762
  63.3136888 103.8479047  75.5485252  64.1362957 103.3739525  75.4264142
  63.5574951 104.6269531  76.0483938  61.9545122 106.8767306  65.8448154
  62.6753485 107.2548558  65.3411871  61.3310426 107.5956182  65.9483132
  66.0976245 107.5812455  66.7806486  66.3139859 108.4637092  66.4795314
  65.6170312 107.1898668  66.0512128  60.8375466 110.5398168  73.3577231
  60.6920047 110.8538471  74.2501512  60.3600670 111.1583068  72.8048129
  62.6971849 107.5300716  73.4058120  62.6833418 106.6341809  73.0690418
  63.4144277 107.5371380  74.0396406  64.5497980 107.9638056  75.4511248
  64.2915758 108.8855127  75.4495578  64.0183020 107.5668491  76.1411712
  69.4944169 121.0688843  68.2301333  69.6681046 120.5035266  67.4775186
  69.9873060 121.8689738  68.0480823  55.3121128 113.0803512  76.2964892
  54.7674597 113.8563320  76.4285166  56.1900478 113.4274317  76.1384013
  62.1008745 106.4115096  68.6745690  62.2224656 105.4831742  68.8736578
  61.8110787 106.4253782  67.7624006  64.9699936 104.0970007  71.8112410
  64.9921632 104.1609340  70.8564390  65.3867995 103.2574515  72.0052916
  75.3483560 113.8325266  69.8491633  75.7914706 113.0832591  69.4510756
  74.4710070 113.8235402  69.4665365  70.4819341 120.3855608  65.3298231
  71.1770246 121.0062300  65.5485546  70.8242491 119.5350959  65.6050609
  56.0987150 112.2073408  79.1895049  55.3568886 112.3556044  79.7759679
  55.7779895 112.4681674  78.3261798  72.3810764 117.8355313  66.8585562
  72.9062088 118.1742586  66.1334882  72.2933117 116.9002328  66.6748697
  64.0430813 121.7489387  78.9875439  64.3517939 121.5038533  79.8598138
  64.8406295 121.9536025  78.4994309  56.5443764 120.0938837  71.2205443
  57.3701784 119.7942609  70.8404087  56.1937816 119.3246460  71.6695232
  61.5125297 119.4465305  73.2903117  60.8905306 118.7836010  72.9905345
  62.1830164 119.4726437  72.6076765  54.7452369 118.0125164  72.1794377
  53.9084277 117.5847338  71.9978378  54.7176014 118.2057607  73.1165168
  61.5849825 107.9247093  82.8835623  61.6337980 108.8009216  82.5013393
  62.1272339 107.3824486  82.3107266  72.0704670 118.4688217  82.1636760
  71.2800214 118.4512356  81.6241260  71.8338025 119.0076510  82.9185797
  72.1902545 115.3180683  79.4769489  72.2400550 115.1530691  80.4185011
  72.0816469 114.4507942  79.0867369  61.0738804 117.9969229  66.7661578
  61.2226924 118.6804693  66.1128250  61.8805248 117.9774319  67.2811033
  69.4806308 111.3011611  80.7928795  70.3816171 111.1618076  80.5012793
  69.5554282 111.4666066  81.7326973  63.8149113 108.6778466  79.6381982
  62.9452423 108.9712032  79.3664570  64.0508593 109.2618911  80.3589245
  73.6920742 117.7377625  79.7211510  73.4005551 118.1007605  80.5574971
  73.0792873 117.0244633  79.5424842  74.8916425 115.3030504  72.2414080
  75.7263316 115.7420308  72.4051641  75.0275553 114.8269158  71.4222326
  71.9407930 112.8610239  78.1891568  72.4162052 113.0537886  77.3810420
  71.0173496 112.9169425  77.9434952  58.8291437 114.0234406  67.7722646
  58.5837479 113.1196736  67.9702857  58.9987352 114.0251557  66.8302124
  66.5188147 104.8958083  77.1547402  67.0370091 105.6319110  76.8293891
  66.1643280 105.2022076  77.9894161  58.0987085 109.7562764  65.2708808
  57.4056330 109.8307119  64.6148844  57.8538836 108.9923108  65.7930325
  66.7700741 101.3158365  72.6748299  67.0502495 100.6481554  73.3008725
  67.5551348 101.5087461  72.1622962  64.5734210 120.4917359  64.2373325
  64.0008177 121.1107546  63.7843797  65.1467003 121.0416721  64.7713247
  70.6409599 109.7375999  76.4219874  71.5927022 109.8374097  76.4432098
  70.4713050 108.9454268  76.9317958  68.6623979 106.8231583  76.6079275
  68.0673911 107.1036595  75.9125763  68.3773676 107.3125483  77.3796016
  67.7931469 120.7754509  65.3681907  68.7262143 120.7100071  65.5714783
  67.7054682 121.6110776  64.9096440  70.4219486 120.0920380  62.3285855
  70.3433118 119.7580243  63.2221613  71.2429153 120.5842148  62.3277327
  73.1197677 112.9582119  75.5362173  73.0873997 112.0198120  75.7221857
  73.7298301 113.0366156  74.8027998  64.9581008 111.8278172  61.5789377
  65.9040113 111.6984380  61.6477795  64.5795253 111.0892834  62.0558806
  73.2692166 109.7493162  75.5820457  72.7531214 108.9651619  75.3950385
  74.1532114 109.4211879  75.7466976  70.9302893 103.4934178  71.5416269
  70.7327714 103.1849266  72.4259601  71.5402598 104.2195817  71.6714199
  78.9374227 114.0198126  74.6768210  79.6677616 113.7583414  75.2375914
  78.3281173 113.2826848  74.7170278  77.0189524 112.1605988  75.2742661
  76.2922688 112.0261953  74.6659153  76.6036811 112.4682817  76.0799379
  64.8419701 115.8795918  83.0390034  65.7622710 116.0574517  83.2330081
  64.8069284 114.9351963  82.8869734  63.1423925 109.7528148  61.5144263
  62.2355381 109.4561261  61.5906976  63.4199906 109.4557966  60.6478549
  54.0601866 111.0734512  71.9643309  53.7404650 110.2199820  71.6717683
  53.5135294 111.2883090  72.7201276  57.8381773 113.7896953  75.6812816
  58.0567783 114.7214061  75.7000849  58.2507547 113.4304927  76.4667619
  64.7585991 104.2965038  67.6688504  63.9486719 103.9512123  68.0443750
  65.4470408 103.9872582  68.2576116  66.6876539 103.3743085  69.2912801
  67.2407578 103.7938538  69.9502824  66.9246626 102.4478833  69.3335757
  62.7109638 109.3630159  85.0715565  62.6106365 110.3124515  85.0027656
  62.4931181 109.0348397  84.1991635  61.9122710 106.6115084  61.6556242
  62.7741874 106.9369982  61.9152059  62.0973054 105.8246579  61.1429308
  53.9290126 114.6937423  73.9336431  53.2353597 114.2791376  73.4206385
  54.6763117 114.7357960  73.3369850  70.0655346 105.4843610  68.7991465
  69.4854015 106.1428414  68.4169517  69.7991279 104.6620955  68.3878882
  68.5158913 104.8848668  71.0012785  69.0158691 104.9965202  70.1927104
  69.1594521 104.5809721  71.6413594  62.5740909 112.7927297  83.8880626
  62.0907990 113.5927657  84.0944515  62.6601848 112.8035242  82.9348070
  55.8426868 114.6255677  71.8102446  55.8197556 114.7243364  70.8584329
  56.1527505 115.4720828  72.1319612  58.5014246 116.6831832  75.9249060
  59.4557500 116.6515774  75.8578992  58.3026770 116.2222456  76.7399286
  59.0913628 115.2532948  78.4919858  59.9106517 115.7477027  78.5154695
  59.3650436 114.3364916  78.4637425  68.8480224 107.6443700  67.8547813
  67.9606079 107.9293351  67.6368008  69.2634213 107.4837464  67.0075090
  72.1994761 107.6690221  71.5702152  72.9755151 108.1586674  71.8426769
  71.4742895 108.0948276  72.0274022  74.6367319 108.3817841  72.6276093
  75.2311810 108.1413577  71.9169401  74.7093903 107.6624971  73.2549629
  67.9923438 117.4088375  61.9495833  68.6959288 117.6138378  62.5653489
  67.2686087 117.9765137  62.2144917  68.8221248 113.1598236  68.0698103
  68.7656450 113.6166788  67.2305736  69.3749591 112.3988921  67.8920946
  72.6326054 108.9487968  68.8948223  72.3762988 108.5484604  69.7256430
  72.0078922 109.6631762  68.7698362  76.9438392 111.6884041  71.4019514
  76.3837950 111.7577231  72.1751076  76.3381895 111.5125026  70.6819010
  69.9010135 117.8470904  63.9994293  70.7355739 117.4152103  63.8171768
  69.7394478 117.6752918  64.9271188  69.5556027 114.3503018  65.3650632
  69.5004831 114.1847289  64.4239077  68.9302083 115.0579050  65.5212822
  54.3448542 109.5871082  79.1912055  54.9907406 109.0770036  79.6799280
  54.1365694 110.3239764  79.7655480  66.8701935 116.6551929  84.6904195
  67.7393094 116.8292582  84.3290830  66.3908686 117.4746346  84.5679925
  62.8652153 103.8511127  64.9435951  62.8530823 104.7952967  65.1004222
  63.7575575 103.6681272  64.6495412  62.7941717 122.5280017  73.0303708
  61.8437348 122.5281879  72.9168080  63.0974203 121.7812752  72.5139742
  66.6804272 100.4453903  69.1981888  65.9136668  99.8912390  69.3438570
  67.0914977 100.5175772  70.0596039  58.6846033 106.7338699  83.2887069
  59.5477495 106.3775504  83.4990393  58.1111444 106.3952594  83.9762473
  78.0835679 126.0892009  71.1702678  78.8698768 125.6711432  70.8193095
  78.3474383 126.9938101  71.3384326  81.0069526 119.7388817  76.5330265
  80.6752851 120.6084228  76.3091480  80.4115140 119.4225101  77.2124295
  74.7425713 123.4784384  64.2660347  74.9100115 124.3464620  64.6330818
  74.5522882 123.6411665  63.3421637  80.8998190 124.4583903  73.6123615
  79.9915067 124.3899311  73.3182376  80.8485785 124.9355848  74.4405441
  74.7214934 125.9342041  65.2507014  74.6014559 126.3799092  66.0892495
  74.0267522 126.2827359  64.6920552  74.9739055 125.8773548  81.5558512
  74.1972389 126.4367468  81.5461377  75.6129618 126.3630331  82.0773383
  82.7659836 122.6600341  75.3901489  82.1234216 122.9532874  74.7441284
  82.2614765 122.5453261  76.1954686  80.4200000 126.4063514  66.0787348
  81.3317856 126.6390901  65.9035046  79.9109647 126.9900559  65.5162427
  75.0571837 125.7660749  77.0882198  75.9033033 126.1900162  77.2316847
  74.9970475 125.1094373  77.7820761  78.2071283 123.4265117  78.7463371
  77.9632215 124.1807178  78.2097647  78.4831213 123.8050465  79.5810619
  77.7635974 122.5821550  74.3277209  76.9020453 122.8802804  74.6193947
  77.7898409 122.7991949  73.3958242  71.2427534 120.1419416  84.2817040
  70.8494480 119.5885614  84.9564685  72.0593675 120.4529994  84.6723558
  74.1595495 121.5577295  81.8737297  74.9005209 122.1584448  81.7941759
  74.3913418 120.8154933  81.3155340  78.1052658 117.5858398  76.1501579
  77.7616928 118.4760039  76.0740689  78.4731621 117.3960055  75.2871164
  78.0702941 127.5767009  64.6574014  77.5549564 128.3471613  64.8962401
  77.7980249 126.9032145  65.2807075  75.6550052 122.4216710  69.7159252
  74.7991648 122.0323560  69.5364891  76.0677004 122.5008670  68.8559038
  77.1849199 119.9563053  74.1150812  76.6813994 119.9193188  73.3018617
  77.4779805 120.8655796  74.1747469  73.4292084 120.0401783  73.1216994
  74.2945081 119.8444591  72.7622883  73.4969593 119.8112134  74.0486350
  77.8589244 125.4494101  66.4833795  77.5539380 125.7640250  67.3343938
  78.8119686 125.5275521  66.5261128  71.0354403 122.2703991  70.4933360
  71.6098155 122.0479172  69.7606553  71.6225386 122.3392685  71.2461962
  71.3623991 124.3008452  64.5129246  70.5261303 124.6383138  64.8338520
  71.2228760 124.1657431  63.5756383  73.3377071 119.1445239  69.2208430
  72.6841484 118.8294257  68.5965045  73.2957545 118.5220980  69.9468253
  76.5714812 125.6327173  73.5456078  75.6537373 125.8542120  73.3877766
  76.9874955 125.7073483  72.6867785  77.3549859 127.0318589  68.6758758
  78.1021678 127.5439986  68.3665880  77.6241449 126.7102641  69.5363151
  79.8028696 124.0675705  70.6577547  79.0651453 123.5553091  70.9887790
  80.0555470 123.6276087  69.8460824  79.9040324 116.8451957  71.2519316
  80.2099201 115.9849320  70.9645231  80.6292929 117.4369577  71.0518310
  72.1153763 125.7582810  69.5185886  71.3021629 126.0576980  69.9251078
  72.6112758 125.3638498  70.2360369  77.7127975 126.2224634  78.3500780
  78.0677363 126.4496107  79.2095246  78.3600106 126.5543011  77.7278036
  71.6067838 123.3301165  75.1347121  72.2467218 123.1889924  74.4370085
  70.7745369 123.0435679  74.7585723  68.6096455 123.3001490  69.9120108
  68.8703272 124.2146823  69.8029269  69.4313627 122.8325933  70.0616721
  70.0821380 124.7139247  77.0818933  70.7544433 124.5056610  76.4331582
  69.2551166 124.5161333  76.6424165  75.9846952 121.3401188  79.0984593
  75.3374867 122.0391138  79.0049070  76.7547967 121.7737332  79.4660842
  71.8260112 124.6867028  79.1500689  71.2897469 124.2357766  79.8022285
  71.2376820 124.8212936  78.4071153  71.2362371 124.1455679  61.7127153
  70.3591837 124.0244480  61.3489399  71.7120124 123.3541757  61.4606041
  67.5599233 123.8223035  76.2353683  67.4757422 123.2148705  75.5004093
  66.7381939 124.3132054  76.2363180  77.7322947 122.3076599  71.6023878
  78.2291646 121.5546561  71.2824949  76.9609928 122.3440915  71.0367088
  74.3157916 124.4493982  71.3295563  73.9455703 123.8965022  72.0176469
  74.8117008 123.8452115  70.7770563  80.1741942 119.2746192  73.7503237
  79.2605022 119.5050419  73.9185444  80.6035043 119.3584636  74.6017270
  79.9448400 127.4636084  76.2503131  79.2919850 127.7111992  75.5955584
  80.3228780 126.6500222  75.9165609  69.7123249 121.8597973  77.5748669
  69.7764576 122.7212803  77.1626067  69.6490370 121.2471974  76.8421028
  69.1875522 123.9321105  81.2221703  69.8147561 123.5498182  81.8359228
  68.3303441 123.7135307  81.5877396  69.4935312 123.8153531  73.1367607
  68.7721897 124.4289499  72.9975080  70.2828567 124.3511296  73.0584253
  72.2961625 121.1507957  79.4108259  72.8196027 121.3970254  80.1734568
  72.0773958 121.9827992  78.9911396  67.6928906 123.4211632  67.2779383
  67.3641612 122.5409011  67.0954489  68.0468277 123.3659301  68.1655773
  70.8070729 123.7084602  67.6454861  71.1466802 124.2370523  66.9233469
  71.2542850 124.0465008  68.4213428  73.5014170 122.0921652  77.0957929
  73.1610991 121.2929465  77.4978609  72.7953176 122.3923363  76.5234762
  74.1530642 119.1770965  75.5485252  74.9756711 118.7031443  75.4264142
  74.3968706 119.9561449  76.0483938  72.7938877 122.2059223  65.8448154
  73.5147239 122.5840476  65.3411871  72.1704181 122.9248100  65.9483132
  76.9369999 122.9104372  66.7806486  77.1533614 123.7929010  66.4795314
  76.4564067 122.5190586  66.0512128  73.5365604 122.8592633  73.4058120
  73.5227172 121.9633727  73.0690418  74.2538032 122.8663297  74.0396406
  75.3891734 123.2929974  75.4511248  75.1309512 124.2147044  75.4495578
  74.8576775 122.8960408  76.1411712  72.9402500 121.7407014  68.6745690
  73.0618411 120.8123660  68.8736578  72.6504542 121.7545700  67.7624006
  75.8093690 119.4261924  71.8112410  75.8315387 119.4901257  70.8564390
  76.2261749 118.5866433  72.0052916  72.4243579 123.2539011  82.8835623
  72.4731735 124.1301134  82.5013393  72.9666093 122.7116404  82.3107266
  80.3200062 126.6303529  80.7928795  81.2209925 126.4909994  80.5012793
  80.3948037 126.7957984  81.7326973  74.6542868 124.0070384  79.6381982
  73.7846177 124.3003950  79.3664570  74.8902348 124.5910829  80.3589245
  77.3581901 120.2250000  77.1547402  77.8763845 120.9611027  76.8293891
  77.0037034 120.5313994  77.9894161  68.9380839 125.0854682  65.2708808
  68.2450084 125.1599037  64.6148844  68.6932591 124.3215025  65.7930325
  77.6094496 116.6450283  72.6748299  77.8896249 115.9773472  73.3008725
  78.3945103 116.8379379  72.1622962  81.4803354 125.0667917  76.4219874
  82.4320777 125.1666015  76.4432098  81.3106804 124.2746186  76.9317958
  79.5017733 122.1523500  76.6079275  78.9067666 122.4328513  75.9125763
  79.2167430 122.6417401  77.3796016  75.7974763 127.1570090  61.5789377
  76.7433867 127.0276298  61.6477795  75.4189008 126.4184752  62.0558806
  84.1085920 125.0785080  75.5820457  83.5924969 124.2943537  75.3950385
  84.9925869 124.7503797  75.7466976  81.7696647 118.8226096  71.5416269
  81.5721468 118.5141184  72.4259601  82.3796353 119.5487735  71.6714199
  73.9817680 125.0820066  61.5144263  73.0749135 124.7853179  61.5906976
  74.2593661 124.7849884  60.6478549  75.5979745 119.6256956  67.6688504
  74.7880474 119.2804041  68.0443750  76.2864162 119.3164499  68.2576116
  77.5270294 118.7035003  69.2912801  78.0801332 119.1230456  69.9502824
  77.7640380 117.7770751  69.3335757  73.5503393 124.6922076  85.0715565
  73.4500120 125.6416433  85.0027656  73.3324935 124.3640315  84.1991635
  72.7516464 121.9407001  61.6556242  73.6135628 122.2661900  61.9152059
  72.9366809 121.1538497  61.1429308  80.9049101 120.8135528  68.7991465
  80.3247770 121.4720332  68.4169517  80.6385034 119.9912872  68.3878882
  79.3552667 120.2140585  71.0012785  79.8552446 120.3257120  70.1927104
  79.9988275 119.9101638  71.6413594  79.6873979 122.9735618  67.8547813
  78.7999834 123.2585269  67.6368008  80.1027968 122.8129381  67.0075090
  83.0388515 122.9982139  71.5702152  83.8148905 123.4878592  71.8426769
  82.3136649 123.4240193  72.0274022  85.4761074 123.7109758  72.6276093
  86.0705564 123.4705494  71.9169401  85.5487657 122.9916889  73.2549629
  83.4719809 124.2779886  68.8948223  83.2156743 123.8776522  69.7256430
  82.8472677 124.9923680  68.7698362  73.7045907 119.1803044  64.9435951
  73.6924577 120.1244884  65.1004222  74.5969329 118.9973190  64.6495412
  77.5198027 115.7745821  69.1981888  76.7530423 115.2204308  69.3438570
  77.9308732 115.8467690  70.0596039  69.5239788 122.0630617  83.2887069
  70.3871249 121.7067422  83.4990393  68.9505199 121.7244512  83.9762473
  13.4931885  13.3951172  60.8194777  14.1310295  13.2757919  60.1158117
  13.3752728  14.3432016  60.8782729  10.3021591  13.3478600  60.7556301
   9.9640102  13.2319665  59.8676836  11.1711359  12.9469765  60.7357307
   6.1608407  15.2014076  56.7453192   5.5973272  15.1104013  55.9769480
   6.0460802  14.3813981  57.2255685  10.7841374  14.5013452  66.7142507
  10.7730015  14.1066250  65.8423010  10.9462013  13.7679524  67.3076278
   3.7072839  16.6965268  59.5837413   4.4994130  16.3556093  59.1683712
   3.9469489  16.8060243  60.5039566  11.7407965  18.8685044  52.0567657
  11.0895945  19.4539125  51.6701671  12.5352328  19.3991239  52.1162695
   5.6663592  15.9574181  52.4554791   6.4394468  15.4103168  52.3167667
   6.0188991  16.8218431  52.6669253   7.5048635  17.2850564  65.6621691
   7.2138501  18.1896194  65.5468357   8.1405619  17.3267091  66.3765760
   8.4304842  14.6627412  62.2523050   9.0268414  14.4383434  61.5380013
   8.4879813  13.9212158  62.8548498  13.0473153  11.1202626  57.8947985
  13.8336242  10.7022049  57.5438402  13.3111857  12.0248718  58.0629633
  13.2183230  16.5575476  52.5936641  12.5829063  16.6310103  53.3057546
  12.8880637  17.1469075  51.9155721  18.4481580  11.0577859  58.7980963
  19.1806752  10.4877076  59.0318793  17.6920936  10.6699459  59.2387469
   7.7226159  14.0194953  52.2897616   7.6062417  13.3439857  52.9578701
   7.8328419  13.5327327  51.4729769  10.0657700  13.4805100  55.9944306
   9.7015907  12.9535721  56.7057227  10.9224816  13.0903570  55.8210791
  12.4638520  16.9711979  62.6571484  12.1639243  17.8737018  62.5487292
  12.1189580  16.7044162  63.5092637  15.8635664   9.4894519  60.3368922
  14.9552541   9.4209928  60.0427683  15.8123260   9.9666464  61.1650747
   7.4459300  23.7356299  55.6242452   7.3683330  24.6864125  55.7030933
   6.8420944  23.3902172  56.2817378  17.7297310   7.6910958  62.1146796
  17.0871691   7.9843491  61.4686590  17.2252239   7.5763878  62.9199992
  15.3837474  11.4374131  52.8032655  16.2955330  11.6701518  52.6280352
  14.8747121  12.0211175  52.2407734   8.1922902  13.7169618  67.8421786
   8.9337586  14.2554662  67.5656610   7.4859887  14.3435907  67.9993338
  13.6678242  15.8598759  66.4393948  14.0761598  15.4181169  65.6948580
  12.9455503  15.2851386  66.6928140  13.9907056  16.4199949  60.1946236
  13.3615919  16.5845663  59.4922304  13.6032718  16.8341559  60.9657200
  17.8696288  17.3554387  57.5490600  17.1847326  17.7353289  56.9987633
  17.9540138  17.9649714  58.2822548  15.1247220  15.0014346  64.1485944
  15.3364115  15.6446106  63.4720325  15.0776968  14.1676663  63.6807874
   9.5435018  16.1574357  57.4596322  10.0073364  16.4362060  56.6700944
   9.2791816  15.2557802  57.2769412   6.4359099  15.7045839  60.3976085
   7.0060456  16.1333107  59.7593569   7.0267211  15.4228424  61.0960270
  16.2393048  17.8786302  62.3208301  17.0610491  17.4766489  62.0390983
  16.2355451  17.7754536  63.2724417  10.0049651  17.4270345  64.4769012
  10.0694084  17.8890752  65.3127183   9.2960575  16.7967710  64.6051321
  24.3299041  14.2225050  58.6693273  23.5762749  13.6532448  58.5137277
  24.4646582  14.1887715  59.6163907   9.7197669  19.0938452  54.3447992
   9.5843344  19.9389988  54.7732840  10.2607481  19.2957730  53.5813926
   3.1727066  16.6113890  54.9175917   3.6851587  17.4057141  55.0681482
   3.8249779  15.9140181  54.8509518   4.9821951  19.7279647  56.9998670
   5.1588579  20.6497611  56.8119654   5.7778784  19.4138066  57.4293050
  11.3466145  19.7162019  68.4748334  10.9029999  18.9298397  68.1569238
  12.0083359  19.9041169  67.8092225   6.1053266  21.2457820  63.0009012
   6.6560692  21.1174884  62.2286006   5.2664742  21.5452710  62.6503905
  13.4447383  19.9964819  66.5029735  13.4265859  20.8173700  66.0110004
  14.3667303  19.8718894  66.7279876   9.9020437  17.5108948  67.3453244
  10.4348774  16.7497236  67.1152552   9.3734519  17.2182600  68.0877398
  13.0340415  12.6077625  51.3819320  12.5187039  13.3782230  51.6207708
  12.7617724  11.9342762  52.0052382  18.0074689  15.3609980  53.3172494
  17.2304132  15.0221140  52.8727656  18.6866170  15.3662603  52.6427459
  12.8226718  10.4804717  53.2079102  12.5176854  10.7950867  54.0589245
  13.7757160  10.5586137  53.2506435  11.2673150  16.6394941  54.8572056
  10.7394512  15.9047700  54.5445293  10.7660653  17.4169617  54.6112024
  16.2465996  14.8343961  59.9739102  15.5889671  15.5243223  60.0619231
  17.0506395  15.2240393  60.3173088  15.0571455  13.1888334  58.0243044
  15.5703337  13.8218326  58.5264753  15.7072679  12.5889529  57.6586404
   9.4125750  14.4575151  47.8607029   8.5052812  14.2264404  48.0598178
   9.9096782  13.6612770  48.0481010  12.3193829  23.1672658  50.7803715
  11.6455528  23.4704355  51.3888673  12.7059651  23.9701739  50.4309172
  11.5352286  10.6637790  60.2701384  10.6174847  10.8852737  60.1123072
  11.9512429  10.7384100  59.4113092  12.3187334  12.0629205  55.4004064
  13.0659153  12.5750602  55.0911186  12.5878923  11.7413258  56.2608458
  10.5913984  14.5587746  52.3831019   9.6825203  14.2746779  52.4803488
  10.6209068  14.9786824  51.5234326  15.8233251  18.1694335  56.1522186
  15.3695578  17.3285245  56.2087377  15.1927218  18.8055734  56.4896966
  14.7666171   9.0986321  57.3822854  14.0288928   8.5863708  57.7133096
  15.0192944   8.6586703  56.5706131  14.2666190  20.0070832  57.0872004
  14.5589165  20.5675889  56.3684370  14.7764811  20.2999393  57.8425164
  10.2890072  16.0996490  49.7219097   9.8509502  15.3832349  49.2624735
  11.0300512  16.3272604  49.1604189   9.2299816  20.7851183  58.1765458
   9.1875994  21.0112029  57.2473990  10.1462514  20.5514558  58.3251259
  12.6765449  11.2535251  65.0746087  13.0314837  11.4806724  65.9340553
  13.3237581  11.5853628  64.4523342  18.4063186  14.3753687  55.7795416
  18.2681085  14.5655283  54.8516605  18.0499405  15.1373069  56.2363467
  18.4332566  16.4430214  60.7906687  18.8669073  16.3505503  61.6389741
  19.1464147  16.4187714  60.1526703   7.3465616  17.6614212  57.9727420
   8.1406215  17.1664532  57.7709995   6.6357309  17.1332075  57.6095126
  12.1660461  20.0432308  62.3239788  12.2197483  20.6123244  63.0917504
  11.2975242  20.2134193  61.9593825  19.2948116  16.4853914  63.3239573
  19.4884006  17.3899725  63.5698848  19.1948734  16.0261333  64.1578158
  14.3563224  16.6360657  68.8980453  14.2048731  16.4071209  67.9810537
  14.3467904  17.5931258  68.9111798  11.1248561  14.2092570  63.8826720
  12.0540621  14.3603729  63.7095687  10.7039591  14.2976591  63.0275366
   9.9236892  18.2343234  61.6525257   9.7847978  17.8662019  62.5251196
   9.1351489  18.7490874  61.4809215  10.5185044  23.3352331  52.9950794
  10.6936800  22.8640374  53.8096417   9.8317832  23.9618097  53.2232055
  11.4742108  17.6124837  59.0414095  11.1391940  17.5725607  59.9371745
  10.9746053  16.9469553  58.5684505  14.4101299  14.9580871  49.3151155
  13.7930470  14.2327699  49.2184208  13.9417788  15.7190232  48.9718229
   8.0768652  12.7312426  64.0550356   8.7868271  12.0905618  64.0136974
   8.0337960  12.9825321  64.9776537  16.0655431  19.6679780  66.9756935
  16.0067977  18.9839000  66.3087518  16.4674949  20.4098770  66.5237561
   5.0846130  26.4841693  59.7690654   5.3242728  27.1160218  60.4469673
   4.2415326  26.1329733  60.0556013  16.0672838  17.6319364  65.2070915
  15.1799617  17.2945285  65.3297314  16.6371389  16.9002395  65.4439680
   9.5973992  22.2920816  62.1732158   9.5244163  23.0975787  62.6851463
   9.1551385  22.4912782  61.3480180   9.3863771  21.5292586  55.6834980
   8.6031293  22.0714266  55.7773204  10.0856516  22.0466566  56.0829221
  20.5490179  13.0427581  59.9687477  20.5380055  13.9252296  59.5981410
  19.6807558  12.6899132  59.7742014  12.0572675  22.1907650  64.3290317
  12.7700647  22.8255115  64.2566218  11.5662704  22.2871516  63.5130319
  13.7790202  16.0958903  55.9007608  12.8446481  16.2160365  55.7312313
  13.9566870  15.1931369  55.6367618  17.1662753  11.9376222  56.4357643
  17.6323206  12.7704213  56.3617945  17.6170254  11.4721203  57.1402901
   7.1084589  19.9402093  65.1495888   7.8094048  20.5738576  65.3025282
   6.6379704  20.2816825  64.3891527  15.2338984  18.2820043  53.4343795
  15.5098828  18.1676638  54.3437669  14.3643483  17.8837528  53.3955968
  14.9085875  12.4946701  62.9748438  14.2557325  12.7422608  62.3200891
  15.2866254  11.6810839  62.6410915  11.8693048  22.5306394  57.0776608
  12.0515443  21.7128050  57.5404361  12.6926034  22.7474086  56.6401498
  12.2035214  21.4574579  54.3391657  12.7322980  20.9467034  53.7261819
  12.4663434  21.1417109  55.2037190  10.9573448  13.2366512  69.4614475
  10.2814085  13.1360641  70.1316850  11.7801081  13.0805726  69.9250472
   2.7052307  19.4738448  62.0826990   3.2905743  18.7282136  62.2154895
   2.5077145  19.7842405  62.9663654   5.5590962  22.5089696  57.0989433
   4.8901337  22.9935823  56.6153473   5.4203832  22.7558916  58.0132811
   9.6996230  24.5433439  63.6972091  10.2514538  24.7065061  64.4621176
  10.0402424  25.1337877  63.0252116  14.5507105  19.3694697  69.5520745
  15.0947009  19.9824655  69.0575700  13.9693950  19.9274275  70.0687758
  12.8364618  22.4915415  60.6835773  12.7115757  21.6905155  60.1746719
  13.4943709  22.9861608  60.1949743  14.8999526  20.2924435  62.3115323
  13.9529862  20.1729786  62.2393650  15.2482299  19.4046933  62.3941585
  11.9045959  20.0877151  58.5119676  11.7570922  19.1593859  58.6927246
  12.7299453  20.1097242  58.0276751  15.5080081  20.9105710  59.5984548
  16.4326629  20.7048571  59.4608999  15.3395385  20.6622111  60.5073890
  15.2975397  21.4291377  54.9546640  15.4712275  20.8637800  54.2020492
  15.7904289  22.2292272  54.7726130  21.1514789  14.1927800  56.5736939
  21.5945935  13.4435125  56.1756063  20.2741299  14.1837937  56.1910671
  16.2850570  20.7458142  52.0543538  16.9801475  21.3664834  52.2730853
  16.6273720  19.8953493  52.3295916  18.1841993  18.1957847  53.5830869
  18.7093317  18.5345120  52.8580189  18.0964346  17.2604863  53.3994003
   9.8462042  22.1091921  65.7120745  10.1549168  21.8641068  66.5843445
  10.6437524  22.3138559  65.2239616   9.8682654  24.2629831  57.9426122
   9.4287644  23.7706209  58.6358979  10.6190771  23.7202798  57.7018197
   2.3474993  20.4541371  57.9450750   3.1733013  20.1545143  57.5649394
   1.9969045  19.6848994  58.3940539   7.3156526  19.8067840  60.0148424
   6.6936535  19.1438545  59.7150651   7.9861393  19.8328972  59.3322071
  17.8735899  18.8290751  68.8882067  17.0831443  18.8114890  68.3486566
  17.6369254  19.3679045  69.6431103  17.9933774  15.6783217  66.2014795
  18.0431779  15.5133225  67.1430318  17.8847698  14.8110476  65.8112676
   6.8770033  18.3571763  53.4906884   7.0258153  19.0407227  52.8373557
   7.6836476  18.3376853  54.0056340  15.2837537  11.6614145  67.5174102
  16.1847399  11.5220610  67.2258100  15.3585511  11.8268600  68.4572279
  19.4951971  18.0980159  66.4456817  19.2036779  18.4610139  67.2820278
  18.8824102  17.3847167  66.2670149  20.6947653  15.6633039  58.9659387
  21.5294545  16.1022843  59.1296947  20.8306782  15.1871692  58.1467633
  17.7439159  13.2212773  64.9136875  18.2193281  13.4140420  64.1055726
  16.8204725  13.2771959  64.6680258  10.3765438  20.8519893  50.9618632
   9.8039405  21.4710081  50.5089103  10.9498232  21.4019255  51.4958554
  16.4440828  10.0978534  63.1465180  17.3958251  10.1976631  63.1677404
  16.2744279   9.3056802  63.6563265  13.5962698  21.1357044  52.0927214
  14.5293371  21.0702605  52.2960089  13.5085911  21.9713310  51.6341747
  16.2250715  20.4522914  49.0531161  16.1464346  20.1182777  49.9466919
  17.0460382  20.9444682  49.0522634  18.9228906  13.3184653  62.2607480
  18.8905226  12.3800654  62.4467164  19.5329530  13.3968690  61.5273305
  10.7612237  12.1880706  48.3034684  11.7071342  12.0586914  48.3723102
  10.3826482  11.4495368  48.7804112  19.0723395  10.1095697  62.3065763
  18.5562443   9.3254153  62.1195692  19.9563343   9.7814413  62.4712283
  24.7405456  14.3800660  61.4013517  25.4708844  14.1185948  61.9621220
  24.1312401  13.6429382  61.4415585  22.8220753  12.5208523  61.9987968
  22.0953917  12.3864488  61.3904460  22.4068040  12.8285351  62.8044686
  10.6450929  16.2398452  69.7635341  11.5653939  16.4177051  69.9575388
  10.6100512  15.2954498  69.6115040   8.3772137  13.1529832  70.6125933
   7.8939219  13.9530192  70.8189822   8.4633076  13.1637776  69.6593377
   4.3045475  17.0434366  62.6494367   5.2588728  17.0118309  62.5824298
   4.1057998  16.5824990  63.4644593   4.8944857  15.6135482  65.2165164
   5.7137746  16.1079561  65.2400002   5.1681665  14.6967450  65.1882732
  14.6511453   8.0046235  54.5793120  13.7637308   8.2895885  54.3613315
  15.0665442   7.8439998  53.7320397  18.0025989   8.0292756  58.2947459
  18.7786379   8.5189208  58.5672076  17.2774123   8.4550810  58.7519329
  20.4398548   8.7420375  59.3521400  21.0343039   8.5016111  58.6414708
  20.5125132   8.0227505  59.9794936   2.6595704  22.5853986  59.6664564
   2.5250172  21.8254387  59.1002563   2.2427766  23.3094886  59.1993353
  13.7954667  17.7690909  48.6741140  14.4990517  17.9740912  49.2898795
  13.0717315  18.3367671  48.9390223  14.6252477  13.5200771  54.7943410
  14.5687678  13.9769322  53.9551042  15.1780819  12.7591455  54.6166253
  18.4357283   9.3090502  55.6193529  18.1794217   8.9087138  56.4501737
  17.8110151  10.0234296  55.4943669  22.7469621  12.0486576  58.1264821
  22.1869179  12.1179765  58.8996383  22.1413124  11.8727560  57.4064317
   5.8164830  23.4823303  59.8783007   5.6997214  24.4268735  59.7761697
   4.9957276  23.1796864  60.2668806  15.7041364  18.2073438  50.7239600
  16.5386968  17.7754637  50.5417075  15.5425707  18.0355452  51.6516494
  15.3587256  14.7105552  52.0895939  15.3036060  14.5449823  51.1484383
  14.7333312  15.4181585  52.2458129  12.6733163  17.0154464  71.4149502
  13.5424323  17.1895116  71.0536137  12.1939915  17.8348880  71.2925231
   6.8419344  24.1351565  63.0938936   7.7446590  24.1675175  63.4105430
   6.6156714  23.2052016  63.1085271   8.5972946  22.8882551  59.7549014
   7.6468577  22.8884413  59.6413386   8.9005432  22.1415286  59.2385049
  24.3325639  28.7243090  60.8194777  24.9704049  28.6049837  60.1158117
  24.2146482  29.6723934  60.8782729  21.1415345  28.6770518  60.7556301
  20.8033857  28.5611582  59.8676836  22.0105114  28.2761683  60.7357307
  17.0002161  30.5305994  56.7453192  16.4367026  30.4395931  55.9769480
  16.8854556  29.7105899  57.2255685  21.6235128  29.8305369  66.7142507
  21.6123769  29.4358168  65.8423010  21.7855768  29.0971442  67.3076278
  14.5466593  32.0257186  59.5837413  15.3387885  31.6848010  59.1683712
  14.7863243  32.1352161  60.5039566  22.5801720  34.1976962  52.0567657
  21.9289700  34.7831042  51.6701671  23.3746083  34.7283157  52.1162695
  16.5057347  31.2866099  52.4554791  17.2788223  30.7395086  52.3167667
  16.8582746  32.1510348  52.6669253  18.3442390  32.6142481  65.6621691
  18.0532256  33.5188112  65.5468357  18.9799374  32.6559009  66.3765760
  19.2698596  29.9919330  62.2523050  19.8662169  29.7675352  61.5380013
  19.3273568  29.2504075  62.8548498  18.8423625  27.4458765  50.0873241
  19.0949145  26.9240286  49.3256704  17.9048184  27.2824911  50.1899925
  23.8866908  26.4494543  57.8947985  24.6729997  26.0313967  57.5438402
  24.1505612  27.3540636  58.0629633  24.0576985  31.8867394  52.5936641
  23.4222818  31.9602020  53.3057546  23.7274391  32.4760993  51.9155721
  29.2875335  26.3869777  58.7980963  30.0200507  25.8168993  59.0318793
  28.5314690  25.9991377  59.2387469  18.5619914  29.3486871  52.2897616
  18.4456172  28.6731774  52.9578701  18.6722173  28.8619245  51.4729769
  20.9051454  28.8097018  55.9944306  20.5409662  28.2827639  56.7057227
  21.7618570  28.4195487  55.8210791  26.8100755  20.0991351  63.2575572
  26.4784080  20.9686762  63.0336787  26.2146368  19.7827635  63.9369602
  20.5456941  23.8386918  50.9905654  20.7131344  24.7067154  51.3576125
  20.3554111  24.0014200  50.0666943  23.3032275  32.3003897  62.6571484
  23.0032998  33.2028936  62.5487292  22.9583334  32.0336080  63.5092637
  16.7544756  28.7517694  58.6908189  15.8295253  28.6193908  58.8985881
  17.0029169  29.5311913  59.1878131  26.7029418  24.8186437  60.3368922
  25.7946296  24.7501845  60.0427683  26.6517014  25.2958382  61.1650747
  20.5246162  26.2944575  51.9752321  20.4045788  26.7401626  52.8137801
  19.8298751  26.6429893  51.4165859  14.1153567  28.3950967  59.5251978
  14.2445948  28.6485446  60.4391390  13.4351018  28.9878675  59.2056633
  18.2853054  39.0648217  55.6242452  18.2077084  40.0156042  55.7030933
  17.6814698  38.7194090  56.2817378  20.7770284  26.2376083  68.2803819
  20.0003618  26.7970003  68.2706684  21.4160847  26.7232866  68.8018689
  28.5691065  23.0202875  62.1146796  27.9265445  23.3135408  61.4686590
  28.0645993  22.9055796  62.9199992  26.2231228  26.7666049  52.8032655
  27.1349085  26.9993435  52.6280352  25.7140876  27.3503093  52.2407734
  19.0316657  29.0461536  67.8421786  19.7731341  29.5846580  67.5656610
  18.3253642  29.6727825  67.9993338  24.5071996  31.1890676  66.4393948
  24.9155352  30.7473087  65.6948580  23.7849258  30.6143304  66.6928140
  20.8603066  26.1263283  63.8127504  21.7064261  26.5502697  63.9562153
  20.8001704  25.4696907  64.5066068  24.8300811  31.7491867  60.1946236
  24.2009673  31.9137581  59.4922304  24.4426473  32.1633477  60.9657200
  28.7090043  32.6846305  57.5490600  28.0241081  33.0645206  56.9987633
  28.7933892  33.2941631  58.2822548  24.0102512  23.7867651  65.4708678
  23.7663443  24.5409712  64.9342954  24.2862442  24.1652999  66.3055925
  25.9640974  30.3306264  64.1485944  26.1757870  30.9738024  63.4720325
  25.9170723  29.4968580  63.6807874  23.5667203  22.9424084  61.0522516
  22.7051682  23.2405338  61.3439253  23.5929638  23.1594483  60.1203548
  20.3828773  31.4866275  57.4596322  20.8467118  31.7653978  56.6700944
  20.1185571  30.5849720  57.2769412  17.2752854  31.0337757  60.3976085
  17.8454211  31.4625025  59.7593569  17.8660966  30.7520341  61.0960270
  19.3197659  27.6089427  54.2685887  20.0221702  28.0610471  54.7359813
  18.9878287  26.9673246  54.8965780  17.7678020  26.2001184  68.6437096
  17.1376681  26.8817465  68.8772493  17.6614108  26.0884266  67.6990234
  13.0622993  25.8672980  59.5703020  12.2722047  26.1230509  59.0943131
  13.5534240  26.6821318  59.6755061  27.0786802  33.2078219  62.3208301
  27.9004246  32.8058407  62.0390983  27.0749205  33.1046453  63.2724417
  15.0137738  26.2317559  56.5286497  14.2168901  26.3436254  57.0469993
  14.7863330  26.5704212  55.6627387  20.8443406  32.7562263  64.4769012
  20.9087838  33.2182670  65.3127183  20.1354330  32.1259627  64.6051321
  11.3460696  26.1203471  62.0018011  11.5968734  27.0050480  62.2675587
  11.8820244  25.9408072  61.2293103  35.1692795  29.5516968  58.6693273
  34.4156504  28.9824366  58.5137277  35.3040337  29.5179632  59.6163907
  20.5591423  34.4230370  54.3447992  20.4237098  35.2681906  54.7732840
  21.1001236  34.6249648  53.5813926  17.0458763  20.5021950  71.0062347
  16.6525709  19.9488148  71.6809991  17.8624903  20.8132528  71.3968865
  14.0120821  31.9405808  54.9175917  14.5245341  32.7349058  55.0681482
  14.6643534  31.2432099  54.8509518  15.8215705  35.0571564  56.9998670
  15.9982334  35.9789529  56.8119654  16.6172539  34.7429984  57.4293050
  19.9626724  21.9179829  68.5982604  20.7036437  22.5186982  68.5187066
  20.1944647  21.1757467  68.0400646  15.1068062  27.1036196  66.8760833
  14.9921577  26.2021453  67.1767932  14.2512580  27.3499893  66.5245650
  22.1859900  35.0453937  68.4748334  21.7423754  34.2590315  68.1569238
  22.8477113  35.2333087  67.8092225  16.9447021  36.5749738  63.0009012
  17.4954446  36.4466802  62.2286006  16.1058497  36.8744627  62.6503905
  24.2841138  35.3256736  66.5029735  24.2659613  36.1465618  66.0110004
  25.2061058  35.2010812  66.7279876  20.7414192  32.8400866  67.3453244
  21.2742529  32.0789154  67.1152552  20.2128273  32.5474518  68.0877398
  23.9083887  17.9460932  62.8746885  23.5648156  18.8362574  62.7985996
  24.2762850  17.7562590  62.0116470  11.9769738  30.2694462  55.6935487
  12.8144960  30.6791471  55.4769195  12.1548005  29.3293905  55.6635681
  23.8734170  27.9369543  51.3819320  23.3580793  28.7074148  51.6207708
  23.6011478  27.2634679  52.0052382  21.4581281  22.7819244  56.4404559
  20.6022877  22.3926094  56.2610198  21.8708232  22.8611205  55.5804344
  22.9880427  20.3165587  60.8396119  22.4845223  20.2795722  60.0263924
  23.2811034  21.2258330  60.8992775  19.2323313  20.4004317  59.8462300
  20.0976310  20.2047125  59.4868190  19.3000822  20.1714669  60.7731657
  28.8468444  30.6901898  53.3172494  28.0697887  30.3513057  52.8727656
  29.5259925  30.6954521  52.6427459  23.6620473  25.8096635  53.2079102
  23.3570608  26.1242784  54.0589245  24.6150915  25.8878055  53.2506435
  22.1066905  31.9686858  54.8572056  21.5788266  31.2339618  54.5445293
  21.6054407  32.7461535  54.6112024  27.0859751  30.1635879  59.9739102
  26.4283425  30.8535140  60.0619231  27.8900150  30.5532311  60.3173088
  16.8385632  22.6306525  57.2178667  17.4129384  22.4081706  56.4851860
  17.4256615  22.6995219  57.9707268  25.8965209  28.5180252  58.0243044
  26.4097091  29.1510243  58.5264753  26.5466433  27.9181447  57.6586404
  17.1655219  24.6610986  51.2374552  16.3292532  24.9985672  51.5583827
  17.0259989  24.5259966  50.3001689  19.1408300  19.5047774  55.9453737
  18.4872712  19.1896791  55.3210351  19.0988774  18.8823514  56.6713559
  20.2519505  29.7867069  47.8607029  19.3446567  29.5556322  48.0598178
  20.7490537  28.9904688  48.0481010  23.1587584  38.4964576  50.7803715
  22.4849282  38.7996273  51.3888673  23.5453406  39.2993656  50.4309172
  22.3746040  25.9929707  60.2701384  21.4568602  26.2144654  60.1123072
  22.7906184  26.0676018  59.4113092  23.1581088  27.3921123  55.4004064
  23.9052907  27.9042520  55.0911186  23.4272678  27.0705176  56.2608458
  21.4307738  29.8879664  52.3831019  20.5218958  29.6038696  52.4803488
  21.4602822  30.3078742  51.5234326  26.6627006  33.4986253  56.1522186
  26.2089333  32.6577163  56.2087377  26.0320972  34.1347651  56.4896966
  25.6059925  24.4278239  57.3822854  24.8682682  23.9155625  57.7133096
  25.8586699  23.9878621  56.5706131  25.1059945  35.3362750  57.0872004
  25.3982919  35.8967807  56.3684370  25.6158566  35.6291311  57.8425164
  25.7071553  17.2054491  57.9764623  26.0130429  16.3451855  57.6890538
  26.4324157  17.7972111  57.7763617  11.9995909  27.6085178  56.3646221
  11.8020308  27.0154538  55.6397288  11.4442573  27.3037388  57.0822160
  19.9792632  27.5008284  58.4840814  20.0341242  26.5482121  58.4083291
  19.1683834  27.6567723  58.9682112  21.1283826  31.4288407  49.7219097
  20.6903256  30.7124266  49.2624735  21.8694267  31.6564522  49.1604189
  17.9184992  26.1185344  56.2431193  17.1052858  26.4179514  56.6496385
  18.4143986  25.7241033  56.9605675  20.0693570  36.1143101  58.1765458
  20.0269749  36.3403947  57.2473990  20.9856269  35.8806475  58.3251259
  23.5159204  26.5827168  65.0746087  23.8708592  26.8098642  65.9340553
  24.1631335  26.9145545  64.4523342  29.2456941  29.7045604  55.7795416
  29.1074839  29.8947200  54.8516605  28.8893160  30.4664987  56.2363467
  17.4099067  23.6903699  61.8592428  18.0498446  23.5492459  61.1615391
  16.5776598  23.4038213  61.4831030  29.2726320  31.7722131  60.7906687
  29.7062827  31.6797420  61.6389741  29.9857901  31.7479632  60.1526703
  18.1859371  32.9906130  57.9727420  18.9799969  32.4956450  57.7709995
  17.4751063  32.4623993  57.6095126  23.0054215  35.3724225  62.3239788
  23.0591238  35.9415162  63.0917504  22.1368997  35.5426110  61.9593825
  14.4942134  27.1349212  54.0487173  13.5639722  27.0733667  54.2657135
  14.5899606  26.6125164  53.2523814  14.4127683  23.6604024  56.6365415
  14.6734501  24.5749358  56.5274575  15.2344856  23.1928467  56.7862028
  15.8852609  25.0741782  63.8064239  16.5575662  24.8659144  63.1576888
  15.0582395  24.8763868  63.3669472  30.1341870  31.8145832  63.3239573
  30.3277760  32.7191642  63.5698848  30.0342488  31.3553251  64.1578158
  21.7878181  21.7003723  65.8229900  21.1406096  22.3993672  65.7294377
  22.5579196  22.1339866  66.1906148  25.1956979  31.9652575  68.8980453
  25.0442485  31.7363126  67.9810537  25.1861658  32.9223176  68.9111798
  21.9642315  29.5384487  63.8826720  22.8934375  29.6895647  63.7095687
  21.5433345  29.6268508  63.0275366  20.7630647  33.5635152  61.6525257
  20.6241733  33.1953936  62.5251196  19.9745243  34.0782791  61.4809215
  21.3578799  38.6644248  52.9950794  21.5330555  38.1932292  53.8096417
  20.6711587  39.2910015  53.2232055  22.3135862  32.9416755  59.0414095
  21.9785695  32.9017525  59.9371745  21.8139808  32.2761470  58.5684505
  16.2880106  28.3484385  64.5666676  16.1499904  27.6164623  65.1678215
  17.1985029  28.2593285  64.2850864  25.2495054  30.2872789  49.3151155
  24.6324224  29.5619617  49.2184208  24.7811542  31.0482149  48.9718229
  18.9162407  28.0604344  64.0550356  19.6262025  27.4197536  64.0136974
  18.8731715  28.3117239  64.9776537  26.9049185  34.9971697  66.9756935
  26.8461732  34.3130917  66.3087518  27.3068704  35.7390687  66.5237561
  17.6291341  25.0469562  65.8745996  17.0928698  24.5960300  66.5267592
  17.0408049  25.1815471  65.1316460  15.9239884  41.8133611  59.7690654
  16.1636482  42.4452135  60.4469673  15.0809081  41.4621651  60.0556013
  17.0393600  24.5058213  48.4372459  16.1623066  24.3847014  48.0734706
  17.5151353  23.7144292  48.1851348  26.9066593  32.9611281  65.2070915
  26.0193371  32.6237203  65.3297314  27.4765144  32.2294312  65.4439680
   8.5595740  29.2935373  58.5313966   9.2466780  28.9797103  57.9434982
   8.4043868  30.1976738  58.2581218  13.3630462  24.1825569  62.9598990
  13.2788651  23.5751239  62.2249400  12.5413168  24.6734588  62.9608486
  20.4367746  37.6212734  62.1732158  20.3637918  38.4267705  62.6851463
  19.9945139  37.8204699  61.3480180  20.2257526  36.8584504  55.6834980
  19.4425048  37.4006184  55.7773204  20.9250271  37.3758483  56.0829221
  23.5354176  22.6679133  58.3269185  24.0322875  21.9149095  58.0070255
  22.7641157  22.7043450  57.7612394  31.3883933  28.3719499  59.9687477
  31.3773809  29.2544214  59.5981410  30.5201313  28.0191049  59.7742014
  22.8966430  37.5199568  64.3290317  23.6094402  38.1547032  64.2566218
  22.4056458  37.6163434  63.5130319  24.6183956  31.4250820  55.9007608
  23.6840235  31.5452283  55.7312313  24.7960625  30.5223287  55.6367618
  20.1189145  24.8096516  58.0540870  19.7486932  24.2567556  58.7421775
  20.6148237  24.2054649  57.5015870  28.0056508  27.2668140  56.4357643
  28.4716960  28.0996131  56.3617945  28.4564008  26.8013121  57.1402901
  17.9478343  35.2694011  65.1495888  18.6487803  35.9030494  65.3025282
  17.4773458  35.6108743  64.3891527  26.0732739  33.6111961  53.4343795
  26.3492583  33.4968555  54.3437669  25.2037238  33.2129446  53.3955968
  25.9773171  19.6348727  60.4748544  25.0636250  19.8652953  60.6430751
  26.4066272  19.7187171  61.3262576  25.7479629  27.8238618  62.9748438
  25.0951079  28.0714526  62.3200891  26.1260009  27.0102757  62.6410915
  22.7086803  37.8598312  57.0776608  22.8909197  37.0419968  57.5404361
  23.5319789  38.0766004  56.6401498  23.0428968  36.7866497  54.3391657
  23.5716735  36.2758951  53.7261819  23.3057188  36.4709027  55.2037190
  21.7967202  28.5658430  69.4614475  21.1207839  28.4652559  70.1316850
  22.6194836  28.4097643  69.9250472  13.5446061  34.8030366  62.0826990
  14.1299498  34.0574054  62.2154895  13.3470900  35.1134323  62.9663654
  16.3984716  37.8381613  57.0989433  15.7295092  38.3227741  56.6153473
  16.2597586  38.0850834  58.0132811   8.1363716  27.3735966  60.8031433
   8.1747815  26.8399557  61.5968552   7.6304009  26.8471172  60.1842411
  20.5389985  39.8725357  63.6972091  21.0908293  40.0356978  64.4621176
  20.8796178  40.4629795  63.0252116  15.5154478  22.2200507  64.2993976
  15.5795805  23.0815338  63.8871373  15.4521598  21.6074508  63.5666334
  14.9906751  24.2923639  67.9467010  15.6178790  23.9100717  68.5604534
  14.1334670  24.0737841  68.3122703  25.3900859  34.6986615  69.5520745
  25.9340763  35.3116573  69.0575700  24.8087704  35.2566193  70.0687758
  11.7672293  26.1000068  53.8785365  12.0625735  25.1910747  53.8252419
  10.8660329  26.0787808  53.5566367  23.6758372  37.8207333  60.6835773
  23.5509512  37.0197072  60.1746719  24.3337463  38.3153526  60.1949743
  15.2966540  24.1756065  59.8612913  14.5753126  24.7892033  59.7220387
  16.0859796  24.7113830  59.7829559  25.7393281  35.6216353  62.3115323
  24.7923616  35.5021704  62.2393650  26.0876054  34.7338851  62.3941585
  18.0992854  21.5110492  66.1353565  18.6227256  21.7572788  66.8979874
  17.8805187  22.3430526  65.7156703  13.4960135  23.7814166  54.0024690
  13.1672841  22.9011545  53.8199796  13.8499506  23.7261835  54.8901079
  22.7439714  35.4169069  58.5119676  22.5964676  34.4885776  58.6927246
  23.5693207  35.4389160  58.0276751  16.6101958  24.0687136  54.3700168
  16.9498031  24.5973057  53.6478776  17.0574079  24.4067542  55.1458734
  26.3473836  36.2397628  59.5984548  27.2720383  36.0340489  59.4608999
  26.1789139  35.9914029  60.5073890  19.3045399  22.4524187  63.8203236
  18.9642219  21.6532000  64.2223916  18.5984405  22.7525897  63.2480069
  19.9561871  19.5373499  62.2730559  20.7787940  19.0633977  62.1509449
  20.1999934  20.3163983  62.7729245  18.5970105  22.5661757  52.5693460
  19.3178468  22.9443010  52.0657177  17.9735409  23.2850634  52.6728438
  22.7401228  23.2706906  53.5051793  22.9564843  24.1531544  53.2040621
  22.2595295  22.8793120  52.7757435  17.4800450  26.2292620  60.0822537
  17.3345030  26.5432923  60.9746819  17.0025653  26.8477520  59.5293436
  19.3396832  23.2195168  60.1303427  19.3258401  22.3236261  59.7935725
  20.0569261  23.2265831  60.7641713  21.1922963  23.6532508  62.1756554
  20.9340741  24.5749579  62.1740885  20.6608004  23.2562942  62.8657018
  26.1369152  36.7583295  54.9546640  26.3106029  36.1929717  54.2020492
  26.6298043  37.5584190  54.7726130  11.9546112  28.7697964  63.0210199
  11.4099580  29.5457772  63.1530473  12.8325462  29.1168769  62.8629320
  18.7433728  22.1009548  55.3990997  18.8649640  21.1726194  55.5981885
  18.4535771  22.1148234  54.4869312  21.6124919  19.7864458  58.5357717
  21.6346616  19.8503791  57.5809696  22.0292978  18.9468967  58.7298223
  31.9908543  29.5219718  56.5736939  32.4339689  28.7727043  56.1756063
  31.1135053  29.5129854  56.1910671  27.1244324  36.0750059  52.0543538
  27.8195229  36.6956752  52.2730853  27.4667475  35.2245411  52.3295916
  12.7412134  27.8967860  65.9140355  11.9993870  28.0450496  66.5004986
  12.4204878  28.1576126  65.0507105  29.0235748  33.5249765  53.5830869
  29.5487072  33.8637038  52.8580189  28.9358100  32.5896780  53.3994003
  20.6855796  37.4383839  65.7120745  20.9942923  37.1932985  66.5843445
  21.4831278  37.6430477  65.2239616  20.7076408  39.5921748  57.9426122
  20.2681399  39.0998127  58.6358979  21.4584525  39.0494716  57.7018197
  13.1868747  35.7833289  57.9450750  14.0126767  35.4837061  57.5649394
  12.8362799  35.0140912  58.3940539  18.1550280  35.1359757  60.0148424
  17.5330290  34.4730462  59.7150651  18.8255147  35.1620889  59.3322071
  11.3877352  33.7019616  58.9039684  10.5509261  33.2741790  58.7223685
  11.3600998  33.8952059  59.8410475  18.2274808  23.6141545  69.6080930
  18.2762963  24.4903668  69.2258699  18.7697322  23.0718938  69.0352573
  28.7129654  34.1582669  68.8882067  27.9225197  34.1406807  68.3486566
  28.4763008  34.6970962  69.6431103  28.8327529  31.0075135  66.2014795
  28.8825534  30.8425142  67.1430318  28.7241452  30.1402394  65.8112676
  17.7163787  33.6863681  53.4906884  17.8651908  34.3699145  52.8373557
  18.5230231  33.6668771  54.0056340  26.1231291  26.9906063  67.5174102
  27.0241154  26.8512528  67.2258100  26.1979266  27.1560518  68.4572279
  20.4574096  24.3672918  66.3627288  19.5877406  24.6606484  66.0909877
  20.6933577  24.9513363  67.0834552  30.3345726  33.4272076  66.4456817
  30.0430534  33.7902057  67.2820278  29.7217857  32.7139085  66.2670149
  31.5341408  30.9924956  58.9659387  32.3688299  31.4314760  59.1296947
  31.6700537  30.5163609  58.1467633  28.5832914  28.5504691  64.9136875
  29.0587035  28.7432337  64.1055726  27.6598479  28.6063877  64.6680258
  15.4716420  29.7128858  54.4967953  15.2262462  28.8091188  54.6948163
  15.6412335  29.7146009  53.5547431  23.1613130  20.5852535  63.8792709
  23.6795074  21.3213562  63.5539197  22.8068263  20.8916528  64.7139468
  14.7412068  25.4457216  51.9954115  14.0481313  25.5201571  51.3394151
  14.4963820  24.6817559  52.5175631  23.4125724  17.0052817  59.3993605
  23.6927478  16.3376006  60.0254032  24.1976331  17.1981913  58.8868269
  21.2159193  36.1811811  50.9618632  20.6433160  36.8001998  50.5089103
  21.7891987  36.7311173  51.4958554  27.2834583  25.4270451  63.1465180
  28.2352006  25.5268549  63.1677404  27.1138033  24.6348720  63.6563265
  25.3048962  22.5126034  63.3324581  24.7098894  22.7931047  62.6371070
  25.0198659  23.0019935  64.1041322  24.4356453  36.4648961  52.0927214
  25.3687126  36.3994523  52.2960089  24.3479666  37.3005228  51.6341747
  27.0644469  35.7814832  49.0531161  26.9858101  35.4474695  49.9466919
  27.8854136  36.2736599  49.0522634  29.7622661  28.6476571  62.2607480
  29.7298981  27.7092572  62.4467164  30.3723284  28.7260608  61.5273305
  21.6005991  27.5172624  48.3034684  22.5465096  27.3878832  48.3723102
  21.2220236  26.7787286  48.7804112  29.9117149  25.4387614  62.3065763
  29.3956198  24.6546071  62.1195692  30.7957098  25.1106331  62.4712283
  27.5727876  19.1828630  58.2661576  27.3752697  18.8743718  59.1504908
  28.1827582  19.9090269  58.3959506  35.5799210  29.7092578  61.4013517
  36.3102599  29.4477866  61.9621220  34.9706156  28.9721300  61.4415585
  33.6614508  27.8500440  61.9987968  32.9347671  27.7156405  61.3904460
  33.2461794  28.1577269  62.8044686  21.4844684  31.5690370  69.7635341
  22.4047693  31.7468969  69.9575388  21.4494267  30.6246415  69.6115040
  19.7848909  25.4422600  48.2389569  18.8780364  25.1455713  48.3152283
  20.0624890  25.1452418  47.3723856  10.7026849  26.7628964  58.6888616
  10.3829633  25.9094272  58.3962990  10.1560277  26.9777542  59.4446583
  14.4806756  29.4791405  62.4058122  14.6992766  30.4108512  62.4246156
  14.8932530  29.1199379  63.1912926  21.4010974  19.9859490  54.3933811
  20.5911703  19.6406575  54.7689057  22.0895391  19.6767034  54.9821422
  23.3301523  19.0637537  56.0158107  23.8832561  19.4832990  56.6748130
  23.5671609  18.1373285  56.0581063  19.3534622  25.0524610  71.7960871
  19.2531349  26.0018967  71.7272962  19.1356164  24.7242849  70.9236941
  18.5547693  22.3009535  48.3801549  19.4166857  22.6264434  48.6397366
  18.7398037  21.5141031  47.8674614  10.5715109  30.3831875  60.6581737
   9.8778580  29.9685828  60.1451692  11.3188100  30.4252412  60.0615156
  26.7080330  21.1738062  55.5236772  26.1278999  21.8322866  55.1414824
  26.4416262  20.3515407  55.1124189  25.1583896  20.5743120  57.7258092
  25.6583674  20.6859654  56.9172411  25.8019504  20.2704172  58.3658900
  19.2165892  28.4821749  70.6125933  18.7332974  29.2822109  70.8189822
  19.3026831  28.4929694  69.6593377  12.4851851  30.3150129  58.5347752
  12.4622540  30.4137816  57.5829635  12.7952488  31.1615280  58.8564918
  15.1439229  32.3726284  62.6494367  16.0982483  32.3410226  62.5824298
  14.9451753  31.9116908  63.4644593  15.7338611  30.9427400  65.2165164
  16.5531500  31.4371479  65.2400002  16.0075419  30.0259368  65.1882732
  25.4905208  23.3338152  54.5793120  24.6031063  23.6187803  54.3613315
  25.9059197  23.1731916  53.7320397  28.8419744  23.3584673  58.2947459
  29.6180134  23.8481126  58.5672076  28.1167878  23.7842727  58.7519329
  31.2792302  24.0712292  59.3521400  31.8736793  23.8308028  58.6414708
  31.3518886  23.3519423  59.9794936  13.4989458  37.9145903  59.6664564
  13.3643926  37.1546304  59.1002563  13.0821520  38.6386803  59.1993353
  24.6348421  33.0982827  48.6741140  25.3384271  33.3032829  49.2898795
  23.9111070  33.6659589  48.9390223  25.4646231  28.8492688  54.7943410
  25.4081433  29.3061240  53.9551042  26.0174574  28.0883373  54.6166253
  29.2751037  24.6382420  55.6193529  29.0187972  24.2379056  56.4501737
  28.6503905  25.3526214  55.4943669  33.5863375  27.3778493  58.1264821
  33.0262933  27.4471683  58.8996383  32.9806879  27.2019478  57.4064317
  16.6558584  38.8115220  59.8783007  16.5390968  39.7560653  59.7761697
  15.8351030  38.5088782  60.2668806  26.5435119  33.5365356  50.7239600
  27.3780722  33.1046555  50.5417075  26.3819461  33.3647370  51.6516494
  26.1981011  30.0397469  52.0895939  26.1429815  29.8741741  51.1484383
  25.5727066  30.7473502  52.2458129  10.9873526  25.2765534  65.9157361
  11.6332389  24.7664488  66.4044586  10.7790677  26.0134215  66.4900787
  23.5126918  32.3446381  71.4149502  24.3818078  32.5187034  71.0536137
  23.0333669  33.1640798  71.2925231  19.5077136  19.5405578  51.6681258
  19.4955806  20.4847418  51.8249528  20.4000558  19.3575724  51.3740719
  17.6813098  39.4643482  63.0938936  18.5840345  39.4967093  63.4105430
  17.4550468  38.5343933  63.1085271  19.4366700  38.2174469  59.7549014
  18.4862331  38.2176330  59.6413386  19.7399186  37.4707203  59.2385049
  23.3229256  16.1348355  55.9227194  22.5561651  15.5806842  56.0683877
  23.7339961  16.2070224  56.7841346  15.3271017  22.4233151  70.0132376
  16.1902478  22.0669956  70.2235700  14.7536427  22.0847046  70.7007780
  31.9809100  44.0062435  60.7556301  31.6427611  43.8903500  59.8676836
  32.8498868  43.6053600  60.7357307  27.8395916  45.8597912  56.7453192
  27.2760781  45.7687849  55.9769480  27.7248311  45.0397816  57.2255685
  32.4628883  45.1597287  66.7142507  32.4517524  44.7650085  65.8423010
  32.6249522  44.4263360  67.3076278  25.3860348  47.3549103  59.5837413
  26.1781639  47.0139928  59.1683712  25.6256998  47.4644078  60.5039566
  27.3451101  46.6158017  52.4554791  28.1181977  46.0687004  52.3167667
  27.6976500  47.4802266  52.6669253  29.1836144  47.9434399  65.6621691
  28.8926010  48.8480030  65.5468357  29.8193128  47.9850927  66.3765760
  30.1092351  45.3211247  62.2523050  30.7055923  45.0967270  61.5380013
  30.1667322  44.5795993  62.8548498  29.6817379  42.7750683  50.0873241
  29.9342900  42.2532204  49.3256704  28.7441938  42.6116828  50.1899925
  29.4013668  44.6778789  52.2897616  29.2849926  44.0023692  52.9578701
  29.5115928  44.1911163  51.4729769  31.7445209  44.1388936  55.9944306
  31.3803416  43.6119557  56.7057227  32.6012325  43.7487405  55.8210791
  37.6494510  35.4283268  63.2575572  37.3177834  36.2978679  63.0336787
  37.0540123  35.1119552  63.9369602  34.1426029  47.6295814  62.6571484
  33.8426752  48.5320853  62.5487292  33.7977089  47.3627998  63.5092637
  27.5938511  44.0809611  58.6908189  26.6689007  43.9485825  58.8985881
  27.8422924  44.8603831  59.1878131  24.9547322  43.7242885  59.5251978
  25.0839703  43.9777364  60.4391390  24.2744773  44.3170593  59.2056633
  31.6164039  41.5668000  68.2803819  30.8397373  42.1261920  68.2706684
  32.2554602  42.0524783  68.8018689  29.8710411  44.3753454  67.8421786
  30.6125095  44.9138498  67.5656610  29.1647396  45.0019742  67.9993338
  35.3465751  46.5182594  66.4393948  35.7549107  46.0765005  65.6948580
  34.6243012  45.9435222  66.6928140  31.6996821  41.4555201  63.8127504
  32.5458016  41.8794614  63.9562153  31.6395458  40.7988825  64.5066068
  35.6694565  47.0783785  60.1946236  35.0403428  47.2429499  59.4922304
  35.2820227  47.4925394  60.9657200  34.8496266  39.1159569  65.4708678
  34.6057198  39.8701630  64.9342954  35.1256197  39.4944917  66.3055925
  36.8034729  45.6598182  64.1485944  37.0151624  46.3029941  63.4720325
  36.7564477  44.8260498  63.6807874  31.2222527  46.8158193  57.4596322
  31.6860873  47.0945896  56.6700944  30.9579325  45.9141637  57.2769412
  28.1146608  46.3629674  60.3976085  28.6847965  46.7916943  59.7593569
  28.7054720  46.0812259  61.0960270  30.1591413  42.9381345  54.2685887
  30.8615457  43.3902389  54.7359813  29.8272042  42.2965164  54.8965780
  28.6071775  41.5293102  68.6437096  27.9770435  42.2109383  68.8772493
  28.5007863  41.4176183  67.6990234  23.9016747  41.1964898  59.5703020
  23.1115801  41.4522426  59.0943131  24.3927995  42.0113236  59.6755061
  25.8531493  41.5609477  56.5286497  25.0562656  41.6728171  57.0469993
  25.6257085  41.8996129  55.6627387  31.6837160  48.0854180  64.4769012
  31.7481593  48.5474587  65.3127183  30.9748084  47.4551545  64.6051321
  22.1854450  41.4495388  62.0018011  22.4362489  42.3342398  62.2675587
  22.7213999  41.2699990  61.2293103  27.8852517  35.8313868  71.0062347
  27.4919463  35.2780066  71.6809991  28.7018658  36.1424446  71.3968865
  24.8514575  47.2697726  54.9175917  25.3639096  48.0640976  55.0681482
  25.5037288  46.5724016  54.8509518  26.6609460  50.3863482  56.9998670
  26.8376088  51.3081447  56.8119654  27.4566293  50.0721901  57.4293050
  30.8020478  37.2471747  68.5982604  31.5430192  37.8478900  68.5187066
  31.0338401  36.5049384  68.0400646  25.9461816  42.4328114  66.8760833
  25.8315332  41.5313371  67.1767932  25.0906334  42.6791811  66.5245650
  33.0253654  50.3745854  68.4748334  32.5817508  49.5882233  68.1569238
  33.6870868  50.5625005  67.8092225  27.7840775  51.9041656  63.0009012
  28.3348201  51.7758719  62.2286006  26.9452251  52.2036545  62.6503905
  35.1234892  50.6548654  66.5029735  35.1053368  51.4757535  66.0110004
  36.0454812  50.5302729  66.7279876  31.5807946  48.1692784  67.3453244
  32.1136283  47.4081072  67.1152552  31.0522028  47.8766435  68.0877398
  34.7477641  33.2752850  62.8746885  34.4041911  34.1654491  62.7985996
  35.1156604  33.0854507  62.0116470  22.8163492  45.5986380  55.6935487
  23.6538714  46.0083388  55.4769195  22.9941760  44.6585822  55.6635681
  33.8274182  35.6457505  60.8396119  33.3238977  35.6087640  60.0263924
  34.1204789  36.5550247  60.8992775  30.0717068  35.7296234  59.8462300
  30.9370064  35.5339043  59.4868190  30.1394577  35.5006586  60.7731657
  27.6779387  37.9598442  57.2178667  28.2523139  37.7373624  56.4851860
  28.2650369  38.0287137  57.9707268  28.0048974  39.9902903  51.2374552
  27.1686286  40.3277590  51.5583827  27.8653744  39.8551883  50.3001689
  29.9802054  34.8339691  55.9453737  29.3266467  34.5188708  55.3210351
  29.9382529  34.2115432  56.6713559  31.0913259  45.1158986  47.8607029
  30.1840321  44.8848240  48.0598178  31.5884291  44.3196606  48.0481010
  33.2139795  41.3221625  60.2701384  32.2962356  41.5436572  60.1123072
  33.6299938  41.3967935  59.4113092  32.2701493  45.2171581  52.3831019
  31.3612712  44.9330614  52.4803488  32.2996577  45.6370660  51.5234326
  36.5465307  32.5346409  57.9764623  36.8524184  31.6743772  57.6890538
  37.2717912  33.1264029  57.7763617  22.8389663  42.9377095  56.3646221
  22.6414063  42.3446456  55.6397288  22.2836327  42.6329306  57.0822160
  30.8186387  42.8300202  58.4840814  30.8734997  41.8774038  58.4083291
  30.0077589  42.9859641  58.9682112  28.7578747  41.4477262  56.2431193
  27.9446612  41.7471432  56.6496385  29.2537741  41.0532950  56.9605675
  34.3552958  41.9119086  65.0746087  34.7102346  42.1390559  65.9340553
  35.0025090  42.2437463  64.4523342  28.2492821  39.0195617  61.8592428
  28.8892201  38.8784376  61.1615391  27.4170352  38.7330131  61.4831030
  29.0253125  48.3198048  57.9727420  29.8193724  47.8248368  57.7709995
  28.3144818  47.7915911  57.6095126  33.8447970  50.7016143  62.3239788
  33.8984992  51.2707079  63.0917504  32.9762751  50.8718028  61.9593825
  25.3335889  42.4641129  54.0487173  24.4033477  42.4025585  54.2657135
  25.4293361  41.9417082  53.2523814  25.2521438  38.9895942  56.6365415
  25.5128255  39.9041275  56.5274575  26.0738610  38.5220385  56.7862028
  26.7246363  40.4033699  63.8064239  27.3969417  40.1951061  63.1576888
  25.8976150  40.2055785  63.3669472  32.6271935  37.0295640  65.8229900
  31.9799850  37.7285590  65.7294377  33.3972951  37.4631784  66.1906148
  36.0350733  47.2944492  68.8980453  35.8836240  47.0655044  67.9810537
  36.0255413  48.2515094  68.9111798  32.8036070  44.8676405  63.8826720
  33.7328130  45.0187565  63.7095687  32.3827100  44.9560426  63.0275366
  31.6024401  48.8927070  61.6525257  31.4635487  48.5245854  62.5251196
  30.8138998  49.4074709  61.4809215  27.1273861  43.6776302  64.5666676
  26.9893658  42.9456541  65.1678215  28.0378784  43.5885202  64.2850864
  29.7556161  43.3896262  64.0550356  30.4655780  42.7489454  64.0136974
  29.7125469  43.6409156  64.9776537  37.7442940  50.3263615  66.9756935
  37.6855486  49.6422835  66.3087518  38.1462458  51.0682605  66.5237561
  28.4685095  40.3761479  65.8745996  27.9322452  39.9252218  66.5267592
  27.8801804  40.5107388  65.1316460  26.7633639  57.1425529  59.7690654
  27.0030237  57.7744053  60.4469673  25.9202835  56.7913569  60.0556013
  27.8787354  39.8350131  48.4372459  27.0016820  39.7138932  48.0734706
  28.3545107  39.0436209  48.1851348  37.7460347  48.2903199  65.2070915
  36.8587126  47.9529121  65.3297314  38.3158898  47.5586230  65.4439680
  19.3989494  44.6227291  58.5313966  20.0860534  44.3089021  57.9434982
  19.2437623  45.5268655  58.2581218  24.2024216  39.5117487  62.9598990
  24.1182405  38.9043157  62.2249400  23.3806923  40.0026505  62.9608486
  31.2761501  52.9504651  62.1732158  31.2031672  53.7559623  62.6851463
  30.8338894  53.1496617  61.3480180  33.7360184  52.8491485  64.3290317
  34.4488156  53.4838950  64.2566218  33.2450213  52.9455351  63.5130319
  30.9582899  40.1388434  58.0540870  30.5880687  39.5859474  58.7421775
  31.4541991  39.5346567  57.5015870  28.7872098  50.5985929  65.1495888
  29.4881557  51.2322412  65.3025282  28.3167213  50.9400660  64.3891527
  36.8166925  34.9640644  60.4748544  35.9030005  35.1944871  60.6430751
  37.2460026  35.0479088  61.3262576  32.6360957  43.8950347  69.4614475
  31.9601594  43.7944477  70.1316850  33.4588590  43.7389561  69.9250472
  24.3839816  50.1322284  62.0826990  24.9693252  49.3865972  62.2154895
  24.1864654  50.4426240  62.9663654  18.9757470  42.7027884  60.8031433
  19.0141570  42.1691475  61.5968552  18.4697763  42.1763089  60.1842411
  31.3783739  55.2017275  63.6972091  31.9302047  55.3648896  64.4621176
  31.7189933  55.7921712  63.0252116  26.3548233  37.5492424  64.2993976
  26.4189559  38.4107255  63.8871373  26.2915353  36.9366426  63.5666334
  25.8300505  39.6215557  67.9467010  26.4572544  39.2392634  68.5604534
  24.9728424  39.4029759  68.3122703  36.2294614  50.0278532  69.5520745
  36.7734518  50.6408490  69.0575700  35.6481459  50.5858111  70.0687758
  22.6066048  41.4291986  53.8785365  22.9019489  40.5202665  53.8252419
  21.7054084  41.4079726  53.5566367  26.1360295  39.5047983  59.8612913
  25.4146881  40.1183950  59.7220387  26.9253551  40.0405748  59.7829559
  36.5787035  50.9508270  62.3115323  35.6317371  50.8313621  62.2393650
  36.9269808  50.0630768  62.3941585  28.9386608  36.8402409  66.1353565
  29.4621010  37.0864706  66.8979874  28.7198942  37.6722444  65.7156703
  24.3353890  39.1106084  54.0024690  24.0066596  38.2303463  53.8199796
  24.6893260  39.0553752  54.8901079  27.4495713  39.3979054  54.3700168
  27.7891785  39.9264975  53.6478776  27.8967833  39.7359460  55.1458734
  30.1439154  37.7816104  63.8203236  29.8035974  36.9823917  64.2223916
  29.4378160  38.0817815  63.2480069  30.7955625  34.8665417  62.2730559
  31.6181695  34.3925895  62.1509449  31.0393689  35.6455900  62.7729245
  29.4363860  37.8953675  52.5693460  30.1572222  38.2734928  52.0657177
  28.8129164  38.6142552  52.6728438  28.3194204  41.5584537  60.0822537
  28.1738785  41.8724840  60.9746819  27.8419408  42.1769438  59.5293436
  30.1790587  38.5487085  60.1303427  30.1652156  37.6528179  59.7935725
  30.8963015  38.5557749  60.7641713  32.0316718  38.9824426  62.1756554
  31.7734496  39.9041496  62.1740885  31.5001758  38.5854860  62.8657018
  22.7939866  44.0989882  63.0210199  22.2493334  44.8749690  63.1530473
  23.6719216  44.4460686  62.8629320  29.5827483  37.4301466  55.3990997
  29.7043394  36.5018112  55.5981885  29.2929525  37.4440152  54.4869312
  32.4518673  35.1156376  58.5357717  32.4740370  35.1795709  57.5809696
  32.8686732  34.2760885  58.7298223  23.5805888  43.2259778  65.9140355
  22.8387624  43.3742413  66.5004986  23.2598632  43.4868044  65.0507105
  31.5249551  52.7675756  65.7120745  31.8336677  52.5224903  66.5843445
  32.3225033  52.9722395  65.2239616  24.0262502  51.1125207  57.9450750
  24.8520522  50.8128979  57.5649394  23.6756554  50.3432829  58.3940539
  28.9944035  50.4651675  60.0148424  28.3724044  49.8022380  59.7150651
  29.6648902  50.4912807  59.3322071  22.2271107  49.0311533  58.9039684
  21.3903015  48.6033708  58.7223685  22.1994752  49.2243977  59.8410475
  29.0668562  38.9433463  69.6080930  29.1156718  39.8195586  69.2258699
  29.6091077  38.4010856  69.0352573  39.5523408  49.4874586  68.8882067
  38.7618952  49.4698725  68.3486566  39.3156763  50.0262880  69.6431103
  39.6721283  46.3367053  66.2014795  39.7219288  46.1717060  67.1430318
  39.5635207  45.4694312  65.8112676  28.5557542  49.0155598  53.4906884
  28.7045662  49.6991063  52.8373557  29.3623985  48.9960688  54.0056340
  36.9625046  42.3197981  67.5174102  37.8634908  42.1804446  67.2258100
  37.0373020  42.4852435  68.4572279  31.2967851  39.6964835  66.3627288
  30.4271160  39.9898401  66.0909877  31.5327331  40.2805280  67.0834552
  26.3110175  45.0420776  54.4967953  26.0656217  44.1383106  54.6948163
  26.4806089  45.0437926  53.5547431  34.0006885  35.9144452  63.8792709
  34.5188829  36.6505479  63.5539197  33.6462018  36.2208446  64.7139468
  25.5805822  40.7749134  51.9954115  24.8875067  40.8493489  51.3394151
  25.3357574  40.0109477  52.5175631  34.2519479  32.3344735  59.3993605
  34.5321233  31.6667924  60.0254032  35.0370086  32.5273830  58.8868269
  36.1442717  37.8417952  63.3324581  35.5492649  38.1222965  62.6371070
  35.8592413  38.3311853  64.1041322  32.4399746  42.8464542  48.3034684
  33.3858851  42.7170750  48.3723102  32.0613991  42.1079203  48.7804112
  38.4121630  34.5120548  58.2661576  38.2146452  34.2035636  59.1504908
  39.0221336  35.2382186  58.3959506  32.3238438  46.8982288  69.7635341
  33.2441448  47.0760887  69.9575388  32.2888021  45.9538333  69.6115040
  30.6242663  40.7714518  48.2389569  29.7174118  40.4747631  48.3152283
  30.9018644  40.4744336  47.3723856  21.5420603  42.0920881  58.6888616
  21.2223388  41.2386190  58.3962990  20.9954032  42.3069459  59.4446583
  25.3200511  44.8083322  62.4058122  25.5386521  45.7400430  62.4246156
  25.7326285  44.4491297  63.1912926  32.2404729  35.3151408  54.3933811
  31.4305457  34.9698493  54.7689057  32.9289146  35.0058951  54.9821422
  34.1695277  34.3929454  56.0158107  34.7226316  34.8124908  56.6748130
  34.4065363  33.4665203  56.0581063  30.1928376  40.3816528  71.7960871
  30.0925103  41.3310885  71.7272962  29.9749918  40.0534767  70.9236941
  29.3941448  37.6301453  48.3801549  30.2560612  37.9556351  48.6397366
  29.5791792  36.8432949  47.8674614  21.4108863  45.7123793  60.6581737
  20.7172335  45.2977746  60.1451692  22.1581854  45.7544329  60.0615156
  35.9977651  35.9035037  57.7258092  36.4977429  36.0151572  56.9172411
  36.6413258  35.5996090  58.3658900  30.0559646  43.8113667  70.6125933
  29.5726728  44.6114027  70.8189822  30.1420585  43.8221612  69.6593377
  23.3245606  45.6442047  58.5347752  23.3016294  45.7429734  57.5829635
  23.6346242  46.4907197  58.8564918  25.9832984  47.7018202  62.6494367
  26.9376237  47.6702144  62.5824298  25.7845507  47.2408825  63.4644593
  26.5732366  46.2719318  65.2165164  27.3925255  46.7663396  65.2400002
  26.8469174  45.3551286  65.1882732  24.3383213  53.2437821  59.6664564
  24.2037681  52.4838222  59.1002563  23.9215275  53.9678721  59.1993353
  27.4952338  54.1407138  59.8783007  27.3784723  55.0852571  59.7761697
  26.6744785  53.8380700  60.2668806  21.8267280  40.6057452  65.9157361
  22.4726144  40.0956406  66.4044586  21.6184431  41.3426133  66.4900787
  34.3520672  47.6738299  71.4149502  35.2211832  47.8478951  71.0536137
  33.8727424  48.4932716  71.2925231  30.3470891  34.8697496  51.6681258
  30.3349561  35.8139336  51.8249528  31.2394313  34.6867642  51.3740719
  28.5206853  54.7935400  63.0938936  29.4234099  54.8259010  63.4105430
  28.2944223  53.8635851  63.1085271  34.1623010  31.4640273  55.9227194
  33.3955406  30.9098759  56.0683877  34.5733715  31.5362142  56.7841346
  26.1664771  37.7525069  70.0132376  27.0296233  37.3961873  70.2235700
  25.5930182  37.4138963  70.7007780  43.3022637  60.4889205  66.7142507
  43.2911278  60.0942003  65.8423010  43.4643277  59.7555277  67.3076278
  42.4557793  56.8959918  68.2803819  41.6791127  57.4553838  68.2706684
  43.0948356  57.3816701  68.8018689  40.7104165  59.7045371  67.8421786
  41.4518850  60.2430415  67.5656610  40.0041151  60.3311660  67.9993338
  39.4465529  56.8585019  68.6437096  38.8164190  57.5401300  68.8772493
  39.3401617  56.7468101  67.6990234  38.7246272  51.1605785  71.0062347
  38.3313218  50.6071984  71.6809991  39.5412412  51.4716364  71.3968865
  36.7855571  57.7620032  66.8760833  36.6709086  56.8605289  67.1767932
  35.9300089  58.0083728  66.5245650  43.8647409  65.7037772  68.4748334
  43.4211263  64.9174150  68.1569238  44.5264622  65.8916922  67.8092225
  37.5640118  55.7325617  63.8064239  38.2363171  55.5242979  63.1576888
  36.7369904  55.5347703  63.3669472  37.9667615  59.0068220  64.5666676
  37.8287413  58.2748459  65.1678215  38.8772538  58.9177120  64.2850864
  40.5949916  58.7188179  64.0550356  41.3049534  58.0781371  64.0136974
  40.5519224  58.9701074  64.9776537  39.3078850  55.7053397  65.8745996
  38.7716207  55.2544136  66.5267592  38.7195558  55.8399306  65.1316460
  30.2383249  59.9519208  58.5313966  30.9254289  59.6380938  57.9434982
  30.0831377  60.8560573  58.2581218  35.0417971  54.8409405  62.9598990
  34.9576160  54.2335074  62.2249400  34.2200677  55.3318423  62.9608486
  43.4754711  59.2242265  69.4614475  42.7995348  59.1236394  70.1316850
  44.2982345  59.0681479  69.9250472  35.2233570  65.4614201  62.0826990
  35.8087007  64.7157889  62.2154895  35.0258409  65.7718158  62.9663654
  29.8151225  58.0319802  60.8031433  29.8535324  57.4983392  61.5968552
  29.3091518  57.5055007  60.1842411  37.1941987  52.8784342  64.2993976
  37.2583314  53.7399173  63.8871373  37.1309107  52.2658344  63.5666334
  36.6694260  54.9507475  67.9467010  37.2966298  54.5684552  68.5604534
  35.8122179  54.7321677  68.3122703  47.0688368  65.3570450  69.5520745
  47.6128272  65.9700408  69.0575700  46.4875213  65.9150028  70.0687758
  33.6333621  59.4281799  63.0210199  33.0887089  60.2041607  63.1530473
  34.5112971  59.7752604  62.8629320  34.4199643  58.5551696  65.9140355
  33.6781379  58.7034331  66.5004986  34.0992387  58.8159961  65.0507105
  42.3643305  68.0967674  65.7120745  42.6730432  67.8516821  66.5843445
  43.1618787  68.3014312  65.2239616  33.0664861  64.3603451  58.9039684
  32.2296770  63.9325625  58.7223685  33.0388507  64.5535894  59.8410475
  39.9062317  54.2725381  69.6080930  39.9550472  55.1487503  69.2258699
  40.4484831  53.7302774  69.0352573  50.3917163  64.8166504  68.8882067
  49.6012706  64.7990643  68.3486566  50.1550517  65.3554798  69.6431103
  43.1632193  62.2274205  69.7635341  44.0835202  62.4052804  69.9575388
  43.1281776  61.2830251  69.6115040  36.1594265  60.1375240  62.4058122
  36.3780275  61.0692348  62.4246156  36.5720039  59.7783214  63.1912926
  41.0322131  55.7108446  71.7960871  40.9318858  56.6602803  71.7272962
  40.8143673  55.3826685  70.9236941  32.2502618  61.0415710  60.6581737
  31.5566089  60.6269663  60.1451692  32.9975609  61.0836247  60.0615156
  40.8953401  59.1405585  70.6125933  40.4120483  59.9405945  70.8189822
  40.9814340  59.1513529  69.6593377  36.8226738  63.0310119  62.6494367
  37.7769992  62.9994062  62.5824298  36.6239262  62.5700743  63.4644593
  35.1776967  68.5729739  59.6664564  35.0431435  67.8130140  59.1002563
  34.7609029  69.2970639  59.1993353  32.6661035  55.9349369  65.9157361
  33.3119898  55.4248323  66.4044586  32.4578186  56.6718051  66.4900787
  45.1914427  63.0030217  71.4149502  46.0605587  63.1770869  71.0536137
  44.7121178  63.8224634  71.2925231  37.0058526  53.0816986  70.0132376
  37.8689987  52.7253791  70.2235700  36.4323936  52.7430881  70.7007780
  50.8623653  78.6018234  65.6621691  50.5713519  79.5063865  65.5468357
  51.4980637  78.6434762  66.3765760  55.8213538  78.2879650  62.6571484
  55.5214261  79.1904689  62.5487292  55.4764598  78.0211833  63.5092637
  57.3482074  77.7367620  60.1946236  56.7190937  77.9013334  59.4922304
  56.9607736  78.1509230  60.9657200  58.4822238  76.3182017  64.1485944
  58.6939133  76.9613777  63.4720325  58.4351986  75.4844333  63.6807874
  59.5968066  79.1953972  62.3208301  60.4185509  78.7934160  62.0390983
  59.5930469  79.0922206  63.2724417  53.3624669  78.7438016  64.4769012
  53.4269102  79.2058423  65.3127183  52.6535593  78.1135381  64.6051321
  49.5640026  66.4897703  71.0062347  49.1706972  65.9363901  71.6809991
  50.3806167  66.8008281  71.3968865  54.7041163  81.0329690  68.4748334
  54.2605017  80.2466068  68.1569238  55.3658377  81.2208840  67.8092225
  49.4628284  82.5625491  63.0009012  50.0135710  82.4342555  62.2286006
  48.6239760  82.8620380  62.6503905  56.8022401  81.3132490  66.5029735
  56.7840877  82.1341371  66.0110004  57.7242321  81.1886565  66.7279876
  59.6041014  76.1511632  59.9739102  58.9464689  76.8410893  60.0619231
  60.4081413  76.5408064  60.3173088  57.6241208  81.3238503  57.0872004
  57.9164183  81.8843560  56.3684370  58.1339829  81.6167064  57.8425164
  52.5874834  82.1018854  58.1765458  52.5451012  82.3279700  57.2473990
  53.5037532  81.8682228  58.3251259  55.5235479  81.3599978  62.3239788
  55.5772501  81.9290915  63.0917504  54.6550260  81.5301863  61.9593825
  53.2811910  79.5510905  61.6525257  53.1422996  79.1829689  62.5251196
  52.4926507  80.0658544  61.4809215  53.8760062  84.6520001  52.9950794
  54.0511818  84.1808045  53.8096417  53.1892850  85.2785768  53.2232055
  54.8317126  78.9292508  59.0414095  54.4966958  78.8893278  59.9371745
  54.3321071  78.2637224  58.5684505  59.4230449  80.9847450  66.9756935
  59.3642995  80.3006670  66.3087518  59.8249967  81.7266440  66.5237561
  59.4247856  78.9487034  65.2070915  58.5374635  78.6112956  65.3297314
  59.9946407  78.2170065  65.4439680  52.9549009  83.6088487  62.1732158
  52.8819181  84.4143458  62.6851463  52.5126403  83.8080452  61.3480180
  52.7438789  82.8460257  55.6834980  51.9606311  83.3881937  55.7773204
  53.4431534  83.3634236  56.0829221  55.4147693  83.5075321  64.3290317
  56.1275665  84.1422785  64.2566218  54.9237722  83.6039187  63.5130319
  50.4659607  81.2569764  65.1495888  51.1669066  81.8906247  65.3025282
  49.9954722  81.5984496  64.3891527  58.2660893  73.8114372  62.9748438
  57.6132343  74.0590279  62.3200891  58.6441272  72.9978510  62.6410915
  55.2268066  83.8474065  57.0776608  55.4090461  83.0295721  57.5404361
  56.0501052  84.0641757  56.6401498  55.5610232  82.7742250  54.3391657
  56.0897998  82.2634704  53.7261819  55.8238451  82.4584780  55.2037190
  53.0571248  85.8601110  63.6972091  53.6089556  86.0232732  64.4621176
  53.3977442  86.4505548  63.0252116  57.9082123  80.6862368  69.5520745
  58.4522027  81.2992326  69.0575700  57.3268968  81.2441946  70.0687758
  56.1939636  83.8083086  60.6835773  56.0690775  83.0072825  60.1746719
  56.8518727  84.3029279  60.1949743  58.2574544  81.6092106  62.3115323
  57.3104880  81.4897457  62.2393650  58.6057317  80.7214604  62.3941585
  55.2620977  81.4044822  58.5119676  55.1145940  80.4761529  58.6927246
  56.0874471  81.4264913  58.0276751  58.8655099  82.2273381  59.5984548
  59.7901647  82.0216242  59.4608999  58.6970403  81.9789782  60.5073890
  53.2037060  83.4259592  65.7120745  53.5124186  83.1808738  66.5843445
  54.0012542  83.6306230  65.2239616  50.6731544  81.1235510  60.0148424
  50.0511553  80.4606215  59.7150651  51.3436411  81.1496642  59.3322071
  61.2310917  80.1458422  68.8882067  60.4406461  80.1282560  68.3486566
  60.9944272  80.6846715  69.6431103  61.3508792  76.9950888  66.2014795
  61.4006797  76.8300895  67.1430318  61.2422715  76.1278147  65.8112676
  62.8526989  79.4147829  66.4456817  62.5611797  79.7777810  67.2820278
  62.2399120  78.7014838  66.2670149  61.1014177  74.5380444  64.9136875
  61.5768299  74.7308090  64.1055726  60.1779743  74.5939630  64.6680258
  50.1994362  85.4519235  63.0938936  51.1021608  85.4842846  63.4105430
  49.9731732  84.5219686  63.1085271  67.6900657  90.0410760  60.8194777
  68.3279067  89.9217508  60.1158117  67.5721500  90.9891604  60.8782729
  64.4990363  89.9938188  60.7556301  64.1608875  89.8779253  59.8676836
  65.3680132  89.5929354  60.7357307  60.3577179  91.8473665  56.7453192
  59.7942044  91.7563602  55.9769480  60.2429574  91.0273569  57.2255685
  64.9810146  91.1473040  66.7142507  64.9698787  90.7525838  65.8423010
  65.1430786  90.4139113  67.3076278  57.9041611  93.3424856  59.5837413
  58.6962903  93.0015681  59.1683712  58.1438261  93.4519831  60.5039566
  65.9376738  95.5144633  52.0567657  65.2864718  96.0998713  51.6701671
  66.7321101  96.0450827  52.1162695  59.8632365  92.6033770  52.4554791
  60.6363241  92.0562757  52.3167667  60.2157764  93.4678019  52.6669253
  61.7017408  93.9310152  65.6621691  61.4107273  94.8355783  65.5468357
  62.3374392  93.9726680  66.3765760  62.6273614  91.3087000  62.2523050
  63.2237187  91.0843023  61.5380013  62.6848586  90.5671746  62.8548498
  62.1998643  88.7626436  50.0873241  62.4524163  88.2407957  49.3256704
  61.2623202  88.5992581  50.1899925  67.2441926  87.7662214  57.8947985
  68.0305015  87.3481637  57.5438402  67.5080630  88.6708306  58.0629633
  67.4152003  93.2035064  52.5936641  66.7797836  93.2769691  53.3057546
  67.0849409  93.7928663  51.9155721  72.6450353  87.7037447  58.7980963
  73.3775525  87.1336664  59.0318793  71.8889708  87.3159048  59.2387469
  61.9194932  90.6654542  52.2897616  61.8031190  89.9899445  52.9578701
  62.0297191  90.1786916  51.4729769  64.2626472  90.1264689  55.9944306
  63.8984680  89.5995310  56.7057227  65.1193588  89.7363158  55.8210791
  70.1675773  81.4159021  63.2575572  69.8359098  82.2854432  63.0336787
  69.5721386  81.0995305  63.9369602  66.6607293  93.6171567  62.6571484
  66.3608016  94.5196606  62.5487292  66.3158352  93.3503751  63.5092637
  60.1119774  90.0685364  58.6908189  59.1870271  89.9361578  58.8985881
  60.3604187  90.8479584  59.1878131  70.0604436  86.1354108  60.3368922
  69.1521314  86.0669516  60.0427683  70.0092032  86.6126053  61.1650747
  63.8821180  87.6112246  51.9752321  63.7620805  88.0569297  52.8137801
  63.1873769  87.9597564  51.4165859  57.4728585  89.7118638  59.5251978
  57.6020966  89.9653117  60.4391390  56.7926036  90.3046346  59.2056633
  61.6428072 100.3815888  55.6242452  61.5652102 101.3323713  55.7030933
  61.0389716 100.0361760  56.2817378  64.1345302  87.5543753  68.2803819
  63.3578636  88.1137673  68.2706684  64.7735865  88.0400536  68.8018689
  71.9266083  84.3370546  62.1146796  71.2840463  84.6303079  61.4686590
  71.4221011  84.2223466  62.9199992  69.5806246  88.0833719  52.8032655
  70.4924103  88.3161106  52.6280352  69.0715894  88.6670763  52.2407734
  62.3891674  90.3629207  67.8421786  63.1306359  90.9014251  67.5656610
  61.6828660  90.9895495  67.9993338  67.8647014  92.5058347  66.4393948
  68.2730370  92.0640758  65.6948580  67.1424276  91.9310975  66.6928140
  64.2178084  87.4430954  63.8127504  65.0639279  87.8670367  63.9562153
  64.1576722  86.7864578  64.5066068  68.1875829  93.0659538  60.1946236
  67.5584691  93.2305252  59.4922304  67.8001491  93.4801147  60.9657200
  72.0665061  94.0013976  57.5490600  71.3816099  94.3812877  56.9987633
  72.1508910  94.6109302  58.2822548  67.3677529  85.1035322  65.4708678
  67.1238461  85.8577383  64.9342954  67.6437460  85.4820670  66.3055925
  69.3215992  91.6473935  64.1485944  69.5332888  92.2905694  63.4720325
  69.2745741  90.8136251  63.6807874  66.9242221  84.2591755  61.0522516
  66.0626700  84.5573009  61.3439253  66.9504656  84.4762154  60.1203548
  63.7403791  92.8033946  57.4596322  64.2042136  93.0821649  56.6700944
  63.4760589  91.9017390  57.2769412  60.6327872  92.3505427  60.3976085
  61.2029229  92.7792696  59.7593569  61.2235984  92.0688012  61.0960270
  62.6772677  88.9257098  54.2685887  63.3796720  89.3778142  54.7359813
  62.3453305  88.2840917  54.8965780  61.1253038  87.5168855  68.6437096
  60.4951699  88.1985136  68.8772493  61.0189126  87.4051936  67.6990234
  56.4198011  87.1840651  59.5703020  55.6297065  87.4398179  59.0943131
  56.9109258  87.9988989  59.6755061  70.4361820  94.5245890  62.3208301
  71.2579264  94.1226077  62.0390983  70.4324223  94.4214124  63.2724417
  58.3712756  87.5485230  56.5286497  57.5743919  87.6603924  57.0469993
  58.1438348  87.8871882  55.6627387  64.2018424  94.0729933  64.4769012
  64.2662856  94.5350341  65.3127183  63.4929348  93.4427298  64.6051321
  54.7035714  87.4371141  62.0018011  54.9543752  88.3218151  62.2675587
  55.2395262  87.2575743  61.2293103  78.5267813  90.8684638  58.6693273
  77.7731522  90.2992037  58.5137277  78.6615354  90.8347303  59.6163907
  63.9166441  95.7398041  54.3447992  63.7812116  96.5849576  54.7732840
  64.4576254  95.9417318  53.5813926  60.4033781  81.8189621  71.0062347
  60.0100727  81.2655819  71.6809991  61.2199921  82.1300199  71.3968865
  57.3695839  93.2573479  54.9175917  57.8820359  94.0516729  55.0681482
  58.0218552  92.5599769  54.8509518  59.1790723  96.3739235  56.9998670
  59.3557352  97.2957200  56.8119654  59.9747557  96.0597654  57.4293050
  63.3201742  83.2347500  68.5982604  64.0611455  83.8354653  68.5187066
  63.5519665  82.4925137  68.0400646  58.4643080  88.4203867  66.8760833
  58.3496595  87.5189124  67.1767932  57.6087598  88.6667564  66.5245650
  65.5434918  96.3621607  68.4748334  65.0998772  95.5757986  68.1569238
  66.2052131  96.5500758  67.8092225  60.3022039  97.8917409  63.0009012
  60.8529464  97.7634472  62.2286006  59.4633515  98.1912298  62.6503905
  67.6416156  96.6424407  66.5029735  67.6234631  97.4633288  66.0110004
  68.5636076  96.5178482  66.7279876  64.0989210  94.1568537  67.3453244
  64.6317547  93.3956825  67.1152552  63.5703291  93.8642188  68.0877398
  55.3344755  91.5862133  55.6935487  56.1719977  91.9959141  55.4769195
  55.5123023  90.6461575  55.6635681  67.2309188  89.2537214  51.3819320
  66.7155811  90.0241818  51.6207708  66.9586496  88.5802350  52.0052382
  64.8156299  84.0986915  56.4404559  63.9597895  83.7093765  56.2610198
  65.2283250  84.1778875  55.5804344  62.5898331  81.7171988  59.8462300
  63.4551328  81.5214796  59.4868190  62.6575840  81.4882339  60.7731657
  72.2043462  92.0069568  53.3172494  71.4272905  91.6680728  52.8727656
  72.8834943  92.0122192  52.6427459  67.0195491  87.1264306  53.2079102
  66.7145626  87.4410455  54.0589245  67.9725933  87.2045726  53.2506435
  65.4641923  93.2854529  54.8572056  64.9363284  92.5507289  54.5445293
  64.9629425  94.0629206  54.6112024  70.4434769  91.4803550  59.9739102
  69.7858443  92.1702811  60.0619231  71.2475168  91.8699982  60.3173088
  60.1960650  83.9474195  57.2178667  60.7704402  83.7249377  56.4851860
  60.7831633  84.0162890  57.9707268  69.2540227  89.8347922  58.0243044
  69.7672109  90.4677914  58.5264753  69.9041451  89.2349118  57.6586404
  63.6094523  91.1034739  47.8607029  62.7021585  90.8723993  48.0598178
  64.1065555  90.3072359  48.0481010  66.5162602  99.8132247  50.7803715
  65.8424300 100.1163943  51.3888673  66.9028424 100.6161327  50.4309172
  65.7321058  87.3097378  60.2701384  64.8143620  87.5312325  60.1123072
  66.1481202  87.3843688  59.4113092  66.5156106  88.7088794  55.4004064
  67.2627925  89.2210191  55.0911186  66.7847696  88.3872846  56.2608458
  64.7882756  91.2047334  52.3831019  63.8793976  90.9206367  52.4803488
  64.8177840  91.6246413  51.5234326  70.0202024  94.8153924  56.1522186
  69.5664351  93.9744834  56.2087377  69.3895990  95.4515322  56.4896966
  68.9634943  85.7445910  57.3822854  68.2257700  85.2323296  57.7133096
  69.2161717  85.3046291  56.5706131  68.4634963  96.6530420  57.0872004
  68.7557937  97.2135478  56.3684370  68.9733583  96.9458981  57.8425164
  55.3570927  88.9252848  56.3646221  55.1595326  88.3322209  55.6397288
  54.8017591  88.6205059  57.0822160  63.3367650  88.8175955  58.4840814
  63.3916260  87.8649791  58.4083291  62.5258852  88.9735394  58.9682112
  64.4858844  92.7456078  49.7219097  64.0478274  92.0291937  49.2624735
  65.2269285  92.9732193  49.1604189  61.2760010  87.4353015  56.2431193
  60.4627876  87.7347185  56.6496385  61.7719004  87.0408703  56.9605675
  63.4268588  97.4310772  58.1765458  63.3844767  97.6571618  57.2473990
  64.3431287  97.1974146  58.3251259  66.8734222  87.8994839  65.0746087
  67.2283610  88.1266312  65.9340553  67.5206353  88.2313216  64.4523342
  72.6031959  91.0213275  55.7795416  72.4649857  91.2114871  54.8516605
  72.2468178  91.7832658  56.2363467  60.7674085  85.0071370  61.8592428
  61.4073464  84.8660129  61.1615391  59.9351616  84.7205884  61.4831030
  72.6301338  93.0889802  60.7906687  73.0637845  92.9965091  61.6389741
  73.3432919  93.0647302  60.1526703  61.5434389  94.3073801  57.9727420
  62.3374987  93.8124121  57.7709995  60.8326081  93.7791664  57.6095126
  66.3629233  96.6891896  62.3239788  66.4166256  97.2582832  63.0917504
  65.4944015  96.8593781  61.9593825  57.8517152  88.4516882  54.0487173
  56.9214740  88.3901338  54.2657135  57.9474624  87.9292835  53.2523814
  57.7702701  84.9771695  56.6365415  58.0309519  85.8917028  56.5274575
  58.5919874  84.5096138  56.7862028  59.2427627  86.3909452  63.8064239
  59.9150680  86.1826814  63.1576888  58.4157413  86.1931538  63.3669472
  73.4916888  93.1313503  63.3239573  73.6852778  94.0359313  63.5698848
  73.3917506  92.6720922  64.1578158  65.1453199  83.0171393  65.8229900
  64.4981114  83.7161343  65.7294377  65.9154214  83.4507537  66.1906148
  68.5531997  93.2820245  68.8980453  68.4017503  93.0530797  67.9810537
  68.5436676  94.2390847  68.9111798  65.3217333  90.8552158  63.8826720
  66.2509393  91.0063318  63.7095687  64.9008363  90.9436179  63.0275366
  64.1205665  94.8802823  61.6525257  63.9816751  94.5121607  62.5251196
  63.3320261  95.3950462  61.4809215  64.7153817  99.9811919  52.9950794
  64.8905573  99.5099962  53.8096417  64.0286605 100.6077685  53.2232055
  65.6710880  94.2584425  59.0414095  65.3360713  94.2185195  59.9371745
  65.1714826  93.5929141  58.5684505  59.6455124  89.6652055  64.5666676
  59.5074922  88.9332294  65.1678215  60.5560047  89.5760955  64.2850864
  68.6070072  91.6040460  49.3151155  67.9899242  90.8787288  49.2184208
  68.1386560  92.3649820  48.9718229  62.2737425  89.3772015  64.0550356
  62.9837043  88.7365207  64.0136974  62.2306733  89.6284909  64.9776537
  70.2624203  96.3139368  66.9756935  70.2036749  95.6298588  66.3087518
  70.6643722  97.0558358  66.5237561  60.9866359  86.3637233  65.8745996
  60.4503716  85.9127971  66.5267592  60.3983067  86.4983141  65.1316460
  59.2814902 103.1301282  59.7690654  59.5211500 103.7619806  60.4469673
  58.4384099 102.7789322  60.0556013  70.2641611  94.2778952  65.2070915
  69.3768389  93.9404874  65.3297314  70.8340162  93.5461983  65.4439680
  51.9170758  90.6103044  58.5313966  52.6041798  90.2964774  57.9434982
  51.7618886  91.5144408  58.2581218  56.7205480  85.4993240  62.9598990
  56.6363669  84.8918910  62.2249400  55.8988186  85.9902259  62.9608486
  63.7942764  98.9380404  62.1732158  63.7212935  99.7435376  62.6851463
  63.3520157  99.1372370  61.3480180  63.5832544  98.1752174  55.6834980
  62.8000065  98.7173854  55.7773204  64.2825289  98.6926154  56.0829221
  66.8929194  83.9846804  58.3269185  67.3897893  83.2316766  58.0070255
  66.1216175  84.0211120  57.7612394  74.7458951  89.6887169  59.9687477
  74.7348827  90.5711885  59.5981410  73.8776331  89.3358720  59.7742014
  66.2541448  98.8367238  64.3290317  66.9669420  99.4714703  64.2566218
  65.7631476  98.9331104  63.5130319  67.9758974  92.7418491  55.9007608
  67.0415253  92.8619953  55.7312313  68.1535643  91.8390958  55.6367618
  63.4764162  86.1264187  58.0540870  63.1061950  85.5735227  58.7421775
  63.9723255  85.5222320  57.5015870  71.3631526  88.5835810  56.4357643
  71.8291978  89.4163802  56.3617945  71.8139026  88.1180792  57.1402901
  61.3053361  96.5861682  65.1495888  62.0062821  97.2198165  65.3025282
  60.8348476  96.9276413  64.3891527  69.4307757  94.9279632  53.4343795
  69.7067601  94.8136226  54.3437669  68.5612256  94.5297116  53.3955968
  69.3348189  80.9516397  60.4748544  68.4211268  81.1820624  60.6430751
  69.7641290  81.0354841  61.3262576  69.1054647  89.1406289  62.9748438
  68.4526097  89.3882197  62.3200891  69.4835027  88.3270427  62.6410915
  66.0661821  99.1765982  57.0776608  66.2484215  98.3587638  57.5404361
  66.8894807  99.3933675  56.6401498  66.4003986  98.1034168  54.3391657
  66.9291753  97.5926622  53.7261819  66.6632206  97.7876698  55.2037190
  65.1542220  89.8826100  69.4614475  64.4782857  89.7820230  70.1316850
  65.9769854  89.7265314  69.9250472  56.9021079  96.1198037  62.0826990
  57.4874516  95.3741725  62.2154895  56.7045918  96.4301994  62.9663654
  59.7559734  99.1549284  57.0989433  59.0870110  99.6395412  56.6153473
  59.6172604  99.4018505  58.0132811  51.4938734  88.6903637  60.8031433
  51.5322833  88.1567228  61.5968552  50.9879027  88.1638843  60.1842411
  63.8965003 101.1893028  63.6972091  64.4483311 101.3524649  64.4621176
  64.2371196 101.7797466  63.0252116  58.8729496  83.5368178  64.2993976
  58.9370823  84.3983008  63.8871373  58.8096616  82.9242179  63.5666334
  58.3481769  85.6091310  67.9467010  58.9753807  85.2268387  68.5604534
  57.4909688  85.3905512  68.3122703  68.7475877  96.0154285  69.5520745
  69.2915781  96.6284243  69.0575700  68.1662722  96.5733864  70.0687758
  55.1247311  87.4167739  53.8785365  55.4200752  86.5078418  53.8252419
  54.2235347  87.3955479  53.5566367  67.0333390  99.1375003  60.6835773
  66.9084530  98.3364743  60.1746719  67.6912481  99.6321197  60.1949743
  58.6541558  85.4923736  59.8612913  57.9328144  86.1059703  59.7220387
  59.4434814  86.0281501  59.7829559  69.0968299  96.9384023  62.3115323
  68.1498634  96.8189374  62.2393650  69.4451072  96.0506521  62.3941585
  61.4567872  82.8278162  66.1353565  61.9802274  83.0740459  66.8979874
  61.2380205  83.6598197  65.7156703  56.8535153  85.0981837  54.0024690
  56.5247859  84.2179216  53.8199796  57.2074524  85.0429506  54.8901079
  66.1014732  96.7336740  58.5119676  65.9539694  95.8053447  58.6927246
  66.9268225  96.7556830  58.0276751  59.9676976  85.3854807  54.3700168
  60.3073049  85.9140728  53.6478776  60.4149097  85.7235213  55.1458734
  69.7048854  97.5565298  59.5984548  70.6295401  97.3508160  59.4608999
  69.5364157  97.3081699  60.5073890  62.6620417  83.7691857  63.8203236
  62.3217237  82.9699670  64.2223916  61.9559423  84.0693568  63.2480069
  63.3136889  80.8541170  62.2730559  64.1362958  80.3801648  62.1509449
  63.5574952  81.6331654  62.7729245  60.8375468  87.5460290  60.0822537
  60.6920048  87.8600593  60.9746819  60.3600671  88.1645191  59.5293436
  62.6971850  84.5362838  60.1303427  62.6833419  83.6403932  59.7935725
  63.4144279  84.5433502  60.7641713  64.5497981  84.9700179  62.1756554
  64.2915759  85.8917249  62.1740885  64.0183022  84.5730613  62.8657018
  69.4944170  98.0750966  54.9546640  69.6681047  97.5097388  54.2020492
  69.9873061  98.8751861  54.7726130  55.3121130  90.0865635  63.0210199
  54.7674598  90.8625443  63.1530473  56.1900480  90.4336439  62.8629320
  75.3483561  90.8387389  56.5736939  75.7914707  90.0894714  56.1756063
  74.4710071  90.8297525  56.1910671  70.4819342  97.3917730  52.0543538
  71.1770247  98.0124423  52.2730853  70.8242493  96.5413081  52.3295916
  56.0987152  89.2135531  65.9140355  55.3568888  89.3618166  66.5004986
  55.7779896  89.4743797  65.0507105  72.3810766  94.8417436  53.5830869
  72.9062090  95.1804708  52.8580189  72.2933118  93.9064451  53.3994003
  64.0430814  98.7551509  65.7120745  64.3517941  98.5100656  66.5843445
  64.8406296  98.9598148  65.2239616  64.0651426 100.9089419  57.9426122
  63.6256417 100.4165798  58.6358979  64.8159543 100.3662387  57.7018197
  56.5443765  97.1000960  57.9450750  57.3701785  96.8004732  57.5649394
  56.1937817  96.3308582  58.3940539  61.5125298  96.4527428  60.0148424
  60.8905308  95.7898133  59.7150651  62.1830165  96.4788560  59.3322071
  54.7452370  95.0187286  58.9039684  53.9084279  94.5909461  58.7223685
  54.7176016  95.2119730  59.8410475  61.5849826  84.9309216  69.6080930
  61.6337981  85.8071339  69.2258699  62.1272340  84.3886609  69.0352573
  72.0704672  95.4750339  68.8882067  71.2800215  95.4574478  68.3486566
  71.8338026  96.0138633  69.6431103  72.1902547  92.3242806  66.2014795
  72.2400552  92.1592813  67.1430318  72.0816470  91.4570065  65.8112676
  61.0738805  95.0031351  53.4906884  61.2226926  95.6866816  52.8373557
  61.8805249  94.9836441  54.0056340  69.4806309  88.3073734  67.5174102
  70.3816172  88.1680199  67.2258100  69.5554284  88.4728189  68.4572279
  63.8149114  85.6840588  66.3627288  62.9452424  85.9774154  66.0909877
  64.0508595  86.2681033  67.0834552  73.6920743  94.7439747  66.4456817
  73.4005552  95.1069728  67.2820278  73.0792875  94.0306755  66.2670149
  74.8916426  92.3092627  58.9659387  75.7263317  92.7482431  59.1296947
  75.0275555  91.8331280  58.1467633  71.9407932  89.8672362  64.9136875
  72.4162053  90.0600008  64.1055726  71.0173497  89.9231548  64.6680258
  58.8291438  91.0296529  54.4967953  58.5837480  90.1258859  54.6948163
  58.9987353  91.0313679  53.5547431  66.5188148  81.9020205  63.8792709
  67.0370092  82.6381232  63.5539197  66.1643281  82.2084199  64.7139468
  64.5734211  97.4979482  50.9618632  64.0008178  98.1169669  50.5089103
  65.1467005  98.0478843  51.4958554  70.6409601  86.7438122  63.1465180
  71.5927024  86.8436220  63.1677404  70.4713051  85.9516390  63.6563265
  68.6623980  83.8293705  63.3324581  68.0673912  84.1098718  62.6371070
  68.3773677  84.3187606  64.1041322  67.7931471  97.7816632  52.0927214
  68.7262144  97.7162194  52.2960089  67.7054683  98.6172899  51.6341747
  70.4219487  97.0982502  49.0531161  70.3433119  96.7642366  49.9466919
  71.2429154  97.5904270  49.0522634  73.1197678  89.9644242  62.2607480
  73.0873999  89.0260242  62.4467164  73.7298302  90.0428278  61.5273305
  73.2692167  86.7555285  62.3065763  72.7531216  85.9713742  62.1195692
  74.1532116  86.4274002  62.4712283  78.9374228  91.0260248  61.4013517
  79.6677617  90.7645537  61.9621220  78.3281174  90.2888970  61.4415585
  77.0189525  89.1668111  61.9987968  76.2922689  89.0324076  61.3904460
  76.6036812  89.4744940  62.8044686  64.8419702  92.8858041  69.7635341
  65.7622711  93.0636640  69.9575388  64.8069285  91.9414086  69.6115040
  54.0601867  88.0796634  58.6888616  53.7404651  87.2261943  58.3962990
  53.5135295  88.2945212  59.4446583  57.8381774  90.7959075  62.4058122
  58.0567784  91.7276183  62.4246156  58.2507548  90.4367050  63.1912926
  62.7109640  86.3692281  71.7960871  62.6106367  87.3186638  71.7272962
  62.4931182  86.0410520  70.9236941  53.9290127  91.6999546  60.6581737
  53.2353598  91.2853499  60.1451692  54.6763118  91.7420082  60.0615156
  62.5740910  89.7989420  70.6125933  62.0907992  90.5989780  70.8189822
  62.6601849  89.8097365  69.6593377  55.8426869  91.6317800  58.5347752
  55.8197558  91.7305487  57.5829635  56.1527506  92.4782950  58.8564918
  58.5014247  93.6893955  62.6494367  59.4557501  93.6577897  62.5824298
  58.3026771  93.2284578  63.4644593  59.0913629  92.2595071  65.2165164
  59.9106518  92.7539149  65.2400002  59.3650437  91.3427039  65.1882732
  72.1994762  84.6752344  58.2947459  72.9755152  85.1648796  58.5672076
  71.4742896  85.1010398  58.7519329  74.6367320  85.3879963  59.3521400
  75.2311811  85.1475699  58.6414708  74.7093904  84.6687094  59.9794936
  56.8564476  99.2313574  59.6664564  56.7218944  98.4713975  59.1002563
  56.4396538  99.9554474  59.1993353  67.9923439  94.4150498  48.6741140
  68.6959289  94.6200500  49.2898795  67.2686088  94.9827260  48.9390223
  68.8221249  90.1660359  54.7943410  68.7656451  90.6228910  53.9551042
  69.3749592  89.4051044  54.6166253  76.9438393  88.6946164  58.1264821
  76.3837951  88.7639353  58.8996383  76.3381897  88.5187149  57.4064317
  60.0133602 100.1282891  59.8783007  59.8965986 101.0728324  59.7761697
  59.1926048  99.8256453  60.2668806  69.9010136  94.8533027  50.7239600
  70.7355740  94.4214225  50.5417075  69.7394479  94.6815041  51.6516494
  69.5556029  91.3565140  52.0895939  69.5004832  91.1909412  51.1484383
  68.9302084  92.0641173  52.2458129  54.3448544  86.5933205  65.9157361
  54.9907407  86.0832159  66.4044586  54.1365695  87.3301886  66.4900787
  66.8701936  93.6614052  71.4149502  67.7393095  93.8354704  71.0536137
  66.3908687  94.4808469  71.2925231  61.0388116 100.7811153  63.0938936
  61.9415363 100.8134763  63.4105430  60.8125486  99.8511604  63.1085271
  62.7941718  99.5342140  59.7549014  61.8437349  99.5344001  59.6413386
  63.0974204  98.7874874  59.2385049  58.6846035  83.7400822  70.0132376
  59.5477496  83.3837626  70.2235700  58.1111445  83.4014716  70.7007780
  78.5294412 105.3702678  60.8194777  79.1672822 105.2509425  60.1158117
  78.4115254 106.3183522  60.8782729  75.3384118 105.3230106  60.7556301
  75.0002629 105.2071171  59.8676836  76.2073886 104.9221271  60.7357307
  71.1970934 107.1765583  56.7453192  70.6335799 107.0855519  55.9769480
  71.0823329 106.3565487  57.2255685  75.8203901 106.4764958  66.7142507
  75.8092542 106.0817756  65.8423010  75.9824540 105.7431030  67.3076278
  68.7435366 108.6716774  59.5837413  69.5356657 108.3307599  59.1683712
  68.9832016 108.7811749  60.5039566  76.7770492 110.8436550  52.0567657
  76.1258472 111.4290631  51.6701671  77.5714855 111.3742745  52.1162695
  70.7026119 107.9325687  52.4554791  71.4756995 107.3854674  52.3167667
  71.0551518 108.7969937  52.6669253  72.5411162 109.2602070  65.6621691
  72.2501028 110.1647700  65.5468357  73.1768146 109.3018597  66.3765760
  73.4667369 106.6378918  62.2523050  74.0630941 106.4134941  61.5380013
  73.5242340 105.8963664  62.8548498  73.0392397 104.0918353  50.0873241
  73.2917918 103.5699875  49.3256704  72.1016956 103.9284499  50.1899925
  78.0835680 103.0954132  57.8947985  78.8698769 102.6773555  57.5438402
  78.3474384 104.0000224  58.0629633  78.2545757 108.5326982  52.5936641
  77.6191590 108.6061609  53.3057546  77.9243164 109.1220581  51.9155721
  83.4844107 103.0329365  58.7980963  84.2169279 102.4628582  59.0318793
  82.7283463 102.6450965  59.2387469  72.7588686 105.9946459  52.2897616
  72.6424944 105.3191363  52.9578701  72.8690946 105.5078833  51.4729769
  75.1020227 105.4556607  55.9944306  74.7378434 104.9287228  56.7057227
  75.9587343 105.0655076  55.8210791  81.0069528  96.7450939  63.2575572
  80.6752852  97.6146350  63.0336787  80.4115141  96.4287223  63.9369602
  74.7425714 100.4846506  50.9905654  74.9100116 101.3526743  51.3576125
  74.5522883 100.6473788  50.0666943  77.5001047 108.9463485  62.6571484
  77.2001770 109.8488524  62.5487292  77.1552107 108.6795668  63.5092637
  70.9513529 105.3977282  58.6908189  70.0264025 105.2653496  58.8985881
  71.1997942 106.1771501  59.1878131  80.8998191 101.4646025  60.3368922
  79.9915068 101.3961434  60.0427683  80.8485787 101.9417970  61.1650747
  74.7214935 102.9404164  51.9752321  74.6014560 103.3861214  52.8137801
  74.0267523 103.2889481  51.4165859  68.3122340 105.0410556  59.5251978
  68.4414721 105.2945034  60.4391390  67.6319791 105.6338264  59.2056633
  72.4821827 115.7107805  55.6242452  72.4045857 116.6615631  55.7030933
  71.8783470 115.3653678  56.2817378  74.9739057 102.8835671  68.2803819
  74.1972391 103.4429591  68.2706684  75.6129620 103.3692454  68.8018689
  82.7659837  99.6662464  62.1146796  82.1234218  99.9594997  61.4686590
  82.2614766  99.5515384  62.9199992  80.4200001 103.4125637  52.8032655
  81.3317857 103.6453024  52.6280352  79.9109648 103.9962681  52.2407734
  73.2285429 105.6921124  67.8421786  73.9700113 106.2306168  67.5656610
  72.5222414 106.3187413  67.9993338  78.7040769 107.8350265  66.4393948
  79.1124125 107.3932675  65.6948580  77.9818030 107.2602892  66.6928140
  75.0571839 102.7722872  63.8127504  75.9033034 103.1962285  63.9562153
  74.9970476 102.1156496  64.5066068  79.0269583 108.3951455  60.1946236
  78.3978446 108.5597169  59.4922304  78.6395245 108.8093065  60.9657200
  82.9058815 109.3305893  57.5490600  82.2209853 109.7104795  56.9987633
  82.9902664 109.9401220  58.2822548  78.2071284 100.4327240  65.4708678
  77.9632216 101.1869300  64.9342954  78.4831214 100.8112587  66.3055925
  80.1609747 106.9765852  64.1485944  80.3726642 107.6197612  63.4720325
  80.1139495 106.1428169  63.6807874  77.7635976  99.5883673  61.0522516
  76.9020455  99.8864926  61.3439253  77.7898410  99.8054072  60.1203548
  74.5797545 108.1325863  57.4596322  75.0435891 108.4113566  56.6700944
  74.3154343 107.2309308  57.2769412  71.4721626 107.6797345  60.3976085
  72.0422983 108.1084613  59.7593569  72.0629738 107.3979930  61.0960270
  73.5166431 104.2549016  54.2685887  74.2190475 104.7070059  54.7359813
  73.1847060 103.6132835  54.8965780  71.9646793 102.8460772  68.6437096
  71.3345453 103.5277053  68.8772493  71.8582881 102.7343854  67.6990234
  67.2591765 102.5132568  59.5703020  66.4690819 102.7690097  59.0943131
  67.7503013 103.3280906  59.6755061  81.2755575 109.8537808  62.3208301
  82.0973018 109.4517995  62.0390983  81.2717978 109.7506042  63.2724417
  69.2106511 102.8777148  56.5286497  68.4137674 102.9895842  57.0469993
  68.9832103 103.2163800  55.6627387  75.0412178 109.4021851  64.4769012
  75.1056611 109.8642258  65.3127183  74.3323102 108.7719216  64.6051321
  65.5429468 102.7663059  62.0018011  65.7937507 103.6510069  62.2675587
  66.0789017 102.5867660  61.2293103  89.3661568 106.1976556  58.6693273
  88.6125276 105.6283954  58.5137277  89.5009109 106.1639221  59.6163907
  74.7560196 111.0689958  54.3447992  74.6205871 111.9141494  54.7732840
  75.2970008 111.2709236  53.5813926  71.2427535  97.1481538  71.0062347
  70.8494481  96.5947737  71.6809991  72.0593676  97.4592117  71.3968865
  68.2089593 108.5865396  54.9175917  68.7214114 109.3808647  55.0681482
  68.8612306 107.8891687  54.8509518  70.0184478 111.7031153  56.9998670
  70.1951106 112.6249117  56.8119654  70.8141311 111.3889572  57.4293050
  74.1595496  98.5639417  68.5982604  74.9005210  99.1646571  68.5187066
  74.3913419  97.8217055  68.0400646  69.3036834 103.7495785  66.8760833
  69.1890350 102.8481042  67.1767932  68.4481352 103.9959481  66.5245650
  76.3828672 111.6913525  68.4748334  75.9392526 110.9049904  68.1569238
  77.0445886 111.8792675  67.8092225  71.1415793 113.2209327  63.0009012
  71.6923218 113.0926390  62.2286006  70.3027269 113.5204216  62.6503905
  78.4809910 111.9716325  66.5029735  78.4628386 112.7925206  66.0110004
  79.4029830 111.8470400  66.7279876  74.9382964 109.4860454  67.3453244
  75.4711301 108.7248743  67.1152552  74.4097046 109.1934106  68.0877398
  78.1052659  94.5920520  62.8746885  77.7616929  95.4822162  62.7985996
  78.4731622  94.4022178  62.0116470  66.1738510 106.9154051  55.6935487
  67.0113732 107.3251059  55.4769195  66.3516778 105.9753493  55.6635681
  78.0702942 104.5829131  51.3819320  77.5549566 105.3533736  51.6207708
  77.7980251 103.9094268  52.0052382  75.6550053  99.4278832  56.4404559
  74.7991649  99.0385683  56.2610198  76.0677005  99.5070793  55.5804344
  77.1849200  96.9625175  60.8396119  76.6813995  96.9255311  60.0263924
  77.4779807  97.8717918  60.8992775  73.4292086  97.0463905  59.8462300
  74.2945082  96.8506714  59.4868190  73.4969595  96.8174257  60.7731657
  83.0437216 107.3361486  53.3172494  82.2666659 106.9972646  52.8727656
  83.7228697 107.3414109  52.6427459  77.8589245 102.4556224  53.2079102
  77.5539381 102.7702373  54.0589245  78.8119687 102.5337643  53.2506435
  76.3035677 108.6146447  54.8572056  75.7757039 107.8799206  54.5445293
  75.8023180 109.3921123  54.6112024  81.2828523 106.8095467  59.9739102
  80.6252198 107.4994729  60.0619231  82.0868922 107.1991899  60.3173088
  71.0354405  99.2766113  57.2178667  71.6098157  99.0541295  56.4851860
  71.6225387  99.3454808  57.9707268  80.0933982 105.1639840  58.0243044
  80.6065864 105.7969832  58.5264753  80.7435206 104.5641036  57.6586404
  71.3623992 101.3070574  51.2374552  70.5261304 101.6445261  51.5583827
  71.2228761 101.1719554  50.3001689  73.3377072  96.1507362  55.9453737
  72.6841485  95.8356379  55.3210351  73.2957547  95.5283102  56.6713559
  74.4488277 106.4326657  47.8607029  73.5415339 106.2015911  48.0598178
  74.9459309 105.6364276  48.0481010  77.3556356 115.1424164  50.7803715
  76.6818055 115.4455861  51.3888673  77.7422178 115.9453245  50.4309172
  76.5714813 102.6389296  60.2701384  75.6537374 102.8604243  60.1123072
  76.9874956 102.7135606  59.4113092  77.3549861 104.0380711  55.4004064
  78.1021680 104.5502108  55.0911186  77.6241450 103.7164764  56.2608458
  75.6276511 106.5339252  52.3831019  74.7187730 106.2498285  52.4803488
  75.6571595 106.9538331  51.5234326  80.8595778 110.1445841  56.1522186
  80.4058105 109.3036751  56.2087377  80.2289745 110.7807240  56.4896966
  79.8028698 101.0737828  57.3822854  79.0651455 100.5615214  57.7133096
  80.0555471 100.6338209  56.5706131  79.3028717 111.9822338  57.0872004
  79.5951692 112.5427395  56.3684370  79.8127338 112.2750899  57.8425164
  79.9040325  93.8514080  57.9764623  80.2099202  92.9911443  57.6890538
  80.6292930  94.4431700  57.7763617  66.1964681 104.2544766  56.3646221
  65.9989081 103.6614127  55.6397288  65.6411345 103.9496976  57.0822160
  74.1761405 104.1467873  58.4840814  74.2310015 103.1941709  58.4083291
  73.3652607 104.3027312  58.9682112  75.3252599 108.0747996  49.7219097
  74.8872028 107.3583855  49.2624735  76.0663039 108.3024110  49.1604189
  72.1153765 102.7644932  56.2431193  71.3021630 103.0639103  56.6496385
  72.6112759 102.3700621  56.9605675  74.2662343 112.7602689  58.1765458
  74.2238521 112.9863536  57.2473990  75.1825041 112.5266064  58.3251259
  77.7127976 103.2286757  65.0746087  78.0677364 103.4558230  65.9340553
  78.3600108 103.5605134  64.4523342  83.4425713 106.3505193  55.7795416
  83.3043612 106.5406789  54.8516605  83.0861932 107.1124575  56.2363467
  71.6067839 100.3363288  61.8592428  72.2467219 100.1952047  61.1615391
  70.7745370 100.0497801  61.4831030  83.4695093 108.4181720  60.7906687
  83.9031600 108.3257009  61.6389741  84.1826674 108.3939220  60.1526703
  72.3828143 109.6365718  57.9727420  73.1768742 109.1416038  57.7709995
  71.6719836 109.1083581  57.6095126  77.2022988 112.0183814  62.3239788
  77.2560010 112.5874750  63.0917504  76.3337769 112.1885699  61.9593825
  68.6910907 103.7808800  54.0487173  67.7608495 103.7193255  54.2657135
  68.7868379 103.2584753  53.2523814  68.6096456 100.3063613  56.6365415
  68.8703273 101.2208946  56.5274575  69.4313628  99.8388055  56.7862028
  70.0821381 101.7201370  63.8064239  70.7544435 101.5118732  63.1576888
  69.2551168 101.5223456  63.3669472  84.3310642 108.4605420  63.3239573
  84.5246533 109.3651231  63.5698848  84.2311261 108.0012839  64.1578158
  75.9846953  98.3463311  65.8229900  75.3374868  99.0453261  65.7294377
  76.7547969  98.7799455  66.1906148  79.3925751 108.6112163  68.8980453
  79.2411258 108.3822715  67.9810537  79.3830431 109.5682765  68.9111798
  76.1611088 106.1844076  63.8826720  77.0903148 106.3355235  63.7095687
  75.7402118 106.2728097  63.0275366  74.9599419 110.2094740  61.6525257
  74.8210505 109.8413525  62.5251196  74.1714016 110.7242380  61.4809215
  75.5547571 115.3103837  52.9950794  75.7299327 114.8391880  53.8096417
  74.8680359 115.9369603  53.2232055  76.5104634 109.5876343  59.0414095
  76.1754467 109.5477113  59.9371745  76.0108580 108.9221059  58.5684505
  70.4848878 104.9943973  64.5666676  70.3468676 104.2624212  65.1678215
  71.3953802 104.9052873  64.2850864  79.4463826 106.9332377  49.3151155
  78.8292997 106.2079205  49.2184208  78.9780315 107.6941738  48.9718229
  73.1131179 104.7063932  64.0550356  73.8230798 104.0657124  64.0136974
  73.0700487 104.9576827  64.9776537  81.1017958 111.6431286  66.9756935
  81.0430504 110.9590506  66.3087518  81.5037476 112.3850276  66.5237561
  71.8260113 101.6929150  65.8745996  71.2897470 101.2419889  66.5267592
  71.2376822 101.8275059  65.1316460  70.1208657 118.4593199  59.7690654
  70.3605255 119.0911724  60.4469673  69.2777853 118.1081240  60.0556013
  71.2362372 101.1517802  48.4372459  70.3591838 101.0306602  48.0734706
  71.7120125 100.3603880  48.1851348  81.1035365 109.6070870  65.2070915
  80.2162144 109.2696791  65.3297314  81.6733916 108.8753901  65.4439680
  62.7564512 105.9394961  58.5313966  63.4435552 105.6256691  57.9434982
  62.6012641 106.8436326  58.2581218  67.5599234 100.8285158  62.9598990
  67.4757423 100.2210827  62.2249400  66.7381941 101.3194176  62.9608486
  74.6336518 114.2672322  62.1732158  74.5606690 115.0727293  62.6851463
  74.1913912 114.4664288  61.3480180  74.4226298 113.5044092  55.6834980
  73.6393820 114.0465772  55.7773204  75.1219043 114.0218072  56.0829221
  77.7322948  99.3138721  58.3269185  78.2291648  98.5608684  58.0070255
  76.9609930  99.3503038  57.7612394  85.5852706 105.0179087  59.9687477
  85.5742582 105.9003802  59.5981410  84.7170085 104.6650638  59.7742014
  77.0935202 114.1659156  64.3290317  77.8063174 114.8006621  64.2566218
  76.6025231 114.2623022  63.5130319  78.8152729 108.0710409  55.9007608
  77.8809008 108.1911871  55.7312313  78.9929397 107.1682875  55.6367618
  74.3157917 101.4556104  58.0540870  73.9455704 100.9027145  58.7421775
  74.8117009 100.8514238  57.5015870  82.2025280 103.9127728  56.4357643
  82.6685732 104.7455720  56.3617945  82.6532781 103.4472709  57.1402901
  72.1447116 111.9153599  65.1495888  72.8456575 112.5490082  65.3025282
  71.6742231 112.2568331  64.3891527  80.2701511 110.2571549  53.4343795
  80.5461355 110.1428144  54.3437669  79.4006010 109.8589034  53.3955968
  80.1741943  96.2808315  60.4748544  79.2605023  96.5112542  60.6430751
  80.6035044  96.3646759  61.3262576  79.9448401 104.4698207  62.9748438
  79.2919852 104.7174114  62.3200891  80.3228781 103.6562345  62.6410915
  76.9055575 114.5057900  57.0776608  77.0877970 113.6879556  57.5404361
  77.7288561 114.7225592  56.6401498  77.2397741 113.4326085  54.3391657
  77.7685507 112.9218540  53.7261819  77.5025960 113.1168615  55.2037190
  75.9935975 105.2118018  69.4614475  75.3176612 105.1112147  70.1316850
  76.8163608 105.0557232  69.9250472  67.7414834 111.4489954  62.0826990
  68.3268270 110.7033642  62.2154895  67.5439672 111.7593911  62.9663654
  70.5953489 114.4841202  57.0989433  69.9263864 114.9687329  56.6153473
  70.4566359 114.7310422  58.0132811  62.3332488 104.0195555  60.8031433
  62.3716588 103.4859145  61.5968552  61.8272781 103.4930760  60.1842411
  74.7358757 116.5184945  63.6972091  75.2877065 116.6816567  64.4621176
  75.0764951 117.1089383  63.0252116  69.7123251  98.8660095  64.2993976
  69.7764577  99.7274926  63.8871373  69.6490371  98.2534097  63.5666334
  69.1875523 100.9383228  67.9467010  69.8147562 100.5560305  68.5604534
  68.3303442 100.7197430  68.3122703  79.5869632 111.3446203  69.5520745
  80.1309536 111.9576161  69.0575700  79.0056477 111.9025781  70.0687758
  65.9641066 102.7459657  53.8785365  66.2594507 101.8370335  53.8252419
  65.0629102 102.7247396  53.5566367  77.8727145 114.4666921  60.6835773
  77.7478284 113.6656661  60.1746719  78.5306236 114.9613114  60.1949743
  69.4935313 100.8215653  59.8612913  68.7721899 101.4351621  59.7220387
  70.2828569 101.3573418  59.7829559  79.9362053 112.2675941  62.3115323
  78.9892389 112.1481292  62.2393650  80.2844826 111.3798439  62.3941585
  72.2961626  98.1570080  66.1353565  72.8196028  98.4032376  66.8979874
  72.0773960  98.9890115  65.7156703  67.6928907 100.4273754  54.0024690
  67.3641614  99.5471133  53.8199796  68.0468278 100.3721423  54.8901079
  76.9408486 112.0628657  58.5119676  76.7933449 111.1345365  58.6927246
  77.7661980 112.0848748  58.0276751  70.8070731 100.7146724  54.3700168
  71.1466803 101.2432646  53.6478776  71.2542851 101.0527130  55.1458734
  80.5442608 112.8857216  59.5984548  81.4689156 112.6800077  59.4608999
  80.3757912 112.6373617  60.5073890  73.5014171  99.0983775  63.8203236
  73.1610992  98.2991588  64.2223916  72.7953178  99.3985486  63.2480069
  74.1530643  96.1833087  62.2730559  74.9756713  95.7093566  62.1509449
  74.3968707  96.9623571  62.7729245  72.7938878  99.2121346  52.5693460
  73.5147240  99.5902599  52.0657177  72.1704182  99.9310223  52.6728438
  76.9370001  99.9166495  53.5051793  77.1533615 100.7991133  53.2040621
  76.4564068  99.5252708  52.7757435  71.6769222 102.8752208  60.0822537
  71.5313803 103.1892511  60.9746819  71.1994426 103.4937108  59.5293436
  73.5365605  99.8654756  60.1303427  73.5227174  98.9695849  59.7935725
  74.2538033  99.8725420  60.7641713  75.3891736 100.2992096  62.1756554
  75.1309513 101.2209167  62.1740885  74.8576776  99.9022531  62.8657018
  80.3337924 113.4042883  54.9546640  80.5074802 112.8389306  54.2020492
  80.8266816 114.2043778  54.7726130  66.1514884 105.4157552  63.0210199
  65.6068352 106.1917360  63.1530473  67.0294234 105.7628357  62.8629320
  72.9402501  98.7469136  55.3990997  73.0618412  97.8185783  55.5981885
  72.6504543  98.7607822  54.4869312  75.8093691  96.4324047  58.5357717
  75.8315388  96.4963380  57.5809696  76.2261750  95.5928555  58.7298223
  86.1877316 106.1679306  56.5736939  86.6308462 105.4186632  56.1756063
  85.3103826 106.1589443  56.1910671  81.3213097 112.7209648  52.0543538
  82.0164002 113.3416340  52.2730853  81.6636247 111.8704999  52.3295916
  66.9380906 104.5427449  65.9140355  66.1962642 104.6910084  66.5004986
  66.6173650 104.8035714  65.0507105  83.2204520 110.1709353  53.5830869
  83.7455844 110.5096626  52.8580189  83.1326873 109.2356369  53.3994003
  74.8824569 114.0843427  65.7120745  75.1911695 113.8392574  66.5843445
  75.6800051 114.2890065  65.2239616  74.9045181 116.2381337  57.9426122
  74.4650171 115.7457715  58.6358979  75.6553298 115.6954304  57.7018197
  67.3837520 112.4292877  57.9450750  68.2095540 112.1296649  57.5649394
  67.0331572 111.6600500  58.3940539  72.3519053 111.7819346  60.0148424
  71.7299062 111.1190051  59.7150651  73.0223920 111.8080478  59.3322071
  65.5846125 110.3479204  58.9039684  64.7478033 109.9201378  58.7223685
  65.5569770 110.5411647  59.8410475  72.4243580 100.2601134  69.6080930
  72.4731736 101.1363257  69.2258699  72.9666095  99.7178527  69.0352573
  82.9098426 110.8042257  68.8882067  82.1193970 110.7866396  68.3486566
  82.6731781 111.3430551  69.6431103  83.0296301 107.6534723  66.2014795
  83.0794306 107.4884731  67.1430318  82.9210224 106.7861982  65.8112676
  71.9132560 110.3323269  53.4906884  72.0620680 111.0158733  52.8373557
  72.7199003 110.3128359  54.0056340  80.3200064 103.6365651  67.5174102
  81.2209926 103.4972116  67.2258100  80.3948038 103.8020106  68.4572279
  74.6542869 101.0132506  66.3627288  73.7846178 101.3066072  66.0909877
  74.8902349 101.5972951  67.0834552  84.5314498 110.0731665  66.4456817
  84.2399306 110.4361645  67.2820278  83.9186629 109.3598673  66.2670149
  85.7310180 107.6384545  58.9659387  86.5657072 108.0774349  59.1296947
  85.8669309 107.1623198  58.1467633  82.7801686 105.1964279  64.9136875
  83.2555808 105.3891926  64.1055726  81.8567252 105.2523465  64.6680258
  69.6685193 106.3588447  54.4967953  69.4231235 105.4550777  54.6948163
  69.8381107 106.3605597  53.5547431  77.3581903  97.2312123  63.8792709
  77.8763847  97.9673150  63.5539197  77.0037035  97.5376116  64.7139468
  68.9380840 102.0916804  51.9954115  68.2450085 102.1661159  51.3394151
  68.6932592 101.3277148  52.5175631  77.6094497  93.6512406  59.3993605
  77.8896251  92.9835595  60.0254032  78.3945104  93.8441501  58.8868269
  75.4127965 112.8271399  50.9618632  74.8401932 113.4461587  50.5089103
  75.9860759 113.3770761  51.4958554  81.4803355 102.0730040  63.1465180
  82.4320778 102.1728137  63.1677404  81.3106806 101.2808308  63.6563265
  79.5017735  99.1585623  63.3324581  78.9067667  99.4390635  62.6371070
  79.2167431  99.6479524  64.1041322  78.6325225 113.1108550  52.0927214
  79.5655898 113.0454111  52.2960089  78.5448438 113.9464816  51.6341747
  81.2613242 112.4274420  49.0531161  81.1826873 112.0934284  49.9466919
  82.0822909 112.9196188  49.0522634  83.9591433 105.2936159  62.2607480
  83.9267753 104.3552160  62.4467164  84.5692057 105.3720196  61.5273305
  75.7974764 104.1632212  48.3034684  76.7433869 104.0338420  48.3723102
  75.4189009 103.4246874  48.7804112  84.1085921 102.0847203  62.3065763
  83.5924970 101.3005659  62.1195692  84.9925870 101.7565919  62.4712283
  81.7696648  95.8288218  58.2661576  81.5721470  95.5203306  59.1504908
  82.3796354  96.5549857  58.3959506  89.7767983 106.3552166  61.4013517
  90.5071371 106.0937454  61.9621220  89.1674928 105.6180888  61.4415585
  87.8583280 104.4960029  61.9987968  87.1316444 104.3615994  61.3904460
  87.4430567 104.8036857  62.8044686  75.6813456 108.2149958  69.7635341
  76.6016466 108.3928557  69.9575388  75.6463039 107.2706004  69.6115040
  73.9817681 102.0882189  48.2389569  73.0749136 101.7915301  48.3152283
  74.2593662 101.7912007  47.3723856  64.8995621 103.4088552  58.6888616
  64.5798406 102.5553860  58.3962990  64.3529050 103.6237130  59.4446583
  68.6775529 106.1250993  62.4058122  68.8961539 107.0568101  62.4246156
  69.0901303 105.7658967  63.1912926  75.5979747  96.6319078  54.3933811
  74.7880475  96.2866163  54.7689057  76.2864164  96.3226622  54.9821422
  77.5270295  95.7097125  56.0158107  78.0801334  96.1292579  56.6748130
  77.7640381  94.7832873  56.0581063  73.5503394 101.6984199  71.7960871
  73.4500121 102.6478556  71.7272962  73.3324936 101.3702438  70.9236941
  72.7516466  98.9469124  48.3801549  73.6135630  99.2724022  48.6397366
  72.9366810  98.1600620  47.8674614  64.7683881 107.0291464  60.6581737
  64.0747353 106.6145416  60.1451692  65.5156872 107.0712000  60.0615156
  80.9049102  97.8197650  55.5236772  80.3247771  98.4782454  55.1414824
  80.6385035  96.9974995  55.1124189  79.3552668  97.2202708  57.7258092
  79.8552447  97.3319243  56.9172411  79.9988276  96.9163761  58.3658900
  73.4134664 105.1281338  70.6125933  72.9301746 105.9281698  70.8189822
  73.4995603 105.1389282  69.6593377  66.6820624 106.9609717  58.5347752
  66.6591312 107.0597405  57.5829635  66.9921260 107.8074868  58.8564918
  69.3408002 109.0185872  62.6494367  70.2951255 108.9869815  62.5824298
  69.1420525 108.5576496  63.4644593  69.9307384 107.5886988  65.2165164
  70.7500273 108.0831067  65.2400002  70.2044192 106.6718957  65.1882732
  79.6873980  99.9797741  54.5793120  78.7999835 100.2647391  54.3613315
  80.1027969  99.8191504  53.7320397  83.0388516 100.0044262  58.2947459
  83.8148906 100.4940714  58.5672076  82.3136650 100.4302316  58.7519329
  85.4761075 100.7171881  59.3521400  86.0705566 100.4767617  58.6414708
  85.5487659  99.9979011  59.9794936  67.6958231 114.5605492  59.6664564
  67.5612699 113.8005893  59.1002563  67.2790293 115.2846392  59.1993353
  78.8317194 109.7442415  48.6741140  79.5353044 109.9492418  49.2898795
  78.1079842 110.3119177  48.9390223  79.6615004 105.4952277  54.7943410
  79.6050205 105.9520828  53.9551042  80.2143346 104.7342961  54.6166253
  83.4719810 101.2842008  55.6193529  83.2156744 100.8838644  56.4501737
  82.8472678 101.9985802  55.4943669  87.7832148 104.0238082  58.1264821
  87.2231706 104.0931271  58.8996383  87.1775651 103.8479066  57.4064317
  70.8527356 115.4574809  59.8783007  70.7359741 116.4020241  59.7761697
  70.0319803 115.1548370  60.2668806  80.7403891 110.1824945  50.7239600
  81.5749495 109.7506143  50.5417075  80.5788234 110.0106958  51.6516494
  80.3949783 106.6857058  52.0895939  80.3398587 106.5201329  51.1484383
  79.7695838 107.3933091  52.2458129  65.1842298 101.9225122  65.9157361
  65.8301162 101.4124076  66.4044586  64.9759449 102.6593804  66.4900787
  77.7095690 108.9905970  71.4149502  78.5786850 109.1646622  71.0536137
  77.2302442 109.8100387  71.2925231  73.7045909  96.1865167  51.6681258
  73.6924578  97.1307007  51.8249528  74.5969331  96.0035312  51.3740719
  71.8781871 116.1103071  63.0938936  72.7809117 116.1426681  63.4105430
  71.6519241 115.1803522  63.1085271  73.6335473 114.8634057  59.7549014
  72.6831104 114.8635919  59.6413386  73.9367959 114.1166792  59.2385049
  77.5198028  92.7807943  55.9227194  76.7530424  92.2266430  56.0683877
  77.9308733  92.8529812  56.7841346  69.5239789  99.0692739  70.0132376
  70.3871251  98.7129544  70.2235700  68.9505200  98.7306634  70.7007780
  89.3688166 120.6994596  60.8194777  90.0066576 120.5801343  60.1158117
  89.2509009 121.6475440  60.8782729  86.1777872 120.6522024  60.7556301
  85.8396384 120.5363088  59.8676836  87.0467641 120.2513189  60.7357307
  82.0364688 122.5057500  56.7453192  81.4729553 122.4147437  55.9769480
  81.9217083 121.6857405  57.2255685  86.6597655 121.8056875  66.7142507
  86.6486296 121.4109674  65.8423010  86.8218295 121.0722948  67.3076278
  79.5829120 124.0008692  59.5837413  80.3750412 123.6599516  59.1683712
  79.8225770 124.1103667  60.5039566  81.5419874 123.2617605  52.4554791
  82.3150750 122.7146592  52.3167667  81.8945273 124.1261854  52.6669253
  83.3804916 124.5893987  65.6621691  83.0894782 125.4939618  65.5468357
  84.0161901 124.6310515  66.3765760  84.3061123 121.9670836  62.2523050
  84.9024696 121.7426858  61.5380013  84.3636095 121.2255581  62.8548498
  83.8786152 119.4210271  50.0873241  84.1311672 118.8991792  49.3256704
  82.9410711 119.2576417  50.1899925  88.9229435 118.4246050  57.8947985
  89.7092524 118.0065473  57.5438402  89.1868139 119.3292142  58.0629633
  83.5982440 121.3238377  52.2897616  83.4818699 120.6483280  52.9578701
  83.7084700 120.8370751  51.4729769  85.9413981 120.7848524  55.9944306
  85.5772189 120.2579145  56.7057227  86.7981097 120.3946993  55.8210791
  91.8463282 112.0742857  63.2575572  91.5146607 112.9438268  63.0336787
  91.2508895 111.7579141  63.9369602  85.5819468 115.8138424  50.9905654
  85.7493871 116.6818660  51.3576125  85.3916637 115.9765706  50.0666943
  81.7907283 120.7269200  58.6908189  80.8657780 120.5945414  58.8985881
  82.0391696 121.5063419  59.1878131  91.7391945 116.7937943  60.3368922
  90.8308823 116.7253351  60.0427683  91.6879541 117.2709888  61.1650747
  85.5608689 118.2696081  51.9752321  85.4408314 118.7153132  52.8137801
  84.8661278 118.6181399  51.4165859  79.1516094 120.3702473  59.5251978
  79.2808475 120.6236952  60.4391390  78.4713545 120.9630181  59.2056633
  85.8132811 118.2127589  68.2803819  85.0366145 118.7721509  68.2706684
  86.4523374 118.6984372  68.8018689  93.6053592 114.9954381  62.1146796
  92.9627972 115.2886915  61.4686590  93.1008520 114.8807302  62.9199992
  91.2593755 118.7417555  52.8032655  92.1711612 118.9744941  52.6280352
  90.7503403 119.3254599  52.2407734  84.0679183 121.0213042  67.8421786
  84.8093868 121.5598086  67.5656610  83.3616169 121.6479331  67.9993338
  85.8965593 118.1014789  63.8127504  86.7426788 118.5254203  63.9562153
  85.8364231 117.4448413  64.5066068  89.0465038 115.7619158  65.4708678
  88.8025970 116.5161218  64.9342954  89.3224969 116.1404505  66.3055925
  88.6029730 114.9175591  61.0522516  87.7414209 115.2156844  61.3439253
  88.6292165 115.1345989  60.1203548  85.4191300 123.4617781  57.4596322
  85.8829645 123.7405484  56.6700944  85.1548098 122.5601226  57.2769412
  82.3115381 123.0089263  60.3976085  82.8816738 123.4376531  59.7593569
  82.9023493 122.7271847  61.0960270  84.3560186 119.5840933  54.2685887
  85.0584229 120.0361977  54.7359813  84.0240814 118.9424752  54.8965780
  82.8040547 118.1752690  68.6437096  82.1739208 118.8568971  68.8772493
  82.6976635 118.0635772  67.6990234  78.0985520 117.8424486  59.5703020
  77.3084574 118.0982015  59.0943131  78.5896767 118.6572824  59.6755061
  80.0500265 118.2069065  56.5286497  79.2531428 118.3187760  57.0469993
  79.8225857 118.5455718  55.6627387  76.3823223 118.0954977  62.0018011
  76.6331261 118.9801987  62.2675587  76.9182771 117.9159578  61.2293103
  82.0821290 112.4773456  71.0062347  81.6888235 111.9239655  71.6809991
  82.8987430 112.7884034  71.3968865  79.0483348 123.9157314  54.9175917
  79.5607868 124.7100564  55.0681482  79.7006061 123.2183605  54.8509518
  84.9989251 113.8931335  68.5982604  85.7398964 114.4938488  68.5187066
  85.2307174 113.1508973  68.0400646  80.1430589 119.0787702  66.8760833
  80.0284104 118.1772960  67.1767932  79.2875107 119.3251399  66.5245650
  88.9446414 109.9212438  62.8746885  88.6010683 110.8114080  62.7985996
  89.3125376 109.7314096  62.0116470  77.0132264 122.2445968  55.6935487
  77.8507486 122.6542977  55.4769195  77.1910532 121.3045411  55.6635681
  88.9096697 119.9121049  51.3819320  88.3943320 120.6825654  51.6207708
  88.6374005 119.2386185  52.0052382  86.4943808 114.7570750  56.4404559
  85.6385404 114.3677600  56.2610198  86.9070759 114.8362711  55.5804344
  88.0242954 112.2917093  60.8396119  87.5207750 112.2547228  60.0263924
  88.3173561 113.2009836  60.8992775  84.2685840 112.3755823  59.8462300
  85.1338837 112.1798632  59.4868190  84.3363349 112.1466175  60.7731657
  88.6983000 117.7848141  53.2079102  88.3933135 118.0994290  54.0589245
  89.6513442 117.8629561  53.2506435  81.8748159 114.6058031  57.2178667
  82.4491911 114.3833212  56.4851860  82.4619142 114.6746725  57.9707268
  82.2017746 116.6362492  51.2374552  81.3655059 116.9737178  51.5583827
  82.0622516 116.5011472  50.3001689  84.1770827 111.4799280  55.9453737
  83.5235239 111.1648297  55.3210351  84.1351301 110.8575020  56.6713559
  85.2882032 121.7618575  47.8607029  84.3809094 121.5307828  48.0598178
  85.7853064 120.9656194  48.0481010  87.4108567 117.9681213  60.2701384
  86.4931129 118.1896160  60.1123072  87.8268711 118.0427524  59.4113092
  88.1943615 119.3672629  55.4004064  88.9415434 119.8794026  55.0911186
  88.4635205 119.0456682  56.2608458  86.4670265 121.8631170  52.3831019
  85.5581484 121.5790202  52.4803488  86.4965349 122.2830248  51.5234326
  90.6422452 116.4029745  57.3822854  89.9045209 115.8907131  57.7133096
  90.8949226 115.9630127  56.5706131  90.7434080 109.1805997  57.9764623
  91.0492956 108.3203361  57.6890538  91.4686684 109.7723617  57.7763617
  77.0358436 119.5836684  56.3646221  76.8382835 118.9906044  55.6397288
  76.4805100 119.2788894  57.0822160  85.0155159 119.4759790  58.4840814
  85.0703769 118.5233627  58.4083291  84.2046361 119.6319229  58.9682112
  82.9547519 118.0936850  56.2431193  82.1415385 118.3931021  56.6496385
  83.4506513 117.6992539  56.9605675  88.5521731 118.5578674  65.0746087
  88.9071119 118.7850148  65.9340553  89.1993862 118.8897051  64.4523342
  82.4461594 115.6655206  61.8592428  83.0860973 115.5243965  61.1615391
  81.6139124 115.3789719  61.4831030  83.2221898 124.9657636  57.9727420
  84.0162496 124.4707956  57.7709995  82.5113590 124.4375499  57.6095126
  79.5304661 119.1100718  54.0487173  78.6002249 119.0485173  54.2657135
  79.6262133 118.5876670  53.2523814  79.4490210 115.6355531  56.6365415
  79.7097028 116.5500864  56.5274575  80.2707383 115.1679973  56.7862028
  80.9215136 117.0493288  63.8064239  81.5938189 116.8410650  63.1576888
  80.0944922 116.8515374  63.3669472  86.8240708 113.6755229  65.8229900
  86.1768623 114.3745178  65.7294377  87.5941723 114.1091373  66.1906148
  87.0004842 121.5135994  63.8826720  87.9296902 121.6647153  63.7095687
  86.5795872 121.6020014  63.0275366  81.3242633 120.3235891  64.5666676
  81.1862431 119.5916129  65.1678215  82.2347556 120.2344791  64.2850864
  83.9524934 120.0355850  64.0550356  84.6624552 119.3949042  64.0136974
  83.9094242 120.2868745  64.9776537  82.6653868 117.0221068  65.8745996
  82.1291225 116.5711806  66.5267592  82.0770576 117.1566977  65.1316460
  82.0756127 116.4809719  48.4372459  81.1985593 116.3598520  48.0734706
  82.5513880 115.6895798  48.1851348  73.5958267 121.2686879  58.5313966
  74.2829307 120.9548609  57.9434982  73.4406395 122.1728244  58.2581218
  78.3992989 116.1577076  62.9598990  78.3151178 115.5502745  62.2249400
  77.5775695 116.6486094  62.9608486  88.5716703 114.6430639  58.3269185
  89.0685402 113.8900601  58.0070255  87.8003684 114.6794956  57.7612394
  85.1551671 116.7848022  58.0540870  84.7849459 116.2319062  58.7421775
  85.6510764 116.1806156  57.5015870  91.0135697 111.6100233  60.4748544
  90.0998777 111.8404459  60.6430751  91.4428799 111.6938677  61.3262576
  90.7842156 119.7990125  62.9748438  90.1313606 120.0466032  62.3200891
  91.1622536 118.9854263  62.6410915  86.8329729 120.5409936  69.4614475
  86.1570366 120.4404065  70.1316850  87.6557363 120.3849149  69.9250472
  78.5808588 126.7781872  62.0826990  79.1662025 126.0325560  62.2154895
  78.3833427 127.0885829  62.9663654  73.1726243 119.3487472  60.8031433
  73.2110342 118.8151063  61.5968552  72.6666536 118.8222678  60.1842411
  80.5517005 114.1952013  64.2993976  80.6158332 115.0566844  63.8871373
  80.4884125 113.5826015  63.5666334  80.0269278 116.2675145  67.9467010
  80.6541316 115.8852223  68.5604534  79.1697196 116.0489347  68.3122703
  76.8034820 118.0751575  53.8785365  77.0988261 117.1662253  53.8252419
  75.9022856 118.0539314  53.5566367  80.3329067 116.1507571  59.8612913
  79.6115653 116.7643539  59.7220387  81.1222323 116.6865336  59.7829559
  83.1355381 113.4861998  66.1353565  83.6589783 113.7324294  66.8979874
  82.9167714 114.3182032  65.7156703  78.5322662 115.7565672  54.0024690
  78.2035368 114.8763051  53.8199796  78.8862033 115.7013341  54.8901079
  81.6464485 116.0438642  54.3700168  81.9860558 116.5724563  53.6478776
  82.0936606 116.3819048  55.1458734  84.3407926 114.4275693  63.8203236
  84.0004746 113.6283506  64.2223916  83.6346932 114.7277404  63.2480069
  84.9924398 111.5125005  62.2730559  85.8150467 111.0385483  62.1509449
  85.2362461 112.2915489  62.7729245  83.6332632 114.5413264  52.5693460
  84.3540995 114.9194516  52.0657177  83.0097936 115.2602140  52.6728438
  87.7763755 115.2458413  53.5051793  87.9927370 116.1283050  53.2040621
  87.2957822 114.8544626  52.7757435  82.5162977 118.2044126  60.0822537
  82.3707557 118.5184429  60.9746819  82.0388180 118.8229026  59.5293436
  84.3759359 115.1946674  60.1303427  84.3620928 114.2987767  59.7935725
  85.0931788 115.2017337  60.7641713  86.2285490 115.6284014  62.1756554
  85.9703268 116.5501085  62.1740885  85.6970531 115.2314448  62.8657018
  76.9908639 120.7449470  63.0210199  76.4462107 121.5209278  63.1530473
  77.8687989 121.0920275  62.8629320  83.7796255 114.0761054  55.3990997
  83.9012167 113.1477700  55.5981885  83.4898298 114.0899740  54.4869312
  86.6487446 111.7615964  58.5357717  86.6709143 111.8255298  57.5809696
  87.0655505 110.9220473  58.7298223  77.7774661 119.8719366  65.9140355
  77.0356397 120.0202002  66.5004986  77.4567405 120.1327632  65.0507105
  78.2231274 127.7584795  57.9450750  79.0489294 127.4588567  57.5649394
  77.8725326 126.9892418  58.3940539  76.4239879 125.6771122  58.9039684
  75.5871788 125.2493296  58.7223685  76.3963525 125.8703565  59.8410475
  83.2637335 115.5893051  69.6080930  83.3125490 116.4655174  69.2258699
  83.8059849 115.0470444  69.0352573  91.1593818 118.9657569  67.5174102
  92.0603681 118.8264034  67.2258100  91.2341793 119.1312024  68.4572279
  85.4936623 116.3424424  66.3627288  84.6239933 116.6357990  66.0909877
  85.7296104 116.9264869  67.0834552  80.5078947 121.6880364  54.4967953
  80.2624989 120.7842694  54.6948163  80.6774862 121.6897515  53.5547431
  88.1975657 112.5604041  63.8792709  88.7157601 113.2965068  63.5539197
  87.8430790 112.8668034  64.7139468  79.7774595 117.4208722  51.9954115
  79.0843840 117.4953077  51.3394151  79.5326347 116.6569066  52.5175631
  88.4488251 108.9804323  59.3993605  88.7290005 108.3127512  60.0254032
  89.2338858 109.1733419  58.8868269  92.3197110 117.4021957  63.1465180
  93.2714533 117.5020055  63.1677404  92.1500560 116.6100226  63.6563265
  90.3411489 114.4877540  63.3324581  89.7461421 114.7682553  62.6371070
  90.0561186 114.9771441  64.1041322  86.6368518 119.4924130  48.3034684
  87.5827623 119.3630338  48.3723102  86.2582763 118.7538792  48.7804112
  94.9479676 117.4139120  62.3065763  94.4318725 116.6297577  62.1195692
  95.8319624 117.0857837  62.4712283  92.6090403 111.1580136  58.2661576
  92.4115224 110.8495224  59.1504908  93.2190108 111.8841775  58.3959506
  84.8211435 117.4174106  48.2389569  83.9142891 117.1207219  48.3152283
  85.0987416 117.1203924  47.3723856  75.7389376 118.7380470  58.6888616
  75.4192160 117.8845778  58.3962990  75.1922804 118.9529048  59.4446583
  79.5169283 121.4542911  62.4058122  79.7355293 122.3860019  62.4246156
  79.9295057 121.0950885  63.1912926  86.4373501 111.9610996  54.3933811
  85.6274230 111.6158081  54.7689057  87.1257918 111.6518540  54.9821422
  88.3664049 111.0389043  56.0158107  88.9195088 111.4584496  56.6748130
  88.6034136 110.1124791  56.0581063  84.3897149 117.0276116  71.7960871
  84.2893876 117.9770473  71.7272962  84.1718691 116.6994355  70.9236941
  83.5910220 114.2761042  48.3801549  84.4529384 114.6015940  48.6397366
  83.7760564 113.4892537  47.8674614  75.6077636 122.3583381  60.6581737
  74.9141107 121.9437334  60.1451692  76.3550627 122.4003918  60.0615156
  91.7442857 113.1489568  55.5236772  91.1641526 113.8074372  55.1414824
  91.4778789 112.3266913  55.1124189  90.1946423 112.5494626  57.7258092
  90.6946201 112.6611160  56.9172411  90.8382031 112.2455679  58.3658900
  84.2528419 120.4573255  70.6125933  83.7695500 121.2573615  70.8189822
  84.3389358 120.4681200  69.6593377  77.5214378 122.2901635  58.5347752
  77.4985067 122.3889322  57.5829635  77.8315015 123.1366786  58.8564918
  80.1801756 124.3477790  62.6494367  81.1345010 124.3161732  62.5824298
  79.9814280 123.8868414  63.4644593  80.7701138 122.9178906  65.2165164
  81.5894027 123.4122985  65.2400002  81.0437946 122.0010874  65.1882732
  90.5267735 115.3089658  54.5793120  89.6393590 115.5939309  54.3613315
  90.9421724 115.1483422  53.7320397  93.8782271 115.3336179  58.2947459
  94.6542661 115.8232632  58.5672076  93.1530405 115.7594234  58.7519329
  96.3154829 116.0463799  59.3521400  96.9099320 115.8059535  58.6414708
  96.3881413 115.3270929  59.9794936  94.3113564 116.6133926  55.6193529
  94.0550498 116.2130562  56.4501737  93.6866432 117.3277720  55.4943669
  76.0236053 117.2517040  65.9157361  76.6694916 116.7415994  66.4044586
  75.8153204 117.9885722  66.4900787  84.5439663 111.5157085  51.6681258
  84.5318333 112.4598924  51.8249528  85.4363085 111.3327230  51.3740719
  88.3591783 108.1099861  55.9227194  87.5924178 107.5558348  56.0683877
  88.7702488 108.1821730  56.7841346  80.3633544 114.3984657  70.0132376
  81.2265005 114.0421462  70.2235700  79.7898954 114.0598552  70.7007780
  24.3325640   5.7305212  47.5440083  24.9704050   5.6111960  46.8403423
  24.2146483   6.6786056  47.6028035  21.1415347   5.6832640  47.4801608
  20.8033858   5.5673705  46.5922143  22.0105115   5.2823805  47.4602614
  17.0002162   7.5368117  43.4698499  16.4367028   7.4458054  42.7014787
  16.8854557   6.7168021  43.9500991  21.6235130   6.8367492  53.4387813
  21.6123770   6.4420290  52.5668317  21.7855769   6.1033565  54.0321585
  14.5466594   9.0319308  46.3082719  15.3387886   8.6910133  45.8929019
  14.7863244   9.1414283  47.2284873  22.5801721  11.2039084  38.7812964
  21.9289701  11.7893165  38.3946978  23.3746084  11.7345279  38.8408001
  16.5057348   8.2928222  39.1800098  17.2788224   7.7457209  39.0412974
  16.8582747   9.1572471  39.3914559  18.3442391   9.6204604  52.3866997
  18.0532257  10.5250235  52.2713664  18.9799375   9.6621131  53.1011067
  19.2698598   6.9981452  48.9768357  19.8662170   6.7737475  48.2625320
  19.3273569   6.2566198  49.5793805  23.8866909   3.4556666  44.6193291
  24.6729998   3.0376089  44.2683708  24.1505613   4.3602758  44.7874940
  24.0576986   8.8929516  39.3181948  23.4222819   8.9664143  40.0302853
  23.7274393   9.4823115  38.6401027  29.2875336   3.3931899  45.5226270
  30.0200508   2.8231116  45.7564099  28.5314692   3.0053500  45.9632775
  18.5619915   6.3548994  39.0142923  18.4456173   5.6793897  39.6824007
  18.6722175   5.8681368  38.1975076  20.9051456   5.8159141  42.7189612
  20.5409663   5.2889762  43.4302534  21.7618572   5.4257610  42.5456098
  23.3032276   9.3066019  49.3816791  23.0032999  10.2091058  49.2732598
  22.9583335   9.0398203  50.2337944  26.7029420   1.8248560  47.0614228
  25.7946297   1.7563968  46.7672989  26.6517015   2.3020504  47.8896054
  18.2853056  16.0710340  42.3487759  18.2077085  17.0218165  42.4276239
  17.6814699  15.7256212  43.0062685  28.5691066   0.0264998  48.8392102
  27.9265446   0.3197531  48.1931897  28.0645995  -0.0882082  49.6445299
  26.2231230   3.7728171  39.5277962  27.1349086   4.0055558  39.3525659
  25.7140877   4.3565215  38.9653040  19.0316658   6.0523658  54.5667093
  19.7731342   6.5908702  54.2901916  18.3253643   6.6789947  54.7238644
  24.5071997   8.1952799  53.1639254  24.9155353   7.7535209  52.4193887
  23.7849259   7.6205426  53.4173447  24.8300812   8.7553990  46.9191543
  24.2009675   8.9199704  46.2167611  24.4426474   9.1695599  47.6902507
  28.7090044   9.6908427  44.2735907  28.0241082  10.0707329  43.7232940
  28.7933893  10.3003754  45.0067855  25.9640976   7.3368386  50.8731250
  26.1757871   7.9800146  50.1965631  25.9170724   6.5030703  50.4053180
  20.3828774   8.4928398  44.1841628  20.8467119   8.7716101  43.3946251
  20.1185572   7.5911842  44.0014719  17.2752855   8.0399879  47.1221391
  17.8454212   8.4687148  46.4838876  17.8660967   7.7582464  47.8205577
  27.0786804  10.2140342  49.0453608  27.9004247   9.8120529  48.7636289
  27.0749206  10.1108576  49.9969723  20.8443407   9.7624385  51.2014318
  20.9087839  10.2244792  52.0372490  20.1354331   9.1321750  51.3296628
  35.1692797   6.5579090  45.3938579  34.4156505   5.9886488  45.2382584
  35.3040338   6.5241755  46.3409214  20.5591425  11.4292493  41.0693298
  20.4237099  12.2744028  41.4978146  21.1001237  11.6311770  40.3059232
  14.0120822   8.9467931  41.6421224  14.5245343   9.7411181  41.7926788
  14.6643535   8.2494221  41.5754825  15.8215707  12.0633687  43.7243977
  15.9982335  12.9851652  43.5364961  16.6172540  11.7492106  44.1538357
  22.1859901  12.0516059  55.1993641  21.7423755  11.2652438  54.8814545
  22.8477115  12.2395210  54.5337531  16.9447022  13.5811861  49.7254319
  17.4954447  13.4528924  48.9531313  16.1058498  13.8806750  49.3749212
  24.2841139  12.3318859  53.2275042  24.2659614  13.1527740  52.7355311
  25.2061059  12.2072934  53.4525183  20.7414193   9.8462989  54.0698550
  21.2742530   9.0851277  53.8397858  20.2128274   9.5536640  54.8122705
  23.8734171   4.9431666  38.1064627  23.3580794   5.7136270  38.3453014
  23.6011479   4.2696802  38.7297689  28.8468445   7.6964020  40.0417801
  28.0697888   7.3575180  39.5972963  29.5259926   7.7016643  39.3672766
  23.6620474   2.8158758  39.9324408  23.3570610   3.1304907  40.7834551
  24.6150916   2.8940178  39.9751741  22.1066906   8.9748981  41.5817362
  21.5788267   8.2401741  41.2690600  21.6054409   9.7523657  41.3357331
  27.0859752   7.1698002  46.6984409  26.4283426   7.8597263  46.7864537
  27.8900151   7.5594433  47.0418395  25.8965211   5.5242374  44.7488350
  26.4097092   6.1572366  45.2510060  26.5466435   4.9243570  44.3831710
  20.2519506   6.7929191  34.5852335  19.3446568   6.5618445  34.7843484
  20.7490538   5.9966811  34.7726317  23.1587585  15.5026699  37.5049021
  22.4849284  15.8058395  38.1133979  23.5453407  16.3055779  37.1554478
  22.3746042   2.9991830  46.9946691  21.4568603   3.2206777  46.8368379
  22.7906185   3.0738140  46.1358398  23.1581089   4.3983245  42.1249371
  23.9052908   4.9104643  41.8156493  23.4272679   4.0767298  42.9853765
  21.4307740   6.8941786  39.1076325  20.5218959   6.6100819  39.2048795
  21.4602823   7.3140865  38.2479632  26.6627007  10.5048376  42.8767493
  26.2089334   9.6639286  42.9332683  26.0320974  11.1409774  43.2142273
  25.6059927   1.4340362  44.1068160  24.8682683   0.9217748  44.4378403
  25.8586700   0.9940743  43.2951437  25.1059946  12.3424872  43.8117311
  25.3982921  12.9029929  43.0929677  25.6158567  12.6353433  44.5670470
  21.1283827   8.4350530  36.4464404  20.6903257   7.7186389  35.9870041
  21.8694268   8.6626645  35.8849495  20.0693571  13.1205223  44.9010764
  20.0269750  13.3466070  43.9719296  20.9856270  12.8868598  45.0496565
  23.5159205   3.5889291  51.7991393  23.8708593   3.8160764  52.6585859
  24.1631336   3.9207668  51.1768649  29.2456942   6.7107727  42.5040722
  29.1074841   6.9009323  41.5761912  28.8893161   7.4727110  42.9608774
  29.2726322   8.7784254  47.5151994  29.7062828   8.6859543  48.3635048
  29.9857902   8.7541754  46.8772010  18.1859372   9.9968252  44.6972727
  18.9799971   9.5018573  44.4955302  17.4751065   9.4686116  44.3340433
  23.0054217  12.3786348  49.0485095  23.0591239  12.9477284  49.8162811
  22.1368998  12.5488233  48.6839132  30.1341871   8.8207955  50.0484879
  30.3277761   9.7253765  50.2944154  30.0342489   8.3615374  50.8823464
  25.1956980   8.9714697  55.6225760  25.0442486   8.7425249  54.7055844
  25.1861659   9.9285299  55.6357105  21.9642316   6.5446610  50.6072026
  22.8934376   6.6957770  50.4340994  21.5433346   6.6330631  49.7520673
  20.7630648  10.5697274  48.3770564  20.6241734  10.2016059  49.2496502
  19.9745244  11.0844914  48.2054522  21.3578800  15.6706371  39.7196101
  21.5330556  15.1994414  40.5341723  20.6711588  16.2972137  39.9477361
  22.3135863   9.9478877  45.7659402  21.9785696   9.9079647  46.6617052
  21.8139809   9.2823593  45.2929812  25.2495055   7.2934911  36.0396462
  24.6324226   6.5681740  35.9429514  24.7811543   8.0544272  35.6963536
  18.9162408   5.0666467  50.7795663  19.6262026   4.4259659  50.7382281
  18.8731716   5.3179361  51.7021843  26.9049187  12.0033820  53.7002242
  26.8461733  11.3193040  53.0332825  27.3068705  12.7452810  53.2482868
  15.9239885  18.8195734  46.4935961  16.1636484  19.4514258  47.1714979
  15.0809082  18.4683774  46.7801320  26.9066594   9.9673404  51.9316222
  26.0193373   9.6299326  52.0542620  27.4765145   9.2356435  52.1684987
  20.4367747  14.6274856  48.8977465  20.3637919  15.4329828  49.4096769
  19.9945140  14.8266822  48.0725486  20.2257527  13.8646626  42.4080286
  19.4425049  14.4068306  42.5018511  20.9250272  14.3820606  42.8074527
  31.3883934   5.3781621  46.6932783  31.3773811   6.2606337  46.3226716
  30.5201314   5.0253172  46.4987320  22.8966431  14.5261690  51.0535623
  23.6094403  15.1609155  50.9811525  22.4056459  14.6225556  50.2375625
  24.6183958   8.4312943  42.6252915  23.6840236   8.5514405  42.4557619
  24.7960626   7.5285410  42.3612925  28.0056509   4.2730262  43.1602949
  28.4716961   5.1058254  43.0863252  28.4564010   3.8075244  43.8648208
  17.9478344  12.2756134  51.8741194  18.6487804  12.9092617  52.0270588
  17.4773459  12.6170865  51.1136834  26.0732740  10.6174083  40.1589101
  26.3492584  10.5030678  41.0682975  25.2037239  10.2191568  40.1201274
  25.7479630   4.8300741  49.6993745  25.0951081   5.0776649  49.0446197
  26.1260010   4.0164879  49.3656222  22.7086804  14.8660434  43.8021915
  22.8909199  14.0482090  44.2649667  23.5319790  15.0828127  43.3646805
  23.0428970  13.7928619  41.0636963  23.5716736  13.2821074  40.4507125
  23.3057189  13.4771150  41.9282496  21.7967203   5.5720552  56.1859782
  21.1207840   5.4714681  56.8562157  22.6194837   5.4159766  56.6495779
  13.5446062  11.8092489  48.8072297  14.1299499  11.0636177  48.9400201
  13.3470901  12.1196445  49.6908961  16.3984718  14.8443736  43.8234739
  15.7295093  15.3289864  43.3398779  16.2597587  15.0912957  44.7378118
  20.5389986  16.8787480  50.4217398  21.0908294  17.0419101  51.1866483
  20.8796180  17.4691917  49.7497423  25.3900861  11.7048737  56.2766052
  25.9340765  12.3178695  55.7821007  24.8087705  12.2628316  56.7933065
  23.6758373  14.8269455  47.4081080  23.5509513  14.0259195  46.8992025
  24.3337465  15.3215648  46.9195050  25.7393282  12.6278475  49.0360630
  24.7923617  12.5083826  48.9638957  26.0876055  11.7400973  49.1186891
  22.7439715  12.4231191  45.2364982  22.5964678  11.4947899  45.4172552
  23.5693209  12.4451282  44.7522057  26.3473837  13.2459750  46.3229855
  27.2720384  13.0402611  46.1854306  26.1789140  12.9976151  47.2319196
  26.1369153  13.7645418  41.6791946  26.3106031  13.1991840  40.9265799
  26.6298044  14.5646312  41.4971436  31.9908544   6.5281841  43.2982246
  32.4339690   5.7789166  42.9001369  31.1135055   6.5191977  42.9155978
  27.1244326  13.0812182  38.7788845  27.8195230  13.7018875  38.9976159
  27.4667476  12.2307533  39.0541223  29.0235749  10.5311888  40.3076175
  29.5487073  10.8699160  39.5825495  28.9358101   9.5958903  40.1239310
  20.6855798  14.4445961  52.4366052  20.9942924  14.1995108  53.3088752
  21.4831280  14.6492600  51.9484922  20.7076410  16.5983871  44.6671429
  20.2681400  16.1060250  45.3604285  21.4584527  16.0556838  44.4263504
  13.1868749  12.7895412  44.6696057  14.0126768  12.4899184  44.2894700
  12.8362801  12.0203034  45.1185845  18.1550282  12.1421880  46.7393730
  17.5330291  11.4792585  46.4395958  18.8255149  12.1683012  46.0567378
  28.7129655  11.1644791  55.6127373  27.9225199  11.1468930  55.0731873
  28.4763009  11.7033085  56.3676410  28.8327530   8.0137258  52.9260102
  28.8825535   7.8487265  53.8675625  28.7241453   7.1464517  52.5357983
  17.7163789  10.6925803  40.2152191  17.8651909  11.3761268  39.5618864
  18.5230232  10.6730893  40.7301647  26.1231292   3.9968186  54.2419409
  27.0241155   3.8574650  53.9503406  26.1979267   4.1622640  55.1817586
  30.3345727  10.4334199  53.1702123  30.0430535  10.7964180  54.0065584
  29.7217858   9.7201207  52.9915456  31.5341409   7.9987079  45.6904694
  32.3688300   8.4376883  45.8542254  31.6700538   7.5225732  44.8712939
  28.5832915   5.5566814  51.6382181  29.0587037   5.7494460  50.8301033
  27.6598480   5.6126000  51.3925565  21.2159194  13.1873934  37.6863938
  20.6433161  13.8064121  37.2334410  21.7891988  13.7373295  38.2203860
  27.2834584   2.4332574  49.8710487  28.2352007   2.5330671  49.8922711
  27.1138034   1.6410842  50.3808571  24.4356454  13.4711084  38.8172521
  25.3687127  13.4056645  39.0205396  24.3479667  14.3067351  38.3587053
  27.0644471  12.7876954  35.7776468  26.9858102  12.4536818  36.6712226
  27.8854137  13.2798722  35.7767940  29.7622662   5.6538693  48.9852787
  29.7298982   4.7154694  49.1712471  30.3723285   5.7322730  48.2518612
  21.6005993   4.5234746  35.0279991  22.5465097   4.3940955  35.0968409
  21.2220238   3.7849408  35.5049419  29.9117150   2.4449737  49.0311070
  29.3956199   1.6608194  48.8440999  30.7957099   2.1168454  49.1957589
  35.5799212   6.7154700  48.1258823  36.3102600   6.4539988  48.6866527
  34.9706157   5.9783422  48.1660891  33.6614509   4.8562563  48.7233275
  32.9347672   4.7218528  48.1149766  33.2461796   5.1639392  49.5289993
  21.4844685   8.5752493  56.4880648  22.4047695   8.7531092  56.6820694
  21.4494268   7.6308538  56.3360347  19.2165893   5.4883872  57.3371239
  18.7332975   6.2884232  57.5435128  19.3026832   5.4991817  56.3838683
  15.1439231   9.3788407  49.3739673  16.0982484   9.3472349  49.3069605
  14.9451754   8.9179030  50.1889899  15.7338613   7.9489523  51.9410471
  16.5531502   8.4433601  51.9645308  16.0075420   7.0321491  51.9128038
  25.4905209   0.3400275  41.3038426  24.6031064   0.6249926  41.0858621
  25.9059198   0.1794038  40.4565703  28.8419745   0.3646796  45.0192766
  29.6180135   0.8543248  45.2917382  28.1167879   0.7904850  45.4764635
  31.2792304   1.0774415  46.0766706  31.8736794   0.8370151  45.3660015
  31.3518887   0.3581546  46.7040243  13.4989459  14.9208026  46.3909871
  13.3643927  14.1608427  45.8247869  13.0821522  15.6448926  45.9238660
  24.6348422  10.1044950  35.3986446  25.3384273  10.3094952  36.0144102
  23.9111071  10.6721711  35.6635530  25.4646233   5.8554811  41.5188717
  25.4081434   6.3123362  40.6796349  26.0174575   5.0945495  41.3411559
  29.2751039   1.6444543  42.3438836  29.0187973   1.2441178  43.1747044
  28.6503907   2.3588337  42.2188975  33.5863376   4.3840616  44.8510127
  33.0262934   4.4533805  45.6241690  32.9806880   4.2081601  44.1309624
  16.6558585  15.8177343  46.6028314  16.5390969  16.7622776  46.5007004
  15.8351032  15.5150905  46.9914113  26.5435120  10.5427479  37.4484906
  27.3780724  10.1108677  37.2662381  26.3819463  10.3709492  38.3761801
  26.1981012   7.0459592  38.8141246  26.1429816   6.8803864  37.8729690
  25.5727067   7.7535625  38.9703435  23.5126919   9.3508504  58.1394809
  24.3818079   9.5249156  57.7781443  23.0333671  10.1702921  58.0170538
  17.6813099  16.4705605  49.8184242  18.5840346  16.5029215  50.1350737
  17.4550469  15.5406056  49.8330578  19.4366701  15.2236591  46.4794321
  18.4862332  15.2238453  46.3658693  19.7399188  14.4769326  45.9630355
  35.1719395  21.0597130  47.5440083  35.8097805  20.9403877  46.8403423
  35.0540238  22.0077974  47.6028035  31.9809101  21.0124558  47.4801608
  31.6427613  20.8965623  46.5922143  32.8498869  20.6115723  47.4602614
  27.8395917  22.8660034  43.4698499  27.2760782  22.7749971  42.7014787
  27.7248312  22.0459939  43.9500991  32.4628884  22.1659410  53.4387813
  32.4517525  21.7712208  52.5668317  32.6249524  21.4325482  54.0321585
  25.3860349  24.3611226  46.3082719  26.1781641  24.0202051  45.8929019
  25.6256999  24.4706201  47.2284873  33.4195476  26.5331002  38.7812964
  32.7683455  27.1185083  38.3946978  34.2139838  27.0637197  38.8408001
  27.3451103  23.6220139  39.1800098  28.1181979  23.0749126  39.0412974
  27.6976502  24.4864389  39.3914559  29.1836145  24.9496522  52.3866997
  28.8926011  25.8542152  52.2713664  29.8193130  24.9913049  53.1011067
  30.1092352  22.3273370  48.9768357  30.7055924  22.1029392  48.2625320
  30.1667324  21.5858116  49.5793805  29.6817381  19.7812805  36.8118548
  29.9342901  19.2594327  36.0502011  28.7441940  19.6178951  36.9145232
  34.7260663  18.7848584  44.6193291  35.5123753  18.3668007  44.2683708
  34.9899368  19.6894676  44.7874940  34.8970741  24.2221434  39.3181948
  34.2616574  24.2956061  40.0302853  34.5668147  24.8115033  38.6401027
  40.1269091  18.7223817  45.5226270  40.8594262  18.1523034  45.7564099
  39.3708446  18.3345417  45.9632775  29.4013669  21.6840911  39.0142923
  29.2849927  21.0085815  39.6824007  29.5115929  21.1973285  38.1975076
  31.7445210  21.1451058  42.7189612  31.3803417  20.6181679  43.4302534
  32.6012326  20.7549527  42.5456098  37.6494511  12.4345391  49.9820878
  37.3177836  13.3040802  49.7582093  37.0540124  12.1181675  50.6614909
  31.3850697  16.1740958  37.7150961  31.5525100  17.0421195  38.0821432
  31.1947866  16.3368240  36.7912250  34.1426030  24.6357937  49.3816791
  33.8426753  25.5382976  49.2732598  33.7977090  24.3690120  50.2337944
  27.5938512  21.0871734  45.4153495  26.6689008  20.9547948  45.6231187
  27.8422925  21.8665953  45.9123438  37.5423174  17.1540477  47.0614228
  36.6340052  17.0855886  46.7672989  37.4910770  17.6312422  47.8896054
  31.3639918  18.6298616  38.6997628  31.2439543  19.0755666  39.5383108
  30.6692506  18.9783933  38.1411166  24.9547323  20.7305007  46.2497285
  25.0839704  20.9839486  47.1636696  24.2744774  21.3232715  45.9301940
  29.1246810  31.4002257  42.3487759  29.0470840  32.3510082  42.4276239
  28.5208454  31.0548130  43.0062685  31.6164040  18.5730123  55.0049126
  30.8397374  19.1324043  54.9951990  32.2554603  19.0586906  55.5263996
  39.4084821  15.3556916  48.8392102  38.7659201  15.6489449  48.1931897
  38.9039749  15.2409836  49.6445299  37.0624984  19.1020089  39.5277962
  37.9742840  19.3347476  39.3525659  36.5534631  19.6857133  38.9653040
  29.8710412  21.3815576  54.5667093  30.6125097  21.9200620  54.2901916
  29.1647398  22.0081865  54.7238644  35.3465752  23.5244717  53.1639254
  35.7549108  23.0827127  52.4193887  34.6243013  22.9497344  53.4173447
  31.6996822  18.4617323  50.5372811  32.5458017  18.8856737  50.6807460
  31.6395460  17.8050948  51.2311374  35.6694567  24.0845907  46.9191543
  35.0403429  24.2491621  46.2167611  35.2820229  24.4987517  47.6902507
  39.5483798  25.0200345  44.2735907  38.8634837  25.3999246  43.7232940
  39.6327648  25.6295672  45.0067855  34.8496267  16.1221692  52.1953985
  34.6057199  16.8763752  51.6588260  35.1256198  16.5007039  53.0301232
  36.8034730  22.6660304  50.8731250  37.0151625  23.3092064  50.1965631
  36.7564478  21.8322621  50.4053180  34.4060959  15.2778125  47.7767822
  33.5445438  15.5759378  48.0684560  34.4323394  15.4948524  46.8448855
  31.2222528  23.8220315  44.1841628  31.6860874  24.1008018  43.3946251
  30.9579327  22.9203760  44.0014719  28.1146609  23.3691797  47.1221391
  28.6847967  23.7979065  46.4838876  28.7054721  23.0874382  47.8205577
  30.1591414  19.9443468  40.9931193  30.8615458  20.3964511  41.4605120
  29.8272043  19.3027287  41.6211086  28.6071776  18.5355224  55.3682403
  27.9770437  19.2171505  55.6017799  28.5007864  18.4238306  54.4235541
  23.9016748  18.2027020  46.2948327  23.1115802  18.4584549  45.8188437
  24.3927996  19.0175358  46.4000367  37.9180558  25.5432260  49.0453608
  38.7398002  25.1412447  48.7636289  37.9142961  25.4400494  49.9969723
  25.8531494  18.5671600  43.2531804  25.0562657  18.6790294  43.7715299
  25.6257086  18.9058252  42.3872694  31.6837161  25.0916303  51.2014318
  31.7481594  25.5536710  52.0372490  30.9748085  24.4613668  51.3296628
  22.1854451  18.4557511  48.7263318  22.4362490  19.3404521  48.9920894
  22.7214000  18.2762112  47.9538409  46.0086551  21.8871008  45.3938579
  45.2550259  21.3178406  45.2382584  46.1434092  21.8533673  46.3409214
  31.3985179  26.7584410  41.0693298  31.2630854  27.6035946  41.4978146
  31.9394992  26.9603688  40.3059232  27.8852519  12.8375990  57.7307654
  27.4919464  12.2842189  58.4055298  28.7018659  13.1486569  58.1214171
  24.8514576  24.2759848  41.6421224  25.3639097  25.0703099  41.7926788
  25.5037289  23.5786139  41.5754825  26.6609461  27.3925605  43.7243977
  26.8376090  28.3143569  43.5364961  27.4566295  27.0784024  44.1538357
  30.8020480  14.2533869  55.3227910  31.5430193  14.8541022  55.2432373
  31.0338403  13.5111507  54.7645953  25.9461818  19.4390237  53.6006140
  25.8315333  18.5375494  53.9013239  25.0906335  19.6853933  53.2490957
  33.0253655  27.3807977  55.1993641  32.5817510  26.5944355  54.8814545
  33.6870869  27.5687127  54.5337531  27.7840777  28.9103778  49.7254319
  28.3348202  28.7820842  48.9531313  26.9452253  29.2098667  49.3749212
  35.1234894  27.6610777  53.2275042  35.1053369  28.4819658  52.7355311
  36.0454814  27.5364852  53.4525183  31.5807948  25.1754906  54.0698550
  32.1136285  24.4143194  53.8397858  31.0522029  24.8828558  54.8122705
  34.7477643  10.2814972  49.5992192  34.4041912  11.1716614  49.5231303
  35.1156605  10.0916630  48.7361777  22.8163493  22.6048503  42.4180794
  23.6538715  23.0145511  42.2014502  22.9941761  21.6647945  42.3880988
  34.7127925  20.2723583  38.1064627  34.1974549  21.0428188  38.3453014
  34.4405234  19.5988719  38.7297689  32.2975036  15.1173284  43.1649865
  31.4416633  14.7280134  42.9855504  32.7101988  15.1965245  42.3049651
  33.8274183  12.6519627  47.5641425  33.3238979  12.6149763  46.7509230
  34.1204790  13.5612370  47.6238082  30.0717069  12.7358357  46.5707607
  30.9370066  12.5401166  46.2113496  30.1394578  12.5068709  47.4976964
  39.6862200  23.0255938  40.0417801  38.9091642  22.6867097  39.5972963
  40.3653680  23.0308561  39.3672766  34.5014229  18.1450675  39.9324408
  34.1964364  18.4596825  40.7834551  35.4544671  18.2232095  39.9751741
  32.9460660  24.3040899  41.5817362  32.4182022  23.5693658  41.2690600
  32.4448163  25.0815575  41.3357331  37.9253506  22.4989919  46.6984409
  37.2677181  23.1889181  46.7864537  38.7293906  22.8886351  47.0418395
  27.6779388  14.9660565  43.9423974  28.2523140  14.7435747  43.2097167
  28.2650370  15.0349260  44.6952575  36.7358965  20.8534292  44.7488350
  37.2490847  21.4864284  45.2510060  37.3860189  20.2535487  44.3831710
  28.0048975  16.9965026  37.9619859  27.1686287  17.3339713  38.2829134
  27.8653745  16.8614006  37.0246996  29.9802056  11.8401814  42.6699043
  29.3266468  11.5250831  42.0455658  29.9382530  11.2177554  43.3958866
  31.0913261  22.1221109  34.5852335  30.1840322  21.8910362  34.7843484
  31.5884293  21.3258728  34.7726317  33.9981339  30.8318616  37.5049021
  33.3243038  31.1350313  38.1133979  34.3847161  31.6347697  37.1554478
  33.2139796  18.3283747  46.9946691  32.2962357  18.5498694  46.8368379
  33.6299940  18.4030058  46.1358398  33.9974844  19.7275163  42.1249371
  34.7446663  20.2396560  41.8156493  34.2666433  19.4059216  42.9853765
  32.2701494  22.2233704  39.1076325  31.3612713  21.9392737  39.2048795
  32.2996578  22.6432782  38.2479632  37.5020761  25.8340293  42.8767493
  37.0483089  24.9931203  42.9332683  36.8714728  26.4701692  43.2142273
  36.4453681  16.7632279  44.1068160  35.7076438  16.2509666  44.4378403
  36.6980455  16.3232661  43.2951437  35.9453701  27.6716790  43.8117311
  36.2376675  28.2321847  43.0929677  36.4552321  27.9645351  44.5670470
  36.5465308   9.5408531  44.7009930  36.8524185   8.6805895  44.4135845
  37.2717913  10.1326152  44.5008924  22.8389664  19.9439218  43.0891528
  22.6414064  19.3508579  42.3642594  22.2836328  19.6391428  43.8067466
  30.8186388  19.8362324  45.2086121  30.8734998  18.8836161  45.1328597
  30.0077590  19.9921764  45.6927419  31.9677582  23.7642448  36.4464404
  31.5297012  23.0478306  35.9870041  32.7088023  23.9918562  35.8849495
  28.7578748  18.4539384  42.9676500  27.9446614  18.7533555  43.3741692
  29.2537742  18.0595073  43.6850982  30.9087326  28.4497141  44.9010764
  30.8663505  28.6757987  43.9719296  31.8250025  28.2160516  45.0496565
  34.3552960  18.9181209  51.7991393  34.7102347  19.1452682  52.6585859
  35.0025091  19.2499585  51.1768649  40.0850697  22.0399645  42.5040722
  39.9468595  22.2301241  41.5761912  39.7286915  22.8019027  42.9608774
  28.2492823  16.0257740  48.5837735  28.8892202  15.8846499  47.8860698
  27.4170353  15.7392253  48.2076337  40.1120076  24.1076172  47.5151994
  40.5456583  24.0151461  48.3635048  40.8251657  24.0833672  46.8772010
  29.0253127  25.3260170  44.6972727  29.8193725  24.8310490  44.4955302
  28.3144819  24.7978033  44.3340433  33.8447971  27.7078266  49.0485095
  33.8984993  28.2769202  49.8162811  32.9762752  27.8780151  48.6839132
  25.3335890  19.4703252  40.7732480  24.4033478  19.4087707  40.9902442
  25.4293362  18.9479205  39.9769121  25.2521439  15.9958065  43.3610721
  25.5128256  16.9103398  43.2519882  26.0738611  15.5282507  43.5107334
  26.7246365  17.4095822  50.5309546  27.3969418  17.2013184  49.8822195
  25.8976151  17.2117908  50.0914778  40.9735626  24.1499872  50.0484879
  41.1671516  25.0545683  50.2944154  40.8736244  23.6907291  50.8823464
  32.6271937  14.0357763  52.5475207  31.9799852  14.7347712  52.4539683
  33.3972952  14.4693907  52.9151455  36.0350734  24.3006615  55.6225760
  35.8836241  24.0717167  54.7055844  36.0255414  25.2577216  55.6357105
  32.8036071  21.8738528  50.6072026  33.7328131  22.0249687  50.4340994
  32.3827101  21.9622549  49.7520673  31.6024403  25.8989192  48.3770564
  31.4635488  25.5307977  49.2496502  30.8138999  26.4136832  48.2054522
  32.1972555  30.9998289  39.7196101  32.3724310  30.5286332  40.5341723
  31.5105343  31.6264055  39.9477361  33.1529618  25.2770795  45.7659402
  32.8179450  25.2371565  46.6617052  32.6533563  24.6115511  45.2929812
  27.1273862  20.6838425  51.2911983  26.9893660  19.9518664  51.8923522
  28.0378785  20.5947325  51.0096171  36.0888809  22.6226829  36.0396462
  35.4717980  21.8973657  35.9429514  35.6205298  23.3836189  35.6963536
  29.7556162  20.3958384  50.7795663  30.4655781  19.7551576  50.7382281
  29.7125471  20.6471279  51.7021843  37.7442941  27.3325738  53.7002242
  37.6855487  26.6484958  53.0332825  38.1462459  28.0744728  53.2482868
  28.4685096  17.3823602  52.5991302  27.9322453  16.9314341  53.2512898
  27.8801805  17.5169511  51.8561766  26.7633640  34.1487651  46.4935961
  27.0030238  34.7806176  47.1714979  25.9202836  33.7975691  46.7801320
  27.8787355  16.8412253  35.1617766  27.0016822  16.7201054  34.7980012
  28.3545108  16.0498332  34.9096654  37.7460348  25.2965321  51.9316222
  36.8587127  24.9591243  52.0542620  38.3158899  24.5648353  52.1684987
  19.3989495  21.6289413  45.2559273  20.0860535  21.3151143  44.6680288
  19.2437624  22.5330778  44.9826524  24.2024218  16.5179610  49.6844297
  24.1182406  15.9105279  48.9494707  23.3806924  17.0088628  49.6853793
  31.2761502  29.9566774  48.8977465  31.2031673  30.7621745  49.4096769
  30.8338895  30.1558740  48.0725486  31.0651281  29.1938544  42.4080286
  30.2818803  29.7360224  42.5018511  31.7644027  29.7112523  42.8074527
  34.3747931  15.0033173  45.0514492  34.8716631  14.2503136  44.7315562
  33.6034913  15.0397490  44.4857701  42.2277689  20.7073539  46.6932783
  42.2167565  21.5898254  46.3226716  41.3595068  20.3545090  46.4987320
  33.7360185  29.8553608  51.0535623  34.4488157  30.4901073  50.9811525
  33.2450214  29.9517474  50.2375625  35.4577712  23.7604861  42.6252915
  34.5233991  23.8806323  42.4557619  35.6354381  22.8577327  42.3612925
  30.9582900  17.1450556  44.7786176  30.5880688  16.5921597  45.4667082
  31.4541993  16.5408690  44.2261176  38.8450264  19.6022180  43.1602949
  39.3110716  20.4350171  43.0863252  39.2957764  19.1367161  43.8648208
  28.7872099  27.6048051  51.8741194  29.4881558  28.2384534  52.0270588
  28.3167214  27.9462783  51.1136834  36.9126495  25.9466001  40.1589101
  37.1886339  25.8322596  41.0682975  36.0430993  25.5483486  40.1201274
  36.8166926  11.9702767  47.1993851  35.9030006  12.2006994  47.3676058
  37.2460028  12.0541211  48.0507883  36.5873385  20.1592659  49.6993745
  35.9344835  20.4068566  49.0446197  36.9653765  19.3456797  49.3656222
  33.5480559  30.1952352  43.8021915  33.7302953  29.3774008  44.2649667
  34.3713545  30.4120044  43.3646805  33.8822724  29.1220537  41.0636963
  34.4110491  28.6112992  40.4507125  34.1450944  28.8063067  41.9282496
  32.6360958  20.9012470  56.1859782  31.9601595  20.8006599  56.8562157
  33.4588592  20.7451684  56.6495779  24.3839817  27.1384406  48.8072297
  24.9693254  26.3928094  48.9400201  24.1864655  27.4488363  49.6908961
  27.2378472  30.1735654  43.8234739  26.5688847  30.6581781  43.3398779
  27.0991342  30.4204874  44.7378118  18.9757472  19.7090007  47.5276740
  19.0141571  19.1753597  48.3213858  18.4697764  19.1825212  46.9087717
  31.3783741  32.2079397  50.4217398  31.9302049  32.3711019  51.1866483
  31.7189934  32.7983835  49.7497423  26.3548234  14.5554547  51.0239282
  26.4189560  15.4169378  50.6116680  26.2915354  13.9428549  50.2911641
  25.8300506  16.6277680  54.6712317  26.4572545  16.2454757  55.2849841
  24.9728425  16.4091882  55.0368009  36.2294615  27.0340655  56.2766052
  36.7734519  27.6470613  55.7821007  35.6481460  27.5920233  56.7933065
  22.6066049  18.4354109  40.6030671  22.9019490  17.5264787  40.5497725
  21.7054085  18.4141848  40.2811674  34.5152128  30.1561373  47.4081080
  34.3903267  29.3551113  46.8992025  35.1731219  30.6507566  46.9195050
  26.1360296  16.5110105  46.5858220  25.4146882  17.1246073  46.4465693
  26.9253552  17.0467870  46.5074866  36.5787036  27.9570393  49.0360630
  35.6317372  27.8375744  48.9638957  36.9269809  27.0692891  49.1186891
  28.9386610  13.8464532  52.8598872  29.4621012  14.0926828  53.6225181
  28.7198943  14.6784567  52.4402009  24.3353891  16.1168206  40.7269997
  24.0066597  15.2365585  40.5445103  24.6893261  16.0615875  41.6146386
  33.5833470  27.7523109  45.2364982  33.4358432  26.8239817  45.4172552
  34.4086963  27.7743200  44.7522057  27.4495714  16.4041176  41.0945474
  27.7891786  16.9327097  40.3724083  27.8967834  16.7421582  41.8704041
  37.1867591  28.5751668  46.3229855  38.1114139  28.3694529  46.1854306
  37.0182895  28.3268069  47.2319196  30.1439155  14.7878227  50.5448542
  29.8035975  13.9886040  50.9469222  29.4378161  15.0879938  49.9725376
  30.7955627  11.8727539  48.9975865  31.6181696  11.3988018  48.8754756
  31.0393690  12.6518023  49.4974552  29.4363861  14.9015798  39.2938767
  30.1572224  15.2797051  38.7902484  28.8129165  15.6204675  39.3973745
  33.5794984  15.6060947  40.2297099  33.7958598  16.4885585  39.9285928
  33.0989051  15.2147160  39.5002741  28.3194205  18.5646660  46.8067844
  28.1738786  18.8786963  47.6992125  27.8419409  19.1831560  46.2538743
  30.1790588  15.5549208  46.8548734  30.1652157  14.6590301  46.5181031
  30.8963016  15.5619872  47.4887020  32.0316719  15.9886548  48.9001861
  31.7734497  16.9103619  48.8986191  31.5001759  15.5916983  49.5902325
  36.9762908  29.0937335  41.6791946  37.1499785  28.5283758  40.9265799
  37.4691799  29.8938230  41.4971436  22.7939868  21.1052004  49.7455505
  22.2493336  21.8811812  49.8775779  23.6719217  21.4522809  49.5874627
  29.5827484  14.4363588  42.1236304  29.7043395  13.5080234  42.3227191
  29.2929527  14.4502274  41.2114619  32.4518675  12.1218499  45.2603024
  32.4740371  12.1857832  44.3055003  32.8686734  11.2823007  45.4543530
  42.8302299  21.8573758  43.2982246  43.2733445  21.1081083  42.9001369
  41.9528809  21.8483895  42.9155978  37.9638080  28.4104100  38.7788845
  38.6588985  29.0310792  38.9976159  38.3061230  27.5599451  39.0541223
  23.5805889  20.2321901  52.6385662  22.8387625  20.3804536  53.2250292
  23.2598634  20.4930166  51.7752411  39.8629503  25.8603805  40.3076175
  40.3880827  26.1991078  39.5825495  39.7751856  24.9250821  40.1239310
  31.5249552  29.7737879  52.4366052  31.8336678  29.5287026  53.3088752
  32.3225034  29.9784517  51.9484922  31.5470164  31.9275788  44.6671429
  31.1075154  31.4352167  45.3604285  32.2978281  31.3848756  44.4263504
  24.0262503  28.1187329  44.6696057  24.8520523  27.8191101  44.2894700
  23.6756555  27.3494952  45.1185845  28.9944036  27.4713798  46.7393730
  28.3724045  26.8084503  46.4395958  29.6648903  27.4974929  46.0567378
  22.2271108  26.0373656  45.6284990  21.3903016  25.6095830  45.4468992
  22.1994754  26.2306099  46.5655781  29.0668564  15.9495586  56.3326236
  29.1156719  16.8257708  55.9504006  29.6091078  15.4072979  55.7597880
  39.5523409  26.4936709  55.6127373  38.7618953  26.4760848  55.0731873
  39.3156764  27.0325003  56.3676410  39.6721284  23.3429175  52.9260102
  39.7219289  23.1779183  53.8675625  39.5635208  22.4756434  52.5357983
  28.5557543  26.0217721  40.2152191  28.7045663  26.7053185  39.5618864
  29.3623987  26.0022811  40.7301647  36.9625047  19.3260103  54.2419409
  37.8634910  19.1866568  53.9503406  37.0373021  19.4914558  55.1817586
  31.2967852  16.7026958  53.0872595  30.4271162  16.9960524  52.8155183
  31.5327333  17.2867403  53.8079859  41.1739481  25.7626117  53.1702123
  40.8824290  26.1256097  54.0065584  40.5611613  25.0493125  52.9915456
  42.3735164  23.3278997  45.6904694  43.2082055  23.7668801  45.8542254
  42.5094292  22.8517650  44.8712939  39.4226670  20.8858731  51.6382181
  39.8980791  21.0786378  50.8301033  38.4992235  20.9417917  51.3925565
  26.3110176  22.0482899  41.2213260  26.0656218  21.1445229  41.4193470
  26.4806091  22.0500049  40.2792738  34.0006886  12.9206575  50.6038015
  34.5188830  13.6567602  50.2784504  33.6462019  13.2270568  51.4384774
  25.5805824  17.7811256  38.7199421  24.8875069  17.8555611  38.0639457
  25.3357576  17.0171600  39.2420938  34.2519480   9.3406857  46.1238912
  34.5321234   8.6730047  46.7499338  35.0370087   9.5335953  45.6113576
  32.0552949  28.5165851  37.6863938  31.4826916  29.1356039  37.2334410
  32.6285742  29.0665213  38.2203860  38.1228338  17.7624491  49.8710487
  39.0745761  17.8622589  49.8922711  37.9531789  16.9702760  50.3808571
  36.1442718  14.8480075  50.0569888  35.5492650  15.1285087  49.3616377
  35.8592415  15.3373976  50.8286629  35.2750208  28.8003001  38.8172521
  36.2080882  28.7348563  39.0205396  35.1873421  29.6359268  38.3587053
  37.9038225  28.1168872  35.7776468  37.8251857  27.7828735  36.6712226
  38.7247892  28.6090640  35.7767940  40.6016416  20.9830611  48.9852787
  40.5692736  20.0446612  49.1712471  41.2117040  21.0614648  48.2518612
  32.4399747  19.8526664  35.0279991  33.3858852  19.7232872  35.0968409
  32.0613992  19.1141326  35.5049419  40.7510905  17.7741655  49.0311070
  40.2349953  16.9900111  48.8440999  41.6350853  17.4460371  49.1957589
  38.4121632  11.5182670  44.9906883  38.2146453  11.2097758  45.8750215
  39.0221337  12.2444309  45.1204812  46.4192966  22.0446618  48.1258823
  47.1496355  21.7831906  48.6866527  45.8099912  21.3075340  48.1660891
  44.5008263  20.1854481  48.7233275  43.7741427  20.0510446  48.1149766
  44.0855550  20.4931309  49.5289993  32.3238440  23.9044410  56.4880648
  33.2441449  24.0823009  56.6820694  32.2888023  22.9600456  56.3360347
  30.6242664  17.7776641  34.9634876  29.7174120  17.4809753  35.0397590
  30.9018645  17.4806459  34.0969162  21.5420605  19.0983004  45.4133922
  21.2223389  18.2448312  45.1208296  20.9954033  19.3131582  46.1691890
  25.3200512  21.8145445  49.1303429  25.5386522  22.7462553  49.1491463
  25.7326286  21.4553419  49.9158233  32.2404730  12.3213530  41.1179117
  31.4305458  11.9760615  41.4934363  32.9289147  12.0121074  41.7066729
  34.1695278  11.3991577  42.7403414  34.7226317  11.8187030  43.3993437
  34.4065365  10.4727325  42.7826370  30.1928378  17.3878651  58.5206178
  30.0925104  18.3373008  58.4518269  29.9749920  17.0596890  57.6482248
  29.3941449  14.6363576  35.1046855  30.2560613  14.9618474  35.3642672
  29.5791793  13.8495072  34.5919921  21.4108865  22.7185915  47.3827044
  20.7172336  22.3039868  46.8696998  22.1581856  22.7606452  46.7860463
  37.5474085  13.5092102  42.2482078  36.9672754  14.1676906  41.8660131
  37.2810018  12.6869447  41.8369496  35.9977652  12.9097160  44.4503398
  36.4977430  13.0213694  43.6417717  36.6413260  12.6058213  45.0904207
  30.0559648  20.8175790  57.3371239  29.5726729  21.6176150  57.5435128
  30.1420587  20.8283734  56.3838683  23.3245607  22.6504169  45.2593059
  23.3016295  22.7491856  44.3074942  23.6346244  23.4969320  45.5810225
  25.9832985  24.7080324  49.3739673  26.9376239  24.6764267  49.3069605
  25.7845509  24.2470948  50.1889899  26.5732367  23.2781440  51.9410471
  27.3925256  23.7725519  51.9645308  26.8469175  22.3613408  51.9128038
  36.3298963  15.6692193  41.3038426  35.4424818  15.9541843  41.0858621
  36.7452952  15.5085956  40.4565703  39.6813500  15.6938714  45.0192766
  40.4573890  16.1835166  45.2917382  38.9561634  16.1196768  45.4764635
  42.1186058  16.4066333  46.0766706  42.7130549  16.1662069  45.3660015
  42.1912642  15.6873463  46.7040243  24.3383214  30.2499944  46.3909871
  24.2037682  29.4900345  45.8247869  23.9215276  30.9740844  45.9238660
  35.4742177  25.4336867  35.3986446  36.1778027  25.6386870  36.0144102
  34.7504826  26.0013629  35.6635530  36.3039987  21.1846729  41.5188717
  36.2475189  21.6415280  40.6796349  36.8568330  20.4237413  41.3411559
  40.1144793  16.9736460  42.3438836  39.8581727  16.5733096  43.1747044
  39.4897661  17.6880254  42.2188975  44.4257131  19.7132534  44.8510127
  43.8656689  19.7825723  45.6241690  43.8200634  19.5373518  44.1309624
  27.4952340  31.1469261  46.6028314  27.3784724  32.0914693  46.5007004
  26.6744786  30.8442822  46.9914113  37.3828874  25.8719396  37.4484906
  38.2174478  25.4400595  37.2662381  37.2213217  25.7001410  38.3761801
  37.0374766  22.3751510  38.8141246  36.9823570  22.2095781  37.8729690
  36.4120822  23.0827543  38.9703435  21.8267281  17.6119574  52.6402668
  22.4726145  17.1018528  53.1289893  21.6184433  18.3488256  53.2146093
  34.3520674  24.6800422  58.1394809  35.2211833  24.8541074  57.7781443
  33.8727425  25.4994838  58.0170538  30.3470892  11.8759619  38.3926564
  30.3349562  12.8201459  38.5494835  31.2394314  11.6929764  38.0986025
  28.5206854  31.7997523  49.8184242  29.4234101  31.8321133  50.1350737
  28.2944224  30.8697974  49.8330578  30.2760456  30.5528509  46.4794321
  29.3256087  30.5530371  46.3658693  30.5792942  29.8061244  45.9630355
  34.1623011   8.4702395  42.6472501  33.3955407   7.9160882  42.7929183
  34.5733716   8.5424264  43.5086653  26.1664772  14.7587191  56.7377682
  27.0296234  14.4023996  56.9481007  25.5930183  14.4201086  57.4253086
  38.6789671  38.1951952  43.4698499  38.1154536  38.1041889  42.7014787
  38.5642066  37.3751857  43.9500991  38.1844857  38.9512057  39.1800098
  38.9575733  38.4041044  39.0412974  38.5370256  39.8156306  39.3914559
  40.5211135  35.1104723  36.8118548  40.7736656  34.5886244  36.0502011
  39.5835694  34.9470868  36.9145232  45.5654418  34.1140501  44.6193291
  46.3517507  33.6959925  44.2683708  45.8293122  35.0186594  44.7874940
  50.9662845  34.0515735  45.5226270  51.6988017  33.4814951  45.7564099
  50.2102201  33.6637335  45.9632775  40.2407424  37.0132829  39.0142923
  40.1243682  36.3377732  39.6824007  40.3509684  36.5265203  38.1975076
  42.5838965  36.4742976  42.7189612  42.2197172  35.9473597  43.4302534
  43.4406081  36.0841445  42.5456098  48.4888265  27.7637309  49.9820878
  48.1571590  28.6332720  49.7582093  47.8933879  27.4473593  50.6614909
  42.2244452  31.5032876  37.7150961  42.3918854  32.3713112  38.0821432
  42.0341621  31.6660157  36.7912250  38.4332266  36.4163652  45.4153495
  37.5082763  36.2839866  45.6231187  38.6816680  37.1957871  45.9123438
  42.2033673  33.9590533  38.6997628  42.0833298  34.4047584  39.5383108
  41.5086261  34.3075851  38.1411166  35.7941077  36.0596925  46.2497285
  35.9233459  36.3131404  47.1636696  35.1138529  36.6524633  45.9301940
  50.2478575  30.6848833  48.8392102  49.6052955  30.9781366  48.1931897
  49.7433504  30.5701754  49.6445299  40.9985169  35.2735385  40.9931193
  41.7009212  35.7256429  41.4605120  40.6665797  34.6319204  41.6211086
  39.4465531  33.8647142  55.3682403  38.8164191  34.5463423  55.6017799
  39.3401618  33.7530224  54.4235541  34.7410503  33.5318938  46.2948327
  33.9509557  33.7876467  45.8188437  35.2321750  34.3467276  46.4000367
  36.6925248  33.8963517  43.2531804  35.8956412  34.0082212  43.7715299
  36.4650841  34.2350170  42.3872694  33.0248206  33.7849428  48.7263318
  33.2756244  34.6696438  48.9920894  33.5607754  33.6054030  47.9538409
  38.7246273  28.1667908  57.7307654  38.3313219  27.6134106  58.4055298
  39.5412414  28.4778486  58.1214171  35.6908331  39.6051766  41.6421224
  36.2032852  40.3995016  41.7926788  36.3431044  38.9078056  41.5754825
  41.6414234  29.5825787  55.3227910  42.3823948  30.1832940  55.2432373
  41.8732157  28.8403425  54.7645953  36.7855572  34.7682154  53.6006140
  36.6709087  33.8667411  53.9013239  35.9300090  35.0145851  53.2490957
  45.5871397  25.6106890  49.5992192  45.2435667  26.5008532  49.5231303
  45.9550360  25.4208548  48.7361777  33.6557248  37.9340420  42.4180794
  34.4932470  38.3437429  42.2014502  33.8335515  36.9939863  42.3880988
  45.5521680  35.6015501  38.1064627  45.0368303  36.3720106  38.3453014
  45.2798988  34.9280637  38.7297689  43.1368791  30.4465202  43.1649865
  42.2810387  30.0572052  42.9855504  43.5495743  30.5257163  42.3049651
  44.6667938  27.9811545  47.5641425  44.1632733  27.9441680  46.7509230
  44.9598544  28.8904288  47.6238082  40.9110823  28.0650275  46.5707607
  41.7763820  27.8693083  46.2113496  40.9788332  27.8360627  47.4976964
  45.3407983  33.4742593  39.9324408  45.0358119  33.7888742  40.7834551
  46.2938425  33.5524013  39.9751741  38.5173143  30.2952483  43.9423974
  39.0916894  30.0727664  43.2097167  39.1044125  30.3641177  44.6952575
  47.5752720  36.1826210  44.7488350  48.0884601  36.8156201  45.2510060
  48.2253944  35.5827405  44.3831710  38.8442730  32.3256944  37.9619859
  38.0080042  32.6631630  38.2829134  38.7047499  32.1905924  37.0246996
  40.8195810  27.1693732  42.6699043  40.1660223  26.8542749  42.0455658
  40.7776284  26.5469472  43.3958866  41.9307015  37.4513027  34.5852335
  41.0234077  37.2202280  34.7843484  42.4278047  36.6550646  34.7726317
  44.8368598  35.0567081  42.1249371  45.5840417  35.5688478  41.8156493
  45.1060188  34.7351134  42.9853765  43.1095249  37.5525622  39.1076325
  42.2006468  37.2684654  39.2048795  43.1390332  37.9724700  38.2479632
  47.2847435  32.0924197  44.1068160  46.5470192  31.5801583  44.4378403
  47.5374209  31.6524579  43.2951437  47.3859063  24.8700449  44.7009930
  47.6917940  24.0097812  44.4135845  48.1111668  25.4618069  44.5008924
  33.6783419  35.2731136  43.0891528  33.4807819  34.6800496  42.3642594
  33.1230083  34.9683346  43.8067466  41.6580143  35.1654242  45.2086121
  41.7128752  34.2128079  45.1328597  40.8471345  35.3213681  45.6927419
  39.5972502  33.7831302  42.9676500  38.7840368  34.0825472  43.3741692
  40.0931497  33.3886991  43.6850982  39.0886577  31.3549657  48.5837735
  39.7285957  31.2138417  47.8860698  38.2564108  31.0684171  48.2076337
  36.1729645  34.7995170  40.7732480  35.2427233  34.7379625  40.9902442
  36.2687117  34.2771122  39.9769121  36.0915194  31.3249982  43.3610721
  36.3522011  32.2395316  43.2519882  36.9132366  30.8574425  43.5107334
  37.5640119  32.7387740  50.5309546  38.2363172  32.5305102  49.8822195
  36.7369906  32.5409826  50.0914778  43.4665691  29.3649680  52.5475207
  42.8193606  30.0639630  52.4539683  44.2366706  29.7985824  52.9151455
  37.9667616  36.0130343  51.2911983  37.8287414  35.2810581  51.8923522
  38.8772540  35.9239243  51.0096171  39.3078851  32.7115520  52.5991302
  38.7716208  32.2606258  53.2512898  38.7195559  32.8461429  51.8561766
  38.7181110  32.1704171  35.1617766  37.8410576  32.0492972  34.7980012
  39.1938863  31.3790249  34.9096654  30.2383250  36.9581331  45.2559273
  30.9254290  36.6443061  44.6680288  30.0831379  37.8622696  44.9826524
  35.0417972  31.8471527  49.6844297  34.9576161  31.2397197  48.9494707
  34.2200679  32.3380546  49.6853793  45.2141686  30.3325091  45.0514492
  45.7110386  29.5795053  44.7315562  44.4428667  30.3689408  44.4857701
  41.7976655  32.4742474  44.7786176  41.4274442  31.9213514  45.4667082
  42.2935747  31.8700607  44.2261176  47.6560681  27.2994684  47.1993851
  46.7423761  27.5298911  47.3676058  48.0853782  27.3833129  48.0507883
  29.8151226  35.0381924  47.5276740  29.8535326  34.5045515  48.3213858
  29.3091519  34.5117130  46.9087717  37.1941988  29.8846465  51.0239282
  37.2583315  30.7461296  50.6116680  37.1309109  29.2720466  50.2911641
  36.6694261  31.9569597  54.6712317  37.2966300  31.5746675  55.2849841
  35.8122180  31.7383799  55.0368009  33.4459804  33.7646026  40.6030671
  33.7413245  32.8556705  40.5497725  32.5447839  33.7433766  40.2811674
  36.9754051  31.8402023  46.5858220  36.2540636  32.4537991  46.4465693
  37.7647306  32.3759788  46.5074866  39.7780364  29.1756449  52.8598872
  40.3014766  29.4218746  53.6225181  39.5592697  30.0076484  52.4402009
  35.1747645  31.4460124  40.7269997  34.8460351  30.5657503  40.5445103
  35.5287016  31.3907793  41.6146386  38.2889468  31.7333094  41.0945474
  38.6285541  32.2619015  40.3724083  38.7361589  32.0713500  41.8704041
  40.9832909  30.1170145  50.5448542  40.6429730  29.3177958  50.9469222
  40.2771916  30.4171855  49.9725376  41.6349381  27.2019457  48.9975865
  42.4575450  26.7279935  48.8754756  41.8787445  27.9809941  49.4974552
  40.2757616  30.2307715  39.2938767  40.9965978  30.6088968  38.7902484
  39.6522920  30.9496592  39.3973745  44.4188738  30.9352864  40.2297099
  44.6352353  31.8177502  39.9285928  43.9382806  30.5439078  39.5002741
  39.1587960  33.8938578  46.8067844  39.0132541  34.2078881  47.6992125
  38.6813163  34.5123478  46.2538743  41.0184343  30.8841126  46.8548734
  41.0045911  29.9882219  46.5181031  41.7356771  30.8911789  47.4887020
  40.4221239  29.7655506  42.1236304  40.5437150  28.8372152  42.3227191
  40.1323281  29.7794192  41.2114619  43.2912429  27.4510416  45.2603024
  43.3134126  27.5149749  44.3055003  43.7080488  26.6114925  45.4543530
  33.0664863  41.3665573  45.6284990  32.2296771  40.9387748  45.4468992
  33.0388508  41.5598017  46.5655781  39.9062318  31.2787503  56.3326236
  39.9550474  32.1549626  55.9504006  40.4484832  30.7364896  55.7597880
  39.3951298  41.3509639  40.2152191  39.5439418  42.0345103  39.5618864
  40.2017741  41.3314729  40.7301647  42.1361607  32.0318876  53.0872595
  41.2664916  32.3252442  52.8155183  42.3721087  32.6159321  53.8079859
  37.1503931  37.3774816  41.2213260  36.9049973  36.4737146  41.4193470
  37.3199845  37.3791967  40.2792738  44.8400640  28.2498493  50.6038015
  45.3582584  28.9859520  50.2784504  44.4855773  28.5562486  51.4384774
  36.4199578  33.1103174  38.7199421  35.7268823  33.1847529  38.0639457
  36.1751330  32.3463517  39.2420938  45.0913235  24.6698775  46.1238912
  45.3714988  24.0021964  46.7499338  45.8763842  24.8627871  45.6113576
  46.9836472  30.1771992  50.0569888  46.3886405  30.4577005  49.3616377
  46.6986169  30.6665893  50.8286629  43.2793502  35.1818582  35.0279991
  44.2252606  35.0524790  35.0968409  42.9007747  34.4433244  35.5049419
  49.2515386  26.8474588  44.9906883  49.0540207  26.5389676  45.8750215
  49.8615092  27.5736227  45.1204812  41.4636419  33.1068558  34.9634876
  40.5567874  32.8101671  35.0397590  41.7412400  32.8098376  34.0969162
  32.3814359  34.4274922  45.4133922  32.0617144  33.5740230  45.1208296
  31.8347787  34.6423500  46.1691890  43.0798485  27.6505448  41.1179117
  42.2699213  27.3052533  41.4934363  43.7682901  27.3412992  41.7066729
  45.0089033  26.7283495  42.7403414  45.5620071  27.1478948  43.3993437
  45.2459119  25.8019243  42.7826370  41.0322132  32.7170568  58.5206178
  40.9318859  33.6664925  58.4518269  40.8143674  32.3888807  57.6482248
  40.2335203  29.9655493  35.1046855  41.0954367  30.2910392  35.3642672
  40.4185548  29.1786989  34.5919921  32.2502619  38.0477833  47.3827044
  31.5566091  37.6331786  46.8696998  32.9975610  38.0898370  46.7860463
  48.3867840  28.8384020  42.2482078  47.8066509  29.4968824  41.8660131
  48.1203773  28.0161364  41.8369496  46.8371406  28.2389078  44.4503398
  47.3371185  28.3505612  43.6417717  47.4807014  27.9350130  45.0904207
  34.1639362  37.9796087  45.2593059  34.1410050  38.0783774  44.3074942
  34.4739998  38.8261238  45.5810225  47.1692718  30.9984110  41.3038426
  46.2818573  31.2833761  41.0858621  47.5846707  30.8377874  40.4565703
  50.5207254  31.0230631  45.0192766  51.2967644  31.5127084  45.2917382
  49.7955388  31.4488685  45.4764635  52.9579813  31.7358250  46.0766706
  53.5524303  31.4953986  45.3660015  53.0306396  31.0165381  46.7040243
  32.6661036  32.9411492  52.6402668  33.3119900  32.4310446  53.1289893
  32.4578187  33.6780173  53.2146093  41.1864646  27.2051536  38.3926564
  41.1743316  28.1493376  38.5494835  42.0788068  27.0221682  38.0986025
  45.0016766  23.7994313  42.6472501  44.2349162  23.2452800  42.7929183
  45.4127471  23.8716182  43.5086653  37.0058527  30.0879109  56.7377682
  37.8689989  29.7315914  56.9481007  36.4323938  29.7493004  57.4253086
  68.0980475  52.7030453  48.1258823  68.8283864  52.4415741  48.6866527
  67.4887421  51.9659175  48.1660891  61.9122712  60.6239329  35.1046855
  62.7741876  60.9494227  35.3642672  62.0973057  59.8370825  34.5919921
  78.5294413  82.3764801  47.5440083  79.1672823  82.2571548  46.8403423
  78.4115256  83.3245645  47.6028035  76.7770494  87.8498673  38.7812964
  76.1258473  88.4352753  38.3946978  77.5714856  88.3804868  38.8408001
  72.5411163  86.2664192  52.3866997  72.2501029  87.1709823  52.2713664
  73.1768148  86.3080720  53.1011067  78.2545759  85.5389105  39.3181948
  77.6191592  85.6123731  40.0302853  77.9243165  86.1282704  38.6401027
  83.4844108  80.0391488  45.5226270  84.2169280  79.4690704  45.7564099
  82.7283464  79.6513088  45.9632775  77.5001048  85.9525608  49.3816791
  77.2001771  86.8550647  49.2732598  77.1552108  85.6857791  50.2337944
  80.8998192  78.4708148  47.0614228  79.9915069  78.4023556  46.7672989
  80.8485788  78.9480093  47.8896054  72.4821828  92.7169928  42.3487759
  72.4045858  93.6677753  42.4276239  71.8783472  92.3715801  43.0062685
  82.7659839  76.6724586  48.8392102  82.1234219  76.9657119  48.1931897
  82.2614767  76.5577507  49.6445299  80.4200002  80.4187760  39.5277962
  81.3317858  80.6515146  39.3525659  79.9109649  81.0024804  38.9653040
  79.0269585  85.4013578  46.9191543  78.3978447  85.5659292  46.2167611
  78.6395247  85.8155188  47.6902507  82.9058816  86.3368016  44.2735907
  82.2209855  86.7166917  43.7232940  82.9902666  86.9463342  45.0067855
  80.1609748  83.9827975  50.8731250  80.3726643  84.6259735  50.1965631
  80.1139496  83.1490291  50.4053180  74.5797546  85.1387986  44.1841628
  75.0435892  85.4175689  43.3946251  74.3154344  84.2371431  44.0014719
  81.2755576  86.8599930  49.0453608  82.0973020  86.4580118  48.7636289
  81.2717979  86.7568164  49.9969723  75.0412179  86.4083974  51.2014318
  75.1056612  86.8704381  52.0372490  74.3323103  85.7781338  51.3296628
  89.3661569  83.2038679  45.3938579  88.6125277  82.6346077  45.2382584
  89.5009110  83.1701343  46.3409214  74.7560197  88.0752081  41.0693298
  74.6205872  88.9203617  41.4978146  75.2970010  88.2771359  40.3059232
  70.0184479  88.7093275  43.7243977  70.1951107  89.6311240  43.5364961
  70.8141313  88.3951695  44.1538357  76.3828673  88.6975648  55.1993641
  75.9392528  87.9112026  54.8814545  77.0445887  88.8854798  54.5337531
  71.1415795  90.2271449  49.7254319  71.6923220  90.0988512  48.9531313
  70.3027271  90.5266338  49.3749212  78.4809912  88.9778447  53.2275042
  78.4628387  89.7987329  52.7355311  79.4029832  88.8532523  53.4525183
  78.0702943  81.5891254  38.1064627  77.5549567  82.3595859  38.3453014
  77.7980252  80.9156390  38.7297689  83.0437217  84.3423609  40.0417801
  82.2666660  84.0034768  39.5972963  83.7228698  84.3476232  39.3672766
  77.8589247  79.4618346  39.9324408  77.5539382  79.7764495  40.7834551
  78.8119689  79.5399766  39.9751741  76.3035678  85.6208569  41.5817362
  75.7757040  84.8861329  41.2690600  75.8023181  86.3983246  41.3357331
  81.2828524  83.8157590  46.6984409  80.6252199  84.5056851  46.7864537
  82.0868924  84.2054022  47.0418395  80.0933983  82.1701963  44.7488350
  80.6065865  82.8031954  45.2510060  80.7435207  81.5703158  44.3831710
  74.4488279  83.4388780  34.5852335  73.5415340  83.2078033  34.7843484
  74.9459311  82.6426399  34.7726317  77.3556357  92.1486287  37.5049021
  76.6818056  92.4517984  38.1133979  77.7422179  92.9515367  37.1554478
  75.6276512  83.5401375  39.1076325  74.7187731  83.2560407  39.2048795
  75.6571596  83.9600453  38.2479632  80.8595779  87.1507964  42.8767493
  80.4058107  86.3098874  42.9332683  80.2289746  87.7869362  43.2142273
  79.3028719  88.9884461  43.8117311  79.5951693  89.5489518  43.0929677
  79.8127339  89.2813022  44.5670470  75.3252600  85.0810118  36.4464404
  74.8872030  84.3645977  35.9870041  76.0663041  85.3086233  35.8849495
  74.2662344  89.7664812  44.9010764  74.2238523  89.9925658  43.9719296
  75.1825043  89.5328186  45.0496565  83.4425715  83.3567315  42.5040722
  83.3043613  83.5468911  41.5761912  83.0861933  84.1186698  42.9608774
  83.4695094  85.4243842  47.5151994  83.9031601  85.3319131  48.3635048
  84.1826675  85.4001343  46.8772010  72.3828145  86.6427841  44.6972727
  73.1768743  86.1478161  44.4955302  71.6719837  86.1145704  44.3340433
  77.2022989  89.0245936  49.0485095  77.2560011  89.5936873  49.8162811
  76.3337770  89.1947821  48.6839132  84.3310644  85.4667543  50.0484879
  84.5246534  86.3713353  50.2944154  84.2311262  85.0074962  50.8823464
  74.9599421  87.2156863  48.3770564  74.8210506  86.8475647  49.2496502
  74.1714017  87.7304502  48.2054522  75.5547573  92.3165959  39.7196101
  75.7299328  91.8454003  40.5341723  74.8680361  92.9431726  39.9477361
  76.5104636  86.5938466  45.7659402  76.1754468  86.5539236  46.6617052
  76.0108581  85.9283181  45.2929812  79.4463827  83.9394500  36.0396462
  78.8292998  83.2141328  35.9429514  78.9780316  84.7003860  35.6963536
  81.1017959  88.6493408  53.7002242  81.0430505  87.9652628  53.0332825
  81.5037477  89.3912398  53.2482868  70.1208658  95.4655322  46.4935961
  70.3605256  96.0973846  47.1714979  69.2777854  95.1143362  46.7801320
  81.1035366  86.6132992  51.9316222  80.2162145  86.2758914  52.0542620
  81.6733917  85.8816023  52.1684987  74.6336520  91.2734445  48.8977465
  74.5606691  92.0789416  49.4096769  74.1913913  91.4726410  48.0725486
  74.4226299  90.5106215  42.4080286  73.6393821  91.0527895  42.5018511
  75.1219045  91.0280194  42.8074527  85.5852707  82.0241210  46.6932783
  85.5742583  82.9065925  46.3226716  84.7170086  81.6712760  46.4987320
  77.0935203  91.1721279  51.0535623  77.8063175  91.8068743  50.9811525
  76.6025232  91.2685145  50.2375625  78.8152730  85.0772531  42.6252915
  77.8809009  85.1973994  42.4557619  78.9929399  84.1744998  42.3612925
  82.2025282  80.9189851  43.1602949  82.6685734  81.7517842  43.0863252
  82.6532782  80.4534832  43.8648208  72.1447117  88.9215722  51.8741194
  72.8456576  89.5552205  52.0270588  71.6742232  89.2630454  51.1136834
  80.2701513  87.2633672  40.1589101  80.5461357  87.1490266  41.0682975
  79.4006011  86.8651157  40.1201274  79.9448403  81.4760329  49.6993745
  79.2919853  81.7236237  49.0446197  80.3228783  80.6624468  49.3656222
  76.9055577  91.5120023  43.8021915  77.0877971  90.6941679  44.2649667
  77.7288563  91.7287715  43.3646805  77.2397742  90.4388208  41.0636963
  77.7685509  89.9280662  40.4507125  77.5025962  90.1230738  41.9282496
  70.5953490  91.4903324  43.8234739  69.9263865  91.9749452  43.3398779
  70.4566360  91.7372545  44.7378118  74.7358759  93.5247068  50.4217398
  75.2877067  93.6878689  51.1866483  75.0764952  94.1151506  49.7497423
  79.5869633  88.3508325  56.2766052  80.1309537  88.9638284  55.7821007
  79.0056478  88.9087904  56.7933065  77.8727146  91.4729043  47.4081080
  77.7478285  90.6718783  46.8992025  78.5306237  91.9675237  46.9195050
  79.9362054  89.2738064  49.0360630  78.9892390  89.1543415  48.9638957
  80.2844827  88.3860562  49.1186891  76.9408488  89.0690780  45.2364982
  76.7933450  88.1407487  45.4172552  77.7661981  89.0910871  44.7522057
  80.5442609  89.8919339  46.3229855  81.4689157  89.6862200  46.1854306
  80.3757913  89.6435740  47.2319196  76.9370002  76.9228617  40.2297099
  77.1533616  77.8053255  39.9285928  76.4564069  76.5314831  39.5002741
  80.3337926  90.4105006  41.6791946  80.5074803  89.8451428  40.9265799
  80.8266817  91.2105901  41.4971436  86.1877317  83.1741429  43.2982246
  86.6308463  82.4248754  42.9001369  85.3103827  83.1651565  42.9155978
  81.3213098  89.7271770  38.7788845  82.0164003  90.3478463  38.9976159
  81.6636248  88.8767122  39.0541223  83.2204521  87.1771476  40.3076175
  83.7455845  87.5158749  39.5825495  83.1326874  86.2418491  40.1239310
  74.8824570  91.0905550  52.4366052  75.1911696  90.8454696  53.3088752
  75.6800052  91.2952188  51.9484922  74.9045182  93.2443459  44.6671429
  74.4650172  92.7519838  45.3604285  75.6553299  92.7016427  44.4263504
  72.3519054  88.7881468  46.7393730  71.7299063  88.1252173  46.4395958
  73.0223921  88.8142600  46.0567378  82.9098427  87.8104380  55.6127373
  82.1193971  87.7928518  55.0731873  82.6731782  88.3492673  56.3676410
  83.0296302  84.6596846  52.9260102  83.0794307  84.4946853  53.8675625
  82.9210226  83.7924105  52.5357983  71.9132561  87.3385392  40.2152191
  72.0620681  88.0220856  39.5618864  72.7199005  87.3190482  40.7301647
  80.3200065  80.6427774  54.2419409  81.2209928  80.5034239  53.9503406
  80.3948039  80.8082229  55.1817586  84.5314499  87.0793787  53.1702123
  84.2399308  87.4423768  54.0065584  83.9186630  86.3660796  52.9915456
  85.7310182  84.6446667  45.6904694  86.5657073  85.0836471  45.8542254
  85.8669310  84.1685320  44.8712939  82.7801687  82.2026402  51.6382181
  83.2555809  82.3954048  50.8301033  81.8567253  82.2585588  51.3925565
  75.4127967  89.8333522  37.6863938  74.8401934  90.4523709  37.2334410
  75.9860760  90.3832884  38.2203860  81.4803356  79.0792162  49.8710487
  82.4320779  79.1790260  49.8922711  81.3106807  78.2870431  50.3808571
  78.6325226  90.1170672  38.8172521  79.5655900  90.0516234  39.0205396
  78.5448439  90.9526939  38.3587053  81.2613243  89.4336543  35.7776468
  81.1826875  89.0996406  36.6712226  82.0822910  89.9258310  35.7767940
  83.9591434  82.2998282  48.9852787  83.9267754  81.3614283  49.1712471
  84.5692058  82.3782319  48.2518612  75.7974765  81.1694335  35.0279991
  76.7433870  81.0400543  35.0968409  75.4189010  80.4308997  35.5049419
  84.1085923  79.0909325  49.0311070  83.5924971  78.3067782  48.8440999
  84.9925871  78.7628042  49.1957589  89.7767984  83.3614289  48.1258823
  90.5071373  83.0999577  48.6866527  89.1674930  82.6243011  48.1660891
  87.8583281  81.5022151  48.7233275  87.1316445  81.3678116  48.1149766
  87.4430568  81.8098980  49.5289993  85.4761076  77.7234003  46.0766706
  86.0705567  77.4829739  45.3660015  85.5487660  77.0041134  46.7040243
  67.6958232  91.5667614  46.3909871  67.5612700  90.8068015  45.8247869
  67.2790294  92.2908514  45.9238660  78.8317195  86.7504538  35.3986446
  79.5353045  86.9554540  36.0144102  78.1079844  87.3181300  35.6635530
  79.6615005  82.5014399  41.5188717  79.6050207  82.9582951  40.6796349
  80.2143348  81.7405084  41.3411559  83.4719811  78.2904131  42.3438836
  83.2156745  77.8900767  43.1747044  82.8472679  79.0047925  42.2188975
  87.7832149  81.0300204  44.8510127  87.2231707  81.0993394  45.6241690
  87.1775652  80.8541189  44.1309624  70.8527358  92.4636931  46.6028314
  70.7359742  93.4082364  46.5007004  70.0319804  92.1610493  46.9914113
  80.7403892  87.1887067  37.4484906  81.5749496  86.7568266  37.2662381
  80.5788235  87.0169081  38.3761801  80.3949784  83.6919180  38.8141246
  80.3398588  83.5263452  37.8729690  79.7695840  84.3995213  38.9703435
  77.7095692  85.9968092  58.1394809  78.5786851  86.1708745  57.7781443
  77.2302443  86.8162509  58.0170538  71.8781872  93.1165193  49.8184242
  72.7809119  93.1488804  50.1350737  71.6519242  92.1865644  49.8330578
  73.6335474  91.8696180  46.4794321  72.6831105  91.8698041  46.3658693
  73.9367960  91.1228914  45.9630355  89.3688167  97.7056718  47.5440083
  90.0066577  97.5863466  46.8403423  89.2509010  98.6537562  47.6028035
  86.1777874  97.6584146  47.4801608  85.8396385  97.5425211  46.5922143
  87.0467642  97.2575311  47.4602614  82.0364689  99.5119623  43.4698499
  81.4729554  99.4209560  42.7014787  81.9217084  98.6919527  43.9500991
  86.6597657  98.8118998  53.4387813  86.6486297  98.4171796  52.5668317
  86.8218296  98.0785071  54.0321585  79.5829121 101.0070814  46.3082719
  80.3750413 100.6661639  45.8929019  79.8225771 101.1165789  47.2284873
  87.6164248 103.1790590  38.7812964  86.9652228 103.7644671  38.3946978
  88.4108611 103.7096785  38.8408001  81.5419875 100.2679728  39.1800098
  82.3150751  99.7208715  39.0412974  81.8945274 101.1323977  39.3914559
  83.3804918 101.5956110  52.3866997  83.0894784 102.5001741  52.2713664
  84.0161902 101.6372638  53.1011067  84.3061125  98.9732958  48.9768357
  84.9024697  98.7488981  48.2625320  84.3636096  98.2317704  49.5793805
  83.8786153  96.4272394  36.8118548  84.1311674  95.9053915  36.0502011
  82.9410712  96.2638539  36.9145232  88.9229436  95.4308172  44.6193291
  89.7092525  95.0127595  44.2683708  89.1868140  96.3354264  44.7874940
  89.0939513 100.8681022  39.3181948  88.4585346 100.9415649  40.0302853
  88.7636920 101.4574621  38.6401027  94.3237863  95.3683405  45.5226270
  95.0563035  94.7982622  45.7564099  93.5677219  94.9805006  45.9632775
  83.5982442  98.3300500  39.0142923  83.4818700  97.6545403  39.6824007
  83.7084702  97.8432874  38.1975076  85.9413983  97.7910647  42.7189612
  85.5772190  97.2641268  43.4302534  86.7981099  97.4009116  42.5456098
  91.8463283  89.0804979  49.9820878  91.5146608  89.9500390  49.7582093
  91.2508897  88.7641263  50.6614909  85.5819470  92.8200546  37.7150961
  85.7493872  93.6880783  38.0821432  85.3916639  92.9827828  36.7912250
  88.3394803 101.2817525  49.3816791  88.0395526 102.1842564  49.2732598
  87.9945862 101.0149709  50.2337944  81.7907284  97.7331322  45.4153495
  80.8657781  97.6007536  45.6231187  82.0391698  98.5125541  45.9123438
  91.7391947  93.8000066  47.0614228  90.8308824  93.7315474  46.7672989
  91.6879542  94.2772011  47.8896054  85.5608691  95.2758204  38.6997628
  85.4408316  95.7215255  39.5383108  84.8661279  95.6243522  38.1411166
  79.1516095  97.3764596  46.2497285  79.2808477  97.6299075  47.1636696
  78.4713547  97.9692304  45.9301940  83.3215583 108.0461846  42.3487759
  83.2439612 108.9969671  42.4276239  82.7177226 107.7007718  43.0062685
  85.8132812  95.2189711  55.0049126  85.0366146  95.7783631  54.9951990
  86.4523375  95.7046494  55.5263996  93.6053593  92.0016504  48.8392102
  92.9627973  92.2949037  48.1931897  93.1008522  91.8869424  49.6445299
  91.2593757  95.7479677  39.5277962  92.1711613  95.9807064  39.3525659
  90.7503404  96.3316721  38.9653040  84.0679185  98.0275165  54.5667093
  84.8093869  98.5660209  54.2901916  83.3616170  98.6541453  54.7238644
  89.5434524 100.1704305  53.1639254  89.9517880  99.7286716  52.4193887
  88.8211786  99.5956933  53.4173447  85.8965594  95.1076912  50.5372811
  86.7426790  95.5316325  50.6807460  85.8364232  94.4510536  51.2311374
  89.8663339 100.7305496  46.9191543  89.2372201 100.8951210  46.2167611
  89.4789001 101.1447105  47.6902507  93.7452571 101.6659933  44.2735907
  93.0603609 102.0458835  43.7232940  93.8296420 102.2755260  45.0067855
  89.0465040  92.7681280  52.1953985  88.8025972  93.5223341  51.6588260
  89.3224970  93.1466628  53.0301232  91.0003503  99.3119893  50.8731250
  91.2120398  99.9551652  50.1965631  90.9533251  98.4782209  50.4053180
  88.6029731  91.9237713  47.7767822  87.7414210  92.2218967  48.0684560
  88.6292166  92.1408112  46.8448855  85.4191301 100.4679904  44.1841628
  85.8829646 100.7467607  43.3946251  85.1548099  99.5663348  44.0014719
  82.3115382 100.0151385  47.1221391  82.8816739 100.4438654  46.4838876
  82.9023494  99.7333970  47.8205577  84.3560187  96.5903056  40.9931193
  85.0584230  97.0424100  41.4605120  84.0240815  95.9486875  41.6211086
  82.8040548  95.1814813  55.3682403  82.1739209  95.8631094  55.6017799
  82.6976636  95.0697894  54.4235541  78.0985521  94.8486609  46.2948327
  77.3084575  95.1044137  45.8188437  78.5896768  95.6634947  46.4000367
  92.1149330 102.1891848  49.0453608  92.9366774 101.7872035  48.7636289
  92.1111733 102.0860082  49.9969723  80.0500266  95.2131188  43.2531804
  79.2531430  95.3249882  43.7715299  79.8225858  95.5517840  42.3872694
  85.8805934 101.7375891  51.2014318  85.9450366 102.1996298  52.0372490
  85.1716858 101.1073256  51.3296628  76.3823224  95.1017099  48.7263318
  76.6331262  95.9864109  48.9920894  76.9182772  94.9221701  47.9538409
 100.2055324  98.5330596  45.3938579  99.4519032  97.9637994  45.2382584
 100.3402865  98.4993261  46.3409214  85.5953952 103.4043999  41.0693298
  85.4599626 104.2495534  41.4978146  86.1363764 103.6063276  40.3059232
  82.0821291  89.4835579  57.7307654  81.6888237  88.9301777  58.4055298
  82.8987432  89.7946157  58.1214171  79.0483349 100.9219437  41.6421224
  79.5607870 101.7162687  41.7926788  79.7006062 100.2245727  41.5754825
  80.8578234 104.0385193  43.7243977  81.0344862 104.9603158  43.5364961
  81.6535067 103.7243612  44.1538357  84.9989252  90.8993458  55.3227910
  85.7398966  91.5000611  55.2432373  85.2307175  90.1571095  54.7645953
  80.1430590  96.0849825  53.6006140  80.0284105  95.1835082  53.9013239
  79.2875108  96.3313522  53.2490957  87.2222428 104.0267565  55.1993641
  86.7786282 103.2403944  54.8814545  87.8839642 104.2146716  54.5337531
  81.9809549 105.5563367  49.7254319  82.5316974 105.4280430  48.9531313
  81.1421025 105.8558256  49.3749212  89.3203666 104.3070365  53.2275042
  89.3022141 105.1279246  52.7355311  90.2423586 104.1824440  53.4525183
  85.7776720 101.8214495  54.0698550  86.3105057 101.0602783  53.8397858
  85.2490801 101.5288146  54.8122705  88.9446415  86.9274561  49.5992192
  88.6010685  87.8176202  49.5231303  89.3125378  86.7376218  48.7361777
  77.0132266  99.2508091  42.4180794  77.8507488  99.6605099  42.2014502
  77.1910533  98.3107533  42.3880988  88.9096698  96.9183172  38.1064627
  88.3943321  97.6887776  38.3453014  88.6374006  96.2448308  38.7297689
  86.4943809  91.7632872  43.1649865  85.6385405  91.3739723  42.9855504
  86.9070761  91.8424833  42.3049651  88.0242956  89.2979216  47.5641425
  87.5207751  89.2609351  46.7509230  88.3173562  90.2071958  47.6238082
  84.2685841  89.3817945  46.5707607  85.1338838  89.1860754  46.2113496
  84.3363350  89.1528297  47.4976964  93.8830972  99.6715526  40.0417801
  93.1060415  99.3326686  39.5972963  94.5622453  99.6768150  39.3672766
  88.6983001  94.7910264  39.9324408  88.3933137  95.1056413  40.7834551
  89.6513443  94.8691684  39.9751741  87.1429433 100.9500487  41.5817362
  86.6150794 100.2153247  41.2690600  86.6416936 101.7275163  41.3357331
  92.1222279  99.1449508  46.6984409  91.4645953  99.8348769  46.7864537
  92.9262678  99.5345940  47.0418395  81.8748160  91.6120153  43.9423974
  82.4491912  91.3895335  43.2097167  82.4619143  91.6808848  44.6952575
  90.9327738  97.4993880  44.7488350  91.4459619  98.1323872  45.2510060
  91.5828962  96.8995076  44.3831710  82.2017748  93.6424614  37.9619859
  81.3655060  93.9799301  38.2829134  82.0622517  93.5073594  37.0246996
  84.1770828  88.4861402  42.6699043  83.5235241  88.1710419  42.0455658
  84.1351302  87.8637143  43.3958866  85.2882033  98.7680697  34.5852335
  84.3809095  98.5369951  34.7843484  85.7853065  97.9718317  34.7726317
  88.1950112 107.4778205  37.5049021  87.5211811 107.7809901  38.1133979
  88.5815934 108.2807285  37.1554478  87.4108569  94.9743336  46.9946691
  86.4931130  95.1958283  46.8368379  87.8268712  95.0489646  46.1358398
  88.1943616  96.3734752  42.1249371  88.9415435  96.8856149  41.8156493
  88.4635206  96.0518804  42.9853765  86.4670266  98.8693292  39.1076325
  85.5581486  98.5852325  39.2048795  86.4965350  99.2892371  38.2479632
  91.6989534 102.4799882  42.8767493  91.2451861 101.6390792  42.9332683
  91.0683501 103.1161280  43.2142273  90.6422453  93.4091868  44.1068160
  89.9045210  92.8969254  44.4378403  90.8949227  92.9692249  43.2951437
  90.1422473 104.3176378  43.8117311  90.4345448 104.8781436  43.0929677
  90.6521094 104.6104939  44.5670470  90.7434081  86.1868120  44.7009930
  91.0492958  85.3265483  44.4135845  91.4686686  86.7785740  44.5008924
  77.0358437  96.5898806  43.0891528  76.8382837  95.9968167  42.3642594
  76.4805101  96.2851017  43.8067466  85.0155161  96.4821913  45.2086121
  85.0703770  95.5295749  45.1328597  84.2046363  96.6381352  45.6927419
  86.1646354 100.4102036  36.4464404  85.7265784  99.6937895  35.9870041
  86.9056795 100.6378151  35.8849495  82.9547520  95.0998973  42.9676500
  82.1415386  95.3993143  43.3741692  83.4506515  94.7054661  43.6850982
  85.1056098 105.0956730  44.9010764  85.0632277 105.3217576  43.9719296
  86.0218797 104.8620104  45.0496565  88.5521732  95.5640797  51.7991393
  88.9071120  95.7912270  52.6585859  89.1993863  95.8959174  51.1768649
  94.2819469  98.6859233  42.5040722  94.1437368  98.8760829  41.5761912
  93.9255688  99.4478616  42.9608774  82.4461595  92.6717328  48.5837735
  83.0860975  92.5306087  47.8860698  81.6139126  92.3851842  48.2076337
  94.3088849 100.7535760  47.5151994  94.7425355 100.6611049  48.3635048
  95.0220429 100.7293260  46.8772010  83.2221899 101.9719759  44.6972727
  84.0162498 101.4770079  44.4955302  82.5113591 101.4437622  44.3340433
  88.0416744 104.3537854  49.0485095  88.0953766 104.9228790  49.8162811
  87.1731525 104.5239739  48.6839132  79.5304663  96.1162840  40.7732480
  78.6002251  96.0547296  40.9902442  79.6262135  95.5938793  39.9769121
  79.4490212  92.6417653  43.3610721  79.7097029  93.5562986  43.2519882
  80.2707384  92.1742096  43.5107334  80.9215137  94.0555410  50.5309546
  81.5938190  93.8472772  49.8822195  80.0944923  93.8577496  50.0914778
  95.1704398 100.7959461  50.0484879  95.3640288 101.7005271  50.2944154
  95.0705016 100.3366880  50.8823464  86.8240709  90.6817351  52.5475207
  86.1768624  91.3807301  52.4539683  87.5941724  91.1153495  52.9151455
  90.2319507 100.9466203  55.6225760  90.0805013 100.7176755  54.7055844
  90.2224186 101.9036805  55.6357105  87.0004843  98.5198116  50.6072026
  87.9296903  98.6709276  50.4340994  86.5795873  98.6082137  49.7520673
  85.7993175 102.5448781  48.3770564  85.6604261 102.1767565  49.2496502
  85.0107771 103.0596420  48.2054522  86.3941327 107.6457877  39.7196101
  86.5693083 107.1745920  40.5341723  85.7074115 108.2723643  39.9477361
  87.3498390 101.9230383  45.7659402  87.0148223 101.8831153  46.6617052
  86.8502336 101.2575099  45.2929812  81.3242634  97.3298013  51.2911983
  81.1862432  96.5978252  51.8923522  82.2347558  97.2406913  51.0096171
  90.2857582  99.2686418  36.0396462  89.6686753  98.5433246  35.9429514
  89.8174070 100.0295778  35.6963536  83.9524935  97.0417973  50.7795663
  84.6624553  96.4011165  50.7382281  83.9094243  97.2930867  51.7021843
  91.9411714 103.9785326  53.7002242  91.8824260 103.2944546  53.0332825
  92.3431232 104.7204316  53.2482868  82.6653869  94.0283190  52.5991302
  82.1291226  93.5773929  53.2512898  82.0770577  94.1629099  51.8561766
  80.9602412 110.7947240  46.4935961  81.1999011 111.4265764  47.1714979
  80.1171609 110.4435280  46.7801320  82.0756128  93.4871842  35.1617766
  81.1985594  93.3660643  34.7980012  82.5513881  92.6957920  34.9096654
  91.9429121 101.9424910  51.9316222  91.0555900 101.6050832  52.0542620
  92.5127672 101.2107941  52.1684987  73.5958268  98.2749002  45.2559273
  74.2829308  97.9610732  44.6680288  73.4406397  99.1790366  44.9826524
  78.3992990  93.1639198  49.6844297  78.3151179  92.5564868  48.9494707
  77.5775696  93.6548216  49.6853793  85.4730274 106.6026362  48.8977465
  85.4000446 107.4081334  49.4096769  85.0307667 106.8018328  48.0725486
  85.2620054 105.8398132  42.4080286  84.4787576 106.3819812  42.5018511
  85.9612799 106.3572112  42.8074527  88.5716704  91.6492762  45.0514492
  89.0685403  90.8962724  44.7315562  87.8003685  91.6857078  44.4857701
  96.4246461  97.3533127  46.6932783  96.4136338  98.2357843  46.3226716
  95.5563841  97.0004678  46.4987320  87.9328958 106.5013196  51.0535623
  88.6456930 107.1360661  50.9811525  87.4418986 106.5977062  50.2375625
  89.6546485 100.4064449  42.6252915  88.7202763 100.5265911  42.4557619
  89.8323153  99.5036916  42.3612925  85.1551673  93.7910145  44.7786176
  84.7849460  93.2381185  45.4667082  85.6510765  93.1868278  44.2261176
  93.0419036  96.2481768  43.1602949  93.5079488  97.0809760  43.0863252
  93.4926536  95.7826750  43.8648208  82.9840871 104.2507640  51.8741194
  83.6850331 104.8844123  52.0270588  82.5135986 104.5922371  51.1136834
  91.1095267 102.5925589  40.1589101  91.3855111 102.4782184  41.0682975
  90.2399766 102.1943074  40.1201274  91.0135699  88.6162355  47.1993851
  90.0998779  88.8466582  47.3676058  91.4428800  88.7000799  48.0507883
  90.7842157  96.8052247  49.6993745  90.1313607  97.0528155  49.0446197
  91.1622537  95.9916385  49.3656222  87.7449331 106.8411940  43.8021915
  87.9271726 106.0233596  44.2649667  88.5682317 107.0579633  43.3646805
  88.0791497 105.7680125  41.0636963  88.6079263 105.2572580  40.4507125
  88.3419716 105.4522656  41.9282496  86.8329730  97.5472058  56.1859782
  86.1570367  97.4466188  56.8562157  87.6557364  97.3911272  56.6495779
  78.5808589 103.7843995  48.8072297  79.1662026 103.0387683  48.9400201
  78.3833428 104.0947951  49.6908961  81.4347245 106.8195242  43.8234739
  80.7657620 107.3041370  43.3398779  81.2960114 107.0664463  44.7378118
  73.1726244  96.3549595  47.5276740  73.2110344  95.8213186  48.3213858
  72.6666537  95.8284800  46.9087717  85.5752513 108.8538986  50.4217398
  86.1270821 109.0170607  51.1866483  85.9158707 109.4443423  49.7497423
  80.5517006  91.2014135  51.0239282  80.6158333  92.0628966  50.6116680
  80.4884127  90.5888137  50.2911641  80.0269279  93.2737268  54.6712317
  80.6541318  92.8914345  55.2849841  79.1697198  93.0551470  55.0368009
  90.4263387 103.6800243  56.2766052  90.9703291 104.2930201  55.7821007
  89.8450232 104.2379822  56.7933065  76.8034822  95.0813697  40.6030671
  77.0988263  94.1724376  40.5497725  75.9022857  95.0601437  40.2811674
  88.7120900 106.8020961  47.4081080  88.5872040 106.0010701  46.8992025
  89.3699992 107.2967155  46.9195050  80.3329069  93.1569694  46.5858220
  79.6115654  93.7705661  46.4465693  81.1222324  93.6927458  46.5074866
  90.7755809 104.6029981  49.0360630  89.8286144 104.4835332  48.9638957
  91.1238582 103.7152479  49.1186891  83.1355382  90.4924120  52.8598872
  83.6589784  90.7386417  53.6225181  82.9167715  91.3244155  52.4402009
  78.5322663  92.7627795  40.7269997  78.2035369  91.8825174  40.5445103
  78.8862034  92.7075463  41.6146386  87.7802242 104.3982697  45.2364982
  87.6327205 103.4699405  45.4172552  88.6055736 104.4202788  44.7522057
  81.6464486  93.0500765  41.0945474  81.9860559  93.5786686  40.3724083
  82.0936607  93.3881171  41.8704041  91.3836364 105.2211256  46.3229855
  92.3082911 105.0154118  46.1854306  91.2151667 104.9727657  47.2319196
  84.3407927  91.4337815  50.5448542  84.0004748  90.6345628  50.9469222
  83.6346933  91.7339526  49.9725376  84.9924399  88.5187128  48.9975865
  85.8150468  88.0447606  48.8754756  85.2362463  89.2977611  49.4974552
  83.6332634  91.5475386  39.2938767  84.3540996  91.9256639  38.7902484
  83.0097938  92.2664263  39.3973745  87.7763756  92.2520535  40.2297099
  87.9927371  93.1345173  39.9285928  87.2957824  91.8606749  39.5002741
  82.5162978  95.2106248  46.8067844  82.3707559  95.5246551  47.6992125
  82.0388181  95.8291149  46.2538743  84.3759361  92.2008796  46.8548734
  84.3620929  91.3049890  46.5181031  85.0931789  92.2079460  47.4887020
  86.2285491  92.6346137  48.9001861  85.9703269  93.5563207  48.8986191
  85.6970532  92.2376571  49.5902325  91.1731680 105.7396924  41.6791946
  91.3468558 105.1743346  40.9265799  91.6660571 106.5397819  41.4971436
  76.9908640  97.7511593  49.7455505  76.4462108  98.5271401  49.8775779
  77.8687990  98.0982397  49.5874627  83.7796257  91.0823177  42.1236304
  83.9012168  90.1539823  42.3227191  83.4898299  91.0961863  41.2114619
  86.6487447  88.7678087  45.2603024  86.6709144  88.8317420  44.3055003
  87.0655506  87.9282596  45.4543530  97.0271071  98.5033347  43.2982246
  97.4702217  97.7540672  42.9001369  96.1497582  98.4943483  42.9155978
  92.1606853 105.0563688  38.7788845  92.8557757 105.6770381  38.9976159
  92.5030003 104.2059039  39.0541223  77.7774662  96.8781489  52.6385662
  77.0356398  97.0264124  53.2250292  77.4567406  97.1389755  51.7752411
  94.0598276 102.5063394  40.3076175  94.5849600 102.8450666  39.5825495
  93.9720628 101.5710409  40.1239310  85.7218324 106.4197467  52.4366052
  86.0305451 106.1746614  53.3088752  86.5193806 106.6244106  51.9484922
  85.7438937 108.5735377  44.6671429  85.3043927 108.0811756  45.3604285
  86.4947053 108.0308345  44.4263504  78.2231275 104.7646918  44.6696057
  79.0489295 104.4650690  44.2894700  77.8725327 103.9954540  45.1185845
  83.1912809 104.1173386  46.7393730  82.5692818 103.4544091  46.4395958
  83.8617676 104.1434518  46.0567378  76.4239881 102.6833244  45.6284990
  75.5871789 102.2555419  45.4468992  76.3963526 102.8765688  46.5655781
  83.2637336  92.5955174  56.3326236  83.3125492  93.4717297  55.9504006
  83.8059850  92.0532567  55.7597880  93.7492182 103.1396297  55.6127373
  92.9587726 103.1220436  55.0731873  93.5125536 103.6784591  56.3676410
  93.8690057  99.9888764  52.9260102  93.9188062  99.8238771  53.8675625
  93.7603980  99.1216023  52.5357983  82.7526316 102.6677309  40.2152191
  82.9014436 103.3512774  39.5618864  83.5592759 102.6482399  40.7301647
  91.1593819  95.9719692  54.2419409  92.0603682  95.8326156  53.9503406
  91.2341794  96.1374146  55.1817586  85.4936625  93.3486546  53.0872595
  84.6239934  93.6420112  52.8155183  85.7296105  93.9326991  53.8079859
  95.3708254 102.4085705  53.1702123  95.0793062 102.7715686  54.0065584
  94.7580385 101.6952713  52.9915456  96.5703936  99.9738585  45.6904694
  97.4050827 100.4128389  45.8542254  96.7063065  99.4977238  44.8712939
  93.6195442  97.5318320  51.6382181  94.0949564  97.7245966  50.8301033
  92.6961007  97.5877506  51.3925565  80.5078949  98.6942487  41.2213260
  80.2624990  97.7904817  41.4193470  80.6774863  98.6959637  40.2792738
  88.1975658  89.5666163  50.6038015  88.7157602  90.3027190  50.2784504
  87.8430791  89.8730157  51.4384774  79.7774596  94.4270845  38.7199421
  79.0843841  94.5015199  38.0639457  79.5326348  93.6631188  39.2420938
  88.4488253  85.9866446  46.1238912  88.7290006  85.3189635  46.7499338
  89.2338860  86.1795541  45.6113576  86.2521721 105.1625440  37.6863938
  85.6795688 105.7815627  37.2334410  86.8254515 105.7124801  38.2203860
  92.3197111  94.4084080  49.8710487  93.2714534  94.5082178  49.8922711
  92.1500561  93.6162348  50.3808571  90.3411490  91.4939663  50.0569888
  89.7461423  91.7744676  49.3616377  90.0561187  91.9833564  50.8286629
  89.4718981 105.4462590  38.8172521  90.4049654 105.3808152  39.0205396
  89.3842194 106.2818857  38.3587053  92.1006998 104.7628460  35.7776468
  92.0220629 104.4288324  36.6712226  92.9216664 105.2550228  35.7767940
  94.7985189  97.6290200  48.9852787  94.7661509  96.6906200  49.1712471
  95.4085812  97.7074236  48.2518612  86.6368520  96.4986253  35.0279991
  87.5827624  96.3692461  35.0968409  86.2582765  95.7600914  35.5049419
  94.9479677  94.4201243  49.0311070  94.4318726  93.6359700  48.8440999
  95.8319626  94.0919960  49.1957589  92.6090404  88.1642259  44.9906883
  92.4115225  87.8557347  45.8750215  93.2190110  88.8903897  45.1204812
 100.6161739  98.6906206  48.1258823 101.3465127  98.4291494  48.6866527
 100.0068684  97.9534928  48.1660891  98.6977036  96.8314069  48.7233275
  97.9710199  96.6970034  48.1149766  98.2824323  97.1390898  49.5289993
  86.5207212 100.5503999  56.4880648  87.4410222 100.7282598  56.6820694
  86.4856795  99.6060044  56.3360347  84.8211437  94.4236229  34.9634876
  83.9142892  94.1269342  35.0397590  85.0987418  94.1266047  34.0969162
  75.7389377  95.7442592  45.4133922  75.4192161  94.8907900  45.1208296
  75.1922805  95.9591170  46.1691890  79.5169285  98.4605033  49.1303429
  79.7355294  99.3922141  49.1491463  79.9295058  98.1013008  49.9158233
  86.4373502  88.9673119  41.1179117  85.6274231  88.6220204  41.4934363
  87.1257919  88.6580662  41.7066729  88.3664051  88.0451165  42.7403414
  88.9195089  88.4646619  43.3993437  88.6034137  87.1186914  42.7826370
  84.3897150  94.0338239  58.5206178  84.2893877  94.9832596  58.4518269
  84.1718692  93.7056478  57.6482248  83.5910221  91.2823164  35.1046855
  84.4529385  91.6078062  35.3642672  83.7760566  90.4954660  34.5919921
  75.6077637  99.3645504  47.3827044  74.9141109  98.9499457  46.8696998
  76.3550628  99.4066040  46.7860463  91.7442858  90.1551691  42.2482078
  91.1641527  90.8136495  41.8660131  91.4778791  89.3329035  41.8369496
  90.1946424  89.5556748  44.4503398  90.6946203  89.6673283  43.6417717
  90.8382032  89.2517801  45.0904207  84.2528420  97.4635378  57.3371239
  83.7695502  98.2635738  57.5435128  84.3389359  97.4743323  56.3838683
  77.5214380  99.2963758  45.2593059  77.4985068  99.3951445  44.3074942
  77.8315016 100.1428908  45.5810225  80.1801758 101.3539913  49.3739673
  81.1345011 101.3223855  49.3069605  79.9814281 100.8930536  50.1889899
  80.7701140  99.9241029  51.9410471  81.5894029 100.4185107  51.9645308
  81.0437947  99.0072997  51.9128038  90.5267736  92.3151781  41.3038426
  89.6393591  92.6001432  41.0858621  90.9421725  92.1545544  40.4565703
  93.8782272  92.3398302  45.0192766  94.6542662  92.8294754  45.2917382
  93.1530406  92.7656356  45.4764635  96.3154831  93.0525921  46.0766706
  96.9099321  92.8121657  45.3660015  96.3881414  92.3333052  46.7040243
  78.5351986 106.8959532  46.3909871  78.4006454 106.1359933  45.8247869
  78.1184049 107.6200432  45.9238660  89.6710949 102.0796456  35.3986446
  90.3746799 102.2846458  36.0144102  88.9473598 102.6473218  35.6635530
  90.5008760  97.8306317  41.5188717  90.4443961  98.2874868  40.6796349
  91.0537102  97.0697001  41.3411559  94.3113566  93.6196049  42.3438836
  94.0550500  93.2192684  43.1747044  93.6866434  94.3339843  42.2188975
  98.6225903  96.3592122  44.8510127  98.0625461  96.4285311  45.6241690
  98.0169407  96.1833107  44.1309624  81.6921112 107.7928849  46.6028314
  81.5753496 108.7374282  46.5007004  80.8713558 107.4902411  46.9914113
  91.5797647 102.5178985  37.4484906  92.4143251 102.0860183  37.2662381
  91.4181990 102.3460999  38.3761801  91.2343539  99.0211098  38.8141246
  91.1792343  98.8555370  37.8729690  90.6089594  99.7287131  38.9703435
  76.0236054  94.2579163  52.6402668  76.6694918  93.7478116  53.1289893
  75.8153205  94.9947844  53.2146093  88.5489446 101.3260010  58.1394809
  89.4180606 101.5000662  57.7781443  88.0696198 102.1454427  58.0170538
  84.5439664  88.5219207  38.3926564  84.5318334  89.4661047  38.5494835
  85.4363086  88.3389353  38.0986025  82.7175626 108.4457111  49.8184242
  83.6202873 108.4780721  50.1350737  82.4912996 107.5157562  49.8330578
  84.4729228 107.1988098  46.4794321  83.5224859 107.1989959  46.3658693
  84.7761714 106.4520832  45.9630355  88.3591784  85.1161984  42.6472501
  87.5924180  84.5620470  42.7929183  88.7702489  85.1883853  43.5086653
  80.3633545  91.4046780  56.7377682  81.2265006  91.0483584  56.9481007
  79.7898956  91.0660674  57.4253086 100.2081922 113.0348636  47.5440083
 100.8460332 112.9155383  46.8403423 100.0902765 113.9829480  47.6028035
  97.0171628 112.9876064  47.4801608  96.6790140 112.8717129  46.5922143
  97.8861396 112.5867229  47.4602614  92.8758444 114.8411540  43.4698499
  92.3123309 114.7501477  42.7014787  92.7610839 114.0211445  43.9500991
  97.4991411 114.1410916  53.4387813  97.4880052 113.7463714  52.5668317
  97.6612051 113.4076988  54.0321585  90.4222876 116.3362732  46.3082719
  91.2144168 115.9953557  45.8929019  90.6619526 116.4457707  47.2284873
  92.3813630 115.5971645  39.1800098  93.1544506 115.0500632  39.0412974
  92.7339029 116.4615895  39.3914559  94.2198672 116.9248028  52.3866997
  93.9288538 117.8293658  52.2713664  94.8555657 116.9664555  53.1011067
  95.1454879 114.3024876  48.9768357  95.7418451 114.0780898  48.2625320
  95.2029851 113.5609622  49.5793805  94.7179908 111.7564311  36.8118548
  94.9705428 111.2345833  36.0502011  93.7804467 111.5930457  36.9145232
  99.7623190 110.7600090  44.6193291 100.5486280 110.3419513  44.2683708
 100.0261895 111.6646182  44.7874940  94.4376196 113.6592417  39.0142923
  94.3212454 112.9837321  39.6824007  94.5478456 113.1724791  38.1975076
  96.7807737 113.1202564  42.7189612  96.4165944 112.5933185  43.4302534
  97.6374853 112.7301034  42.5456098 102.6857038 104.4096897  49.9820878
 102.3540363 105.2792308  49.7582093 102.0902651 104.0933181  50.6614909
  96.4213224 108.1492464  37.7150961  96.5887626 109.0172701  38.0821432
  96.2310393 108.3119746  36.7912250  92.6301039 113.0623240  45.4153495
  91.7051535 112.9299454  45.6231187  92.8785452 113.8417459  45.9123438
 102.5785701 109.1291983  47.0614228 101.6702578 109.0607392  46.7672989
 102.5273297 109.6063928  47.8896054  96.4002445 110.6050122  38.6997628
  96.2802070 111.0507172  39.5383108  95.7055033 110.9535439  38.1411166
  89.9909850 112.7056513  46.2497285  90.1202231 112.9590992  47.1636696
  89.3107301 113.2984221  45.9301940  96.6526567 110.5481629  55.0049126
  95.8759901 111.1075549  54.9951990  97.2917130 111.0338412  55.5263996
 104.4447348 107.3308422  48.8392102 103.8021728 107.6240955  48.1931897
 103.9402276 107.2161342  49.6445299 102.0987511 111.0771595  39.5277962
 103.0105367 111.3098982  39.3525659 101.5897158 111.6608639  38.9653040
  94.9072939 113.3567082  54.5667093  95.6487624 113.8952126  54.2901916
  94.2009925 113.9833371  54.7238644  96.7359349 110.4368829  50.5372811
  97.5820544 110.8608243  50.6807460  96.6757987 109.7802454  51.2311374
  99.8858794 108.0973198  52.1953985  99.6419726 108.8515258  51.6588260
 100.1618725 108.4758545  53.0301232  99.4423486 107.2529631  47.7767822
  98.5807965 107.5510884  48.0684560  99.4685921 107.4700030  46.8448855
  96.2585055 115.7971821  44.1841628  96.7223401 116.0759524  43.3946251
  95.9941853 114.8955266  44.0014719  93.1509136 115.3443303  47.1221391
  93.7210493 115.7730571  46.4838876  93.7417248 115.0625888  47.8205577
  95.1953941 111.9194974  40.9931193  95.8977985 112.3716017  41.4605120
  94.8634570 111.2778793  41.6211086  93.6434303 110.5106730  55.3682403
  93.0132964 111.1923011  55.6017799  93.5370391 110.3989812  54.4235541
  88.9379275 110.1778526  46.2948327  88.1478329 110.4336055  45.8188437
  89.4290523 110.9926864  46.4000367  90.8894021 110.5423106  43.2531804
  90.0925184 110.6541800  43.7715299  90.6619613 110.8809758  42.3872694
  87.2216978 110.4309017  48.7263318  87.4725017 111.3156027  48.9920894
  87.7576527 110.2513618  47.9538409  92.9215046 104.8127496  57.7307654
  92.5281991 104.2593695  58.4055298  93.7381186 105.1238075  58.1214171
  89.8877103 116.2511354  41.6421224  90.4001624 117.0454605  41.7926788
  90.5399816 115.5537645  41.5754825  95.8383007 106.2285375  55.3227910
  96.5792720 106.8292528  55.2432373  96.0700929 105.4863013  54.7645953
  90.9824345 111.4141743  53.6006140  90.8677860 110.5127000  53.9013239
  90.1268862 111.6605439  53.2490957  99.7840170 102.2566478  49.5992192
  99.4404439 103.1468120  49.5231303 100.1519132 102.0668136  48.7361777
  87.8526020 114.5800009  42.4180794  88.6901242 114.9897017  42.2014502
  88.0304288 113.6399451  42.3880988  99.7490452 112.2475089  38.1064627
  99.2337076 113.0179694  38.3453014  99.4767761 111.5740226  38.7297689
  97.3337563 107.0924790  43.1649865  96.4779160 106.7031641  42.9855504
  97.7464515 107.1716751  42.3049651  98.8636710 104.6271133  47.5641425
  98.3601506 104.5901269  46.7509230  99.1567317 105.5363876  47.6238082
  95.1079596 104.7109863  46.5707607  95.9732593 104.5152672  46.2113496
  95.1757105 104.4820215  47.4976964  99.5376755 110.1202181  39.9324408
  99.2326891 110.4348331  40.7834551 100.4907198 110.1983601  39.9751741
  92.7141915 106.9412071  43.9423974  93.2885667 106.7187253  43.2097167
  93.3012897 107.0100766  44.6952575  93.0411502 108.9716532  37.9619859
  92.2048814 109.3091219  38.2829134  92.9016272 108.8365512  37.0246996
  95.0164583 103.8153320  42.6699043  94.3628995 103.5002337  42.0455658
  94.9745057 103.1929060  43.3958866  96.1275788 114.0972615  34.5852335
  95.2202849 113.8661869  34.7843484  96.6246820 113.3010234  34.7726317
  98.2502323 110.3035254  46.9946691  97.3324884 110.5250201  46.8368379
  98.6662467 110.3781564  46.1358398  99.0337371 111.7026669  42.1249371
  99.7809190 112.2148066  41.8156493  99.3028960 111.3810722  42.9853765
  97.3064021 114.1985210  39.1076325  96.3975240 113.9144243  39.2048795
  97.3359105 114.6184288  38.2479632 101.4816208 108.7383785  44.1068160
 100.7438965 108.2261172  44.4378403 101.7342981 108.2984167  43.2951437
 101.5827835 101.5160037  44.7009930 101.8886712 100.6557401  44.4135845
 102.3080440 102.1077658  44.5008924  87.8752191 111.9190724  43.0891528
  87.6776591 111.3260085  42.3642594  87.3198855 111.6142934  43.8067466
  95.8548915 111.8113831  45.2086121  95.9097525 110.8587667  45.1328597
  95.0440117 111.9673270  45.6927419  93.7941275 110.4290890  42.9676500
  92.9809140 110.7285061  43.3741692  94.2900269 110.0346579  43.6850982
  99.3915487 110.8932715  51.7991393  99.7464874 111.1204188  52.6585859
 100.0387618 111.2251092  51.1768649  93.2855350 108.0009246  48.5837735
  93.9254729 107.8598005  47.8860698  92.4532880 107.7143759  48.2076337
  94.0615654 117.3011676  44.6972727  94.8556252 116.8061996  44.4955302
  93.3507346 116.7729539  44.3340433  90.3698417 111.4454758  40.7732480
  89.4396005 111.3839213  40.9902442  90.4655889 110.9230711  39.9769121
  90.2883966 107.9709571  43.3610721  90.5490783 108.8854904  43.2519882
  91.1101138 107.5034013  43.5107334  91.7608891 109.3847328  50.5309546
  92.4331945 109.1764690  49.8822195  90.9338678 109.1869414  50.0914778
  97.6634463 106.0109269  52.5475207  97.0162378 106.7099219  52.4539683
  98.4335479 106.4445413  52.9151455  97.8398598 113.8490034  50.6072026
  98.7690658 114.0001193  50.4340994  97.4189628 113.9374055  49.7520673
  92.1636389 112.6589931  51.2911983  92.0256187 111.9270170  51.8923522
  93.0741312 112.5698831  51.0096171  94.7918689 112.3709890  50.7795663
  95.5018308 111.7303082  50.7382281  94.7487998 112.6222785  51.7021843
  93.5047623 109.3575108  52.5991302  92.9684980 108.9065847  53.2512898
  92.9164332 109.4921017  51.8561766  92.9149882 108.8163760  35.1617766
  92.0379349 108.6952560  34.7980012  93.3907635 108.0249838  34.9096654
  84.4352022 113.6040919  45.2559273  85.1223062 113.2902649  44.6680288
  84.2800151 114.5082284  44.9826524  89.2386745 108.4931116  49.6844297
  89.1544933 107.8856785  48.9494707  88.4169451 108.9840134  49.6853793
  99.4110458 106.9784679  45.0514492  99.9079158 106.2254642  44.7315562
  98.6397440 107.0148996  44.4857701  95.9945427 109.1202062  44.7786176
  95.6243215 108.5673103  45.4667082  96.4904520 108.5160196  44.2261176
 101.8529453 103.9454273  47.1993851 100.9392533 104.1758500  47.3676058
 102.2822555 104.0292717  48.0507883 101.6235912 112.1344165  49.6993745
 100.9707362 112.3820072  49.0446197 102.0016292 111.3208303  49.3656222
  97.6723485 112.8763976  56.1859782  96.9964122 112.7758105  56.8562157
  98.4951119 112.7203190  56.6495779  89.4202344 119.1135912  48.8072297
  90.0055781 118.3679600  48.9400201  89.2227182 119.4239869  49.6908961
  84.0119999 111.6841513  47.5276740  84.0504098 111.1505103  48.3213858
  83.5060291 111.1576718  46.9087717  91.3910761 106.5306053  51.0239282
  91.4552087 107.3920884  50.6116680  91.3277881 105.9180055  50.2911641
  90.8663033 108.6029186  54.6712317  91.4935072 108.2206263  55.2849841
  90.0090952 108.3843388  55.0368009  87.6428576 110.4105615  40.6030671
  87.9382017 109.5016293  40.5497725  86.7416612 110.3893354  40.2811674
  91.1722823 108.4861611  46.5858220  90.4509409 109.0997579  46.4465693
  91.9616079 109.0219376  46.5074866  93.9749137 105.8216038  52.8598872
  94.4983538 106.0678334  53.6225181  93.7561470 106.6536073  52.4402009
  89.3716418 108.0919712  40.7269997  89.0429124 107.2117091  40.5445103
  89.7255788 108.0367381  41.6146386  92.4858241 108.3792682  41.0945474
  92.8254313 108.9078603  40.3724083  92.9330361 108.7173088  41.8704041
  95.1801682 106.7629733  50.5448542  94.8398502 105.9637546  50.9469222
  94.4740688 107.0631444  49.9725376  95.8318154 103.8479045  48.9975865
  96.6544223 103.3739524  48.8754756  96.0756217 104.6269529  49.4974552
  94.4726388 106.8767304  39.2938767  95.1934751 107.2548557  38.7902484
  93.8491692 107.5956181  39.3973745  98.6157511 107.5812453  40.2297099
  98.8321125 108.4637091  39.9285928  98.1351578 107.1898666  39.5002741
  93.3556732 110.5398166  46.8067844  93.2101313 110.8538469  47.6992125
  92.8781936 111.1583066  46.2538743  95.2153115 107.5300714  46.8548734
  95.2014684 106.6341807  46.5181031  95.9325543 107.5371378  47.4887020
  97.0679246 107.9638054  48.9001861  96.8097024 108.8855125  48.8986191
  96.5364286 107.5668489  49.5902325  87.8302394 113.0803510  49.7455505
  87.2855863 113.8563318  49.8775779  88.7081744 113.4274315  49.5874627
  94.6190011 106.4115094  42.1236304  94.7405922 105.4831740  42.3227191
  94.3292053 106.4253780  41.2114619  97.4881201 104.0970005  45.2603024
  97.5102898 104.1609338  44.3055003  97.9049260 103.2574513  45.4543530
  88.6168416 112.2073407  52.6385662  87.8750152 112.3556042  53.2250292
  88.2961161 112.4681672  51.7752411  89.0625030 120.0938835  44.6696057
  89.8883050 119.7942607  44.2894700  88.7119082 119.3246458  45.1185845
  87.2633635 118.0125162  45.6284990  86.4265543 117.5847336  45.4468992
  87.2357280 118.2057605  46.5655781  94.1031091 107.9247092  56.3326236
  94.1519246 108.8009214  55.9504006  94.6453605 107.3824485  55.7597880
 101.9987574 111.3011609  54.2419409 102.8997437 111.1618074  53.9503406
 102.0735548 111.4666064  55.1817586  96.3330379 108.6778464  53.0872595
  95.4633688 108.9712030  52.8155183  96.5689859 109.2618909  53.8079859
  91.3472703 114.0234405  41.2213260  91.1018745 113.1196735  41.4193470
  91.5168618 114.0251555  40.2792738  99.0369413 104.8958081  50.6038015
  99.5551357 105.6319108  50.2784504  98.6824546 105.2022074  51.4384774
  90.6168351 109.7562762  38.7199421  89.9237596 109.8307117  38.0639457
  90.3720102 108.9923106  39.2420938  99.2882007 101.3158364  46.1238912
  99.5683761 100.6481553  46.7499338 100.0732614 101.5087459  45.6113576
 103.1590865 109.7375998  49.8710487 104.1108288 109.8374095  49.8922711
 102.9894316 108.9454266  50.3808571 101.1805245 106.8231581  50.0569888
 100.5855177 107.1036593  49.3616377 100.8954942 107.3125482  50.8286629
  97.4762274 111.8278170  35.0279991  98.4221379 111.6984378  35.0968409
  97.0976519 111.0892832  35.5049419 105.7873432 109.7493161  49.0311070
 105.2712480 108.9651617  48.8440999 106.6713380 109.4211877  49.1957589
 103.4484159 103.4934176  44.9906883 103.2508980 103.1849264  45.8750215
 104.0583864 104.2195815  45.1204812  95.6605191 109.7528147  34.9634876
  94.7536647 109.4561259  35.0397590  95.9381172 109.4557965  34.0969162
  86.5783132 111.0734510  45.4133922  86.2585916 110.2199818  45.1208296
  86.0316560 111.2883088  46.1691890  90.3563039 113.7896951  49.1303429
  90.5749049 114.7214059  49.1491463  90.7688813 113.4304925  49.9158233
  97.2767257 104.2965036  41.1179117  96.4667985 103.9512121  41.4934363
  97.9651674 103.9872580  41.7066729  99.2057805 103.3743083  42.7403414
  99.7588844 103.7938537  43.3993437  99.4427892 102.4478831  42.7826370
  95.2290904 109.3630157  58.5206178  95.1287631 110.3124514  58.4518269
  95.0112447 109.0348396  57.6482248  94.4303976 106.6115082  35.1046855
  95.2923140 106.9369980  35.3642672  94.6154320 105.8246578  34.5919921
  86.4471392 114.6937421  47.3827044  85.7534863 114.2791374  46.8696998
  87.1944383 114.7357958  46.7860463 102.5836612 105.4843608  42.2482078
 102.0035281 106.1428412  41.8660131 102.3172545 104.6620953  41.8369496
 101.0340179 104.8848666  44.4503398 101.5339957 104.9965200  43.6417717
 101.6775787 104.5809719  45.0904207  95.0922175 112.7927296  57.3371239
  94.6089256 113.5927656  57.5435128  95.1783114 112.8035240  56.3838683
  88.3608134 114.6255675  45.2593059  88.3378822 114.7243363  44.3074942
  88.6708771 115.4720826  45.5810225  91.0195512 116.6831830  49.3739673
  91.9738766 116.6515773  49.3069605  90.8208036 116.2222454  50.1889899
  91.6094894 115.2532946  51.9410471  92.4287783 115.7477025  51.9645308
  91.8831702 114.3364914  51.9128038 101.3661490 107.6443699  41.3038426
 100.4787345 107.9293349  41.0858621 101.7815479 107.4837462  40.4565703
 104.7176026 107.6690220  45.0192766 105.4936417 108.1586672  45.2917382
 103.9924161 108.0948274  45.4764635 107.1548585 108.3817839  46.0766706
 107.7493076 108.1413575  45.3660015 107.2275169 107.6624969  46.7040243
 105.1507320 108.9487966  42.3438836 104.8944254 108.5484602  43.1747044
 104.5260188 109.6631760  42.2188975  86.8629808 109.5871080  52.6402668
  87.5088672 109.0770034  53.1289893  86.6546960 110.3239762  53.2146093
  95.3833419 103.8511125  38.3926564  95.3712089 104.7952965  38.5494835
  96.2756841 103.6681270  38.0986025  99.1985538 100.4453901  42.6472501
  98.4317934  99.8912388  42.7929183  99.6096243 100.5175770  43.5086653
  91.2027299 106.7338697  56.7377682  92.0658761 106.3775502  56.9481007
  90.6292710 106.3952592  57.4253086  35.1719396  -1.9340748  34.2685390
  35.8097806  -2.0534000  33.5648730  35.0540239  -0.9859904  34.3273342
  32.4628885  -0.8278468  40.1633120  32.4517526  -1.2225669  39.2913624
  32.6249525  -1.5612395  40.7566892  29.1836147   1.9558644  39.1112304
  28.8926013   2.8604275  38.9958970  29.8193131   1.9975172  39.8256374
  30.1092353  -0.6664507  35.7013664  30.7055926  -0.8908485  34.9870627
  30.1667325  -1.4079762  36.3039112  40.1269092  -4.2714060  32.2471576
  40.8594264  -4.8414844  32.4809406  39.3708447  -4.6592460  32.6878082
  34.1426032   1.6420060  36.1062098  33.8426755   2.5445098  35.9977905
  33.7977091   1.3752243  36.9583251  29.1246811   8.4064380  29.0733065
  29.0470841   9.3572205  29.1521546  28.5208455   8.0610252  29.7307992
  39.4084822  -7.6380962  35.5637409  38.7659202  -7.3448429  34.9177204
  38.9039750  -7.7528041  36.3690606  29.8710414  -1.6122301  41.2912399
  30.6125098  -1.0737257  41.0147223  29.1647399  -0.9856012  41.4483951
  35.3465753   0.5306839  39.8884561  35.7549109   0.0889250  39.1439193
  34.6243015  -0.0440533  40.1418754  35.6694568   1.0908030  33.6436850
  35.0403430   1.2553744  32.9412918  35.2820230   1.5049639  34.4147814
  39.5483800   2.0262468  30.9981213  38.8634838   2.4061369  30.4478247
  39.6327649   2.6357794  31.7313161  36.8034731  -0.3277573  37.5976557
  37.0151627   0.3154187  36.9210938  36.7564480  -1.1615257  37.1298487
  37.9180559   2.5494382  35.7698914  38.7398003   2.1474569  35.4881596
  37.9142962   2.4462616  36.7215030  31.6837163   2.0978425  37.9259625
  31.7481595   2.5598833  38.7617797  30.9748087   1.4675790  38.0541935
  46.0086552  -1.1066869  32.1183886  45.2550261  -1.6759471  31.9627890
  46.1434094  -1.1404205  33.0654520  33.0253657   4.3870099  41.9238947
  32.5817511   3.6006478  41.6059852  33.6870870   4.5749250  41.2582838
  27.7840778   5.9165901  36.4499626  28.3348203   5.7882964  35.6776620
  26.9452254   6.2160790  36.0994519  35.1234895   4.6672899  39.9520349
  35.1053370   5.4881780  39.4600618  36.0454815   4.5426975  40.1770490
  31.5807949   2.1817029  40.7943857  32.1136286   1.4205317  40.5643165
  31.0522030   1.8890681  41.5368011  37.9253508  -0.4947958  33.4229715
  37.2677182   0.1951303  33.5109844  38.7293907  -0.1051526  33.7663702
  37.5020763   2.8402416  29.6012800  37.0483090   1.9993326  29.6577990
  36.8714729   3.4763814  29.9387580  35.9453702   4.6778913  30.5362618
  36.2376676   5.2383970  29.8174983  36.4552323   4.9707474  31.2915777
  30.9087327   5.4559264  31.6256071  30.8663506   5.6820110  30.6964603
  31.8250026   5.2222638  31.7741872  34.3552961  -4.0756669  38.5236700
  34.7102349  -3.8485196  39.3831166  35.0025092  -3.7438292  37.9013955
  40.1120077   1.1138294  34.2397301  40.5456584   1.0213583  35.0880355
  40.8251658   1.0895795  33.6017317  33.8447972   4.7140388  35.7730401
  33.8984995   5.2831325  36.5408117  32.9762754   4.8842273  35.4084438
  40.9735627   1.1561995  36.7730186  41.1671517   2.0607805  37.0189461
  40.8736245   0.6969414  37.6068771  36.0350736   1.3068738  42.3471067
  35.8836242   1.0779289  41.4301150  36.0255415   2.2639339  42.3602412
  32.8036072  -1.1199350  37.3317333  33.7328132  -0.9688190  37.1586300
  32.3827102  -1.0315329  36.4765980  31.6024404   2.9051315  35.1015871
  31.4635490   2.5370099  35.9741809  30.8139000   3.4198954  34.9299829
  33.1529619   2.2832917  32.4904709  32.8179452   2.2433687  33.3862358
  32.6533565   1.6177633  32.0175119  29.7556164  -2.5979493  37.5040969
  30.4655782  -3.2386301  37.4627588  29.7125472  -2.3466598  38.4267150
  37.7442942   4.3387860  40.4247549  37.6855489   3.6547080  39.7578132
  38.1462461   5.0806850  39.9728175  26.7633641  11.1549774  33.2181267
  27.0030239  11.7868298  33.8960286  25.9202838  10.8037814  33.5046627
  37.7460350   2.3027444  38.6561528  36.8587128   1.9653366  38.7787927
  38.3158901   1.5710475  38.8930294  31.2761503   6.9628896  35.6222771
  31.2031675   7.7683868  36.1342076  30.8338896   7.1620862  34.7970793
  42.2277690  -2.2864339  33.4178090  42.2167566  -1.4039623  33.0472023
  41.3595070  -2.6392788  33.2232627  33.7360187   6.8615730  37.7780930
  34.4488159   7.4963195  37.7056832  33.2450215   6.9579596  36.9620932
  28.7872100   4.6110174  38.5986501  29.4881560   5.2446657  38.7515895
  28.3167215   4.9524905  37.8382140  36.5873386  -2.8345219  36.4239051
  35.9344836  -2.5869311  35.7691504  36.9653766  -3.6481080  36.0901529
  33.5480560   7.2014475  30.5267222  33.7302954   6.3836130  30.9894974
  34.3713546   7.4182167  30.0892112  32.6360959  -2.0925408  42.9105088
  31.9601596  -2.1931278  43.5807464  33.4588593  -2.2486194  43.3741086
  24.3839818   4.1446529  35.5317604  24.9693255   3.3990217  35.6645508
  24.1864657   4.4550486  36.4154267  31.3783742   9.2141520  37.1462704
  31.9302050   9.3773141  37.9111790  31.7189935   9.8045958  36.4742729
  36.2294616   4.0402777  43.0011359  36.7734520   4.6532736  42.5066314
  35.6481461   4.5982356  43.5178372  34.5152129   7.1623495  34.1326386
  34.3903269   6.3613235  33.6237332  35.1731220   7.6569689  33.6440356
  36.5787038   4.9632515  35.7605937  35.6317373   4.8437867  35.6884263
  36.9269811   4.0755014  35.8432198  33.5833471   4.7585232  31.9610289
  33.4358433   3.8301939  32.1417859  34.4086964   4.7805322  31.4767364
  37.1867593   5.5813790  33.0475162  38.1114140   5.3756652  32.9099613
  37.0182896   5.3330192  33.9564503  36.9762909   6.0999458  28.4037253
  37.1499786   5.5345880  27.6511105  37.4691800   6.9000353  28.2216743
  42.8302300  -1.1364119  30.0227553  43.2733446  -1.8856794  29.6246676
  41.9528810  -1.1453983  29.6401285  31.5249553   6.7800001  39.1611359
  31.8336680   6.5349148  40.0334058  32.3225035   6.9846640  38.6730229
  31.5470165   8.9337911  31.3916735  31.1075156   8.4414290  32.0849592
  32.2978282   8.3910879  31.1508810  28.9944037   4.4775920  33.4639037
  28.3724047   3.8146625  33.1641265  29.6648904   4.5037052  32.7812685
  39.5523411   3.4998831  42.3372680  38.7618954   3.4822970  41.7977179
  39.3156765   4.0387125  43.0921717  39.6721286   0.3491298  39.6505409
  39.7219291   0.1841305  40.5920931  39.5635209  -0.5181443  39.2603289
  36.9625048  -3.6677774  40.9664715  37.8634911  -3.8071309  40.6748713
  37.0373023  -3.5023319  41.9062893  41.1739483   2.7688239  39.8947430
  40.8824291   3.1318220  40.7310891  40.5611614   2.0555248  39.7160762
  42.3735165   0.3341119  32.4150000  43.2082056   0.7730923  32.5787561
  42.5094294  -0.1420228  31.5958246  39.4226671  -2.1079146  38.3627488
  39.8980792  -1.9151500  37.5546339  38.4992236  -2.0519960  38.1170872
  38.1228340  -5.2313386  36.5955794  39.0745763  -5.1315288  36.6168018
  37.9531790  -6.0235117  37.1053878  40.6016418  -2.0107266  35.7098093
  40.5692738  -2.9491266  35.8957777  41.2117041  -1.9323230  34.9763918
  40.7510906  -5.2196223  35.7556377  40.2349955  -6.0037766  35.5686305
  41.6350855  -5.5477506  35.9202896  46.4192967  -0.9491259  34.8504130
  47.1496356  -1.2105971  35.4111833  45.8099913  -1.6862537  34.8906198
  44.5008265  -2.8083397  35.4478581  43.7741428  -2.9427432  34.8395073
  44.0855551  -2.5006568  36.2535299  32.3238441   0.9106533  43.2125954
  33.2441450   1.0885132  43.4066001  32.2888024  -0.0337422  43.0605654
  30.0559649  -2.1762088  44.0616546  29.5726731  -1.3761728  44.2680435
  30.1420588  -2.1654143  43.1083990  25.9832986   1.7142447  36.0984980
  26.9376240   1.6826389  36.0314911  25.7845510   1.2533071  36.9135206
  26.5732368   0.2843563  38.6655778  27.3925257   0.7787642  38.6890615
  26.8469176  -0.6324469  38.6373345  24.3383215   7.2562066  33.1155178
  24.2037683   6.4962467  32.5493176  23.9215277   7.9802966  32.6483967
  44.4257132  -3.2805344  31.5755434  43.8656690  -3.2112154  32.3486996
  43.8200636  -3.4564359  30.8554930  27.4952341   8.1531383  33.3273620
  27.3784725   9.0976816  33.2252311  26.6744787   7.8504945  33.7159420
  34.3520675   1.6862544  44.8640115  35.2211835   1.8603196  44.5026750
  33.8727426   2.5056961  44.7415845  28.5206855   8.8059645  36.5429549
  29.4234102   8.8383255  36.8596044  28.2944225   7.8760096  36.5575885
  30.2760457   7.5590632  33.2039627  29.3256088   7.5592493  33.0904000
  30.5792943   6.8123366  32.6875662  46.0113151  13.3951170  34.2685390
  46.6491561  13.2757918  33.5648730  45.8933994  14.3432014  34.3273342
  42.8202857  13.3478598  34.2046915  42.4821368  13.2319663  33.3167449
  43.6892625  12.9469763  34.1847921  38.6789673  15.2014075  30.1943805
  38.1154538  15.1104012  29.4260093  38.5642068  14.3813979  30.6746298
  43.3022640  14.5013450  40.1633120  43.2911281  14.1066248  39.2913624
  43.4643279  13.7679523  40.7566892  36.2254105  16.6965266  33.0328026
  37.0175396  16.3556091  32.6174325  36.4650755  16.8060241  33.9530179
  44.2589231  18.8685042  25.5058270  43.6077211  19.4539123  25.1192284
  45.0533594  19.3991237  25.5653308  38.1844858  15.9574180  25.9045405
  38.9575734  15.4103167  25.7658281  38.5370257  16.8218429  26.1159866
  40.0229901  17.2850562  39.1112304  39.7319767  18.1896193  38.9958970
  40.6586885  17.3267089  39.8256374  40.9486108  14.6627410  35.7013664
  41.5449680  14.4383433  34.9870627  41.0061079  13.9212156  36.3039112
  40.5211136  12.1166846  23.5363855  40.7736657  11.5948367  22.7747318
  39.5835695  11.9532991  23.6390538  45.5654419  11.1202624  31.3438598
  46.3517508  10.7022047  30.9929015  45.8293123  12.0248716  31.5120246
  45.7364496  16.5575474  26.0427255  45.1010329  16.6310101  26.7548159
  45.4061903  17.1469073  25.3646334  50.9662846  11.0577857  32.2471576
  51.6988018  10.4877074  32.4809406  50.2102202  10.6699458  32.6878082
  40.2407425  14.0194952  25.7388230  40.1243683  13.3439855  26.4069314
  40.3509685  13.5327326  24.9220383  42.5838966  13.4805099  29.4434919
  42.2197173  12.9535720  30.1547840  43.4406082  13.0903568  29.2701404
  48.4888267   4.7699431  36.7066185  48.1571591   5.6394842  36.4827400
  47.8933880   4.4535715  37.3860215  44.9819786  16.9711977  36.1062098
  44.6820509  17.8737016  35.9977905  44.6370846  16.7044161  36.9583251
  38.4332268  13.4225774  32.1398802  37.5082764  13.2901988  32.3476494
  38.6816681  14.2019993  32.6368745  48.3816930   9.4894517  33.7859535
  47.4733807   9.4209926  33.4918296  48.3304526   9.9666462  34.6141361
  42.2033674  10.9652656  25.4242934  42.0833299  11.4109707  26.2628414
  41.5086262  11.3137974  24.8656472  35.7941079  13.0659048  32.9742591
  35.9233460  13.3193527  33.8882003  35.1138530  13.6586756  32.6547246
  39.9640566  23.7356298  29.0733065  39.8864596  24.6864123  29.1521546
  39.3602210  23.3902170  29.7307992  42.4557796  10.9084163  41.7294432
  41.6791130  11.4678083  41.7197297  43.0948359  11.3940946  42.2509302
  50.2478576   7.6910956  35.5637409  49.6052957   7.9843489  34.9177204
  49.7433505   7.5763876  36.3690606  47.9018740  11.4374129  26.2523268
  48.8136596  11.6701516  26.0770966  47.3928387  12.0211173  25.6898347
  40.7104168  13.7169616  41.2912399  41.4518852  14.2554660  41.0147223
  40.0041153  14.3435905  41.4483951  46.1859508  15.8598757  39.8884561
  46.5942864  15.4181167  39.1439193  45.4636769  15.2851384  40.1418754
  42.5390578  10.7971364  37.2618118  43.3851773  11.2210777  37.4052767
  42.4789215  10.1404988  37.9556681  46.5088322  16.4199948  33.6436850
  45.8797185  16.5845662  32.9412918  46.1213984  16.8341557  34.4147814
  50.3877554  17.3554385  30.9981213  49.7028592  17.7353287  30.4478247
  50.4721404  17.9649712  31.7313161  45.6890023   8.4575732  38.9199291
  45.4450955   9.2117793  38.3833567  45.9649954   8.8361080  39.7546538
  47.6428486  15.0014344  37.5976557  47.8545381  15.6446104  36.9210938
  47.5958234  14.1676661  37.1298487  45.2454715   7.6132165  34.5013129
  44.3839194   7.9113419  34.7929867  45.2717149   7.8302564  33.5694162
  42.0616284  16.1574356  30.9086935  42.5254630  16.4362059  30.1191557
  41.7973082  15.2557800  30.7260025  38.9540365  15.7045837  33.8466698
  39.5241722  16.1333106  33.2084183  39.5448477  15.4228422  34.5450884
  40.9985170  12.2797508  27.7176500  41.7009214  12.7318552  28.1850426
  40.6665799  11.6381327  28.3456393  39.4465532  10.8709265  42.0927709
  38.8164192  11.5525545  42.3263106  39.3401620  10.7592346  41.1480848
  34.7410504  10.5381061  33.0193633  33.9509558  10.7938589  32.5433744
  35.2321752  11.3529399  33.1245674  48.7574314  17.8786300  35.7698914
  49.5791757  17.4766487  35.4881596  48.7536717  17.7754534  36.7215030
  36.6925250  10.9025640  29.9777110  35.8956413  11.0144334  30.4960606
  36.4650842  11.2412292  29.1118001  42.5230917  17.4270343  37.9259625
  42.5875350  17.8890750  38.7617797  41.8141841  16.7967708  38.0541935
  33.0248207  10.7911551  35.4508624  33.2756246  11.6758561  35.7166200
  33.5607756  10.6116153  34.6783716  56.8480307  14.2225048  32.1183886
  56.0944015  13.6532446  31.9627890  56.9827848  14.1887713  33.0654520
  42.2378935  19.0938451  27.7938605  42.1024610  19.9389986  28.2223453
  42.7788747  19.2957728  27.0304539  38.7246274   5.1730030  44.4552960
  38.3313220   4.6196229  45.1300605  39.5412415   5.4840609  44.8459478
  35.6908332  16.6113889  28.3666530  36.2032853  17.4057139  28.5172095
  36.3431045  15.9140179  28.3000132  37.5003217  19.7279645  30.4489283
  37.6769845  20.6497610  30.2610267  38.2960050  19.4138064  30.8783663
  41.6414235   6.5887910  42.0473217  42.3823949   7.1895063  41.9677679
  41.8732158   5.8465547  41.4891259  36.7855573  11.7744277  40.3251447
  36.6709089  10.8729534  40.6258546  35.9300091  12.0207974  39.9736263
  43.8647411  19.7162017  41.9238947  43.4211265  18.9298396  41.6059852
  44.5264625  19.9041168  41.2582838  38.6234532  21.2457819  36.4499626
  39.1741958  21.1174882  35.6776620  37.7846008  21.5452708  36.0994519
  45.9628649  19.9964817  39.9520349  45.9447125  20.8173698  39.4600618
  46.8848569  19.8718892  40.1770490  42.4201703  17.5108947  40.7943857
  42.9530040  16.7497235  40.5643165  41.8915785  17.2182598  41.5368011
  45.5871398   2.6169012  36.3237499  45.2435668   3.5070654  36.2476609
  45.9550361   2.4270670  35.4607084  33.6557249  14.9402543  29.1426101
  34.4932471  15.3499551  28.9259808  33.8335517  14.0001985  29.1126295
  45.5521681  12.6077624  24.8309934  45.0368305  13.3782228  25.0698321
  45.2798990  11.9342760  25.4542995  43.1368792   7.4527324  29.8895172
  42.2810389   7.0634175  29.7100811  43.5495744   7.5319285  29.0294958
  44.6667939   4.9873668  34.2886732  44.1632734   4.9503803  33.4754537
  44.9598546   5.8966410  34.3483389  40.9110825   5.0712397  33.2952914
  41.7763821   4.8755206  32.9358803  40.9788334   4.8422749  34.2222270
  50.5255955  15.3609978  26.7663107  49.7485398  15.0221138  26.3218269
  51.2047436  15.3662601  26.0918072  45.3407984  10.4804716  26.6569715
  45.0358120  10.7950865  27.5079858  46.2938426  10.5586136  26.6997048
  43.7854416  16.6394939  28.3062669  43.2575778  15.9047699  27.9935906
  43.2841919  17.4169615  28.0602637  48.7647262  14.8343959  33.4229715
  48.1070937  15.5243221  33.5109844  49.5687661  15.2240391  33.7663702
  38.5173144   7.3014605  30.6669280  39.0916896   7.0789787  29.9342473
  39.1044126   7.3703300  31.4197882  47.5752721  13.1888332  31.4733657
  48.0884603  13.8218324  31.9755367  48.2253945  12.5889528  31.1077017
  40.8195811   4.1755854  29.3944350  40.1660224   3.8604871  28.7700965
  40.7776286   3.5531595  30.1204173  41.9307016  14.4575149  21.3097642
  41.0234078  14.2264403  21.5088791  42.4278048  13.6612769  21.4971623
  44.8375095  23.1672656  24.2294328  44.1636794  23.4704353  24.8379286
  45.2240917  23.9701737  23.8799785  44.0533552  10.6637788  33.7191997
  43.1356113  10.8852735  33.5613686  44.4693695  10.7384098  32.8603705
  44.8368600  12.0629203  28.8494678  45.5840419  12.5750601  28.5401800
  45.1060189  11.7413256  29.7099071  43.1095250  14.5587744  25.8321632
  42.2006469  14.2746777  25.9294102  43.1390334  14.9786823  24.9724939
  48.3414517  18.1694334  29.6012800  47.8876844  17.3285244  29.6577990
  47.7108484  18.8055732  29.9387580  47.2847437   9.0986320  30.8313467
  46.5470194   8.5863706  31.1623710  47.5374210   8.6586701  30.0196744
  46.7847456  20.0070830  30.5362618  47.0770431  20.5675887  29.8174983
  47.2946077  20.2999391  31.2915777  47.3859064   1.8762572  31.4255236
  47.6917941   1.0159935  31.1381151  48.1111669   2.4680192  31.2254230
  33.6783420  12.2793258  29.8136834  33.4807820  11.6862619  29.0887901
  33.1230084  11.9745468  30.5312773  41.6580144  12.1716365  31.9331427
  41.7128754  11.2190201  31.8573904  40.8471346  12.3275804  32.4172726
  42.8071338  16.0996488  23.1709711  42.3690768  15.3832347  22.7115348
  43.5481778  16.3272603  22.6094802  39.5972504  10.7893424  29.6921806
  38.7840369  11.0887595  30.0986998  40.0931498  10.3949113  30.4096288
  41.7481082  20.7851181  31.6256071  41.7057260  21.0112028  30.6964603
  42.6643780  20.5514556  31.7741872  45.1946715  11.2535249  38.5236700
  45.5496103  11.4806722  39.3831166  45.8418847  11.5853626  37.9013955
  50.9244452  14.3753685  29.2286029  50.7862351  14.5655281  28.3007218
  50.5680671  15.1373068  29.6854080  39.0886578   8.3611780  35.3083041
  39.7285958   8.2200539  34.6106004  38.2564109   8.0746293  34.9321643
  50.9513832  16.4430212  34.2397301  51.3850339  16.3505501  35.0880355
  51.6645413  16.4187712  33.6017317  39.8646882  17.6614210  31.4218034
  40.6587481  17.1664531  31.2200609  39.1538575  17.1332074  31.0585739
  44.6841727  20.0432306  35.7730401  44.7378749  20.6123242  36.5408117
  43.8156508  20.2134191  35.4084438  36.1729646  11.8057292  27.4977786
  35.2427234  11.7441748  27.7147748  36.2687118  11.2833245  26.7014428
  36.0915195   8.3312105  30.0856028  36.3522012   9.2457438  29.9765188
  36.9132367   7.8636548  30.2352641  37.5640120   9.7449862  37.2554853
  38.2363174   9.5367224  36.6067501  36.7369907   9.5471948  36.8160085
  51.8129382  16.4853913  36.7730186  52.0065272  17.3899723  37.0189461
  51.7130000  16.0261332  37.6068771  43.4665692   6.3711803  39.2720513
  42.8193607   7.0701753  39.1784990  44.2366708   6.8047947  39.6396762
  46.8744490  16.6360655  42.3471067  46.7229997  16.4071207  41.4301150
  46.8649170  17.5931257  42.3602412  43.6429827  14.2092568  37.3317333
  44.5721887  14.3603728  37.1586300  43.2220857  14.2976589  36.4765980
  42.4418158  18.2343232  35.1015871  42.3029244  17.8662017  35.9741809
  41.6532755  18.7490872  34.9299829  43.0366310  23.3352329  26.4441407
  43.2118066  22.8640372  27.2587030  42.3499098  23.9618095  26.6722668
  43.9923374  17.6124835  32.4904709  43.6573206  17.5725605  33.3862358
  43.4927319  16.9469551  32.0175119  37.9667618  13.0192465  38.0157290
  37.8287415  12.2872704  38.6168829  38.8772541  12.9301365  37.7341477
  46.9282565  14.9580869  22.7641768  46.3111736  14.2327698  22.6674821
  46.4599054  15.7190230  22.4208842  40.5949918  12.7312424  37.5040969
  41.3049537  12.0905617  37.4627588  40.5519226  12.9825319  38.4267150
  48.5836697  19.6679778  40.4247549  48.5249243  18.9838998  39.7578132
  48.9856215  20.4098768  39.9728175  39.3078852   9.7177642  39.3236609
  38.7716209   9.2668381  39.9758205  38.7195561   9.8523551  38.5807073
  37.6027396  26.4841692  33.2181267  37.8423994  27.1160216  33.8960286
  36.7596592  26.1329732  33.5046627  48.5854104  17.6319362  38.6561528
  47.6980883  17.2945284  38.7787927  49.1552655  16.9002393  38.8930294
  30.2383251  13.9643453  31.9804580  30.9254291  13.6505184  31.3925595
  30.0831380  14.8684818  31.7071831  35.0417973   8.8533650  36.4089603
  34.9576162   8.2459320  35.6740013  34.2200680   9.3442668  36.4099100
  42.1155258  22.2920814  35.6222771  42.0425429  23.0975786  36.1342076
  41.6732651  22.4912780  34.7970793  41.9045037  21.5292584  29.1325593
  41.1212559  22.0714264  29.2263817  42.6037782  22.0466564  29.5319834
  45.2141687   7.3387214  31.7759798  45.7110387   6.5857176  31.4560869
  44.4428669   7.3751530  31.2103008  53.0671445  13.0427579  33.4178090
  53.0561321  13.9252295  33.0472023  52.1988824  12.6899130  33.2232627
  44.5753941  22.1907648  37.7780930  45.2881913  22.8255113  37.7056832
  44.0843970  22.2871514  36.9620932  46.2971468  16.0958901  29.3498222
  45.3627747  16.2160363  29.1802926  46.4748136  15.1931368  29.0858232
  41.7976656   9.4804597  31.5031483  41.4274444   8.9275637  32.1912389
  42.2935748   8.8762730  30.9506483  49.6844019  11.9376220  29.8848256
  50.1504471  12.7704212  29.8108559  50.1351520  11.4721202  30.5893514
  39.6265855  19.9402092  38.5986501  40.3275314  20.5738575  38.7515895
  39.1560970  20.2816823  37.8382140  47.7520250  18.2820041  26.8834408
  48.0280094  18.1676636  27.7928282  46.8824749  17.8837526  26.8446581
  47.6560682   4.3056807  33.9239157  46.7423762   4.5361034  34.0921364
  48.0853784   4.3895251  34.7753190  47.4267141  12.4946699  36.4239051
  46.7738591  12.7422606  35.7691504  47.8047520  11.6810837  36.0901529
  44.3874314  22.5306392  30.5267222  44.5696709  21.7128048  30.9894974
  45.2107300  22.7474084  30.0892112  44.7216480  21.4574577  27.7882270
  45.2504246  20.9467032  27.1752432  44.9844699  21.1417108  28.6527803
  43.4754714  13.2366510  42.9105088  42.7995351  13.1360639  43.5807464
  44.2982347  13.0805724  43.3741086  35.2233573  19.4738447  35.5317604
  35.8087009  18.7282135  35.6645508  35.0258411  19.7842403  36.4154267
  38.0772228  22.5089694  30.5480046  37.4082603  22.9935822  30.0644086
  37.9385098  22.7558914  31.4623424  29.8151227  12.0444047  34.2522047
  29.8535327  11.5107638  35.0459165  29.3091520  11.5179252  33.6333024
  42.2177496  24.5433438  37.1462704  42.7695804  24.7065059  37.9111790
  42.5583690  25.1337875  36.4742729  37.1941990   6.8908587  37.7484589
  37.2583316   7.7523418  37.3361987  37.1309110   6.2782589  37.0156948
  36.6694262   8.9631720  41.3957623  37.2966301   8.5808797  42.0095148
  35.8122181   8.7445922  41.7613316  47.0688371  19.3694695  43.0011359
  47.6128275  19.9824653  42.5066314  46.4875216  19.9274273  43.5178372
  33.4459805  10.7708149  27.3275978  33.7413246   9.8618827  27.2743032
  32.5447841  10.7495888  27.0056980  45.3545884  22.4915413  34.1326386
  45.2297023  21.6905153  33.6237332  46.0124975  22.9861606  33.6440356
  36.9754052   8.8464146  33.3103527  36.2540638   9.4600113  33.1711000
  37.7647308   9.3821910  33.2320173  47.4180792  20.2924433  35.7605937
  46.4711128  20.1729784  35.6884263  47.7663565  19.4046931  35.8432198
  39.7780365   6.1818572  39.5844178  40.3014767   6.4280869  40.3470488
  39.5592699   7.0138607  39.1647316  35.1747647   8.4522247  27.4515303
  34.8460353   7.5719626  27.2690409  35.5287017   8.3969915  28.3391693
  44.4227225  20.0877149  31.9610289  44.2752188  19.1593857  32.1417859
  45.2480719  20.1097240  31.4767364  38.2889470   8.7395216  27.8190781
  38.6285542   9.2681138  27.0969389  38.7361590   9.0775623  28.5949347
  48.0261347  20.9105708  33.0475162  48.9507895  20.7048569  32.9099613
  47.8576651  20.6622109  33.9564503  40.9832911   7.1232267  37.2693849
  40.6429731   6.3240080  37.6714529  40.2771917   7.4233978  36.6970682
  41.6349382   4.2081580  35.7221172  42.4575452   3.7342058  35.6000062
  41.8787446   4.9872063  36.2219858  40.2757617   7.2369838  26.0184074
  40.9965979   7.6151091  25.5147791  39.6522921   7.9558715  26.1219052
  44.4188740   7.9414987  26.9542406  44.6352354   8.8239625  26.6531234
  43.9382807   7.5501200  26.2248048  39.1587961  10.9000700  33.5313151
  39.0132542  11.2141003  34.4237432  38.6813165  11.5185601  32.9784049
  41.0184344   7.8903248  33.5794040  41.0045913   6.9944342  33.2426338
  41.7356772   7.8973912  34.2132326  42.8710475   8.3240588  35.6247168
  42.6128253   9.2457659  35.6231498  42.3395515   7.9271023  36.3147632
  47.8156663  21.4291376  28.4037253  47.9893541  20.8637798  27.6511105
  48.3085555  22.2292270  28.2216743  33.6333623  13.4406045  36.4700812
  33.0887091  14.2165853  36.6021086  34.5112973  13.7876849  36.3119933
  40.4221240   6.7717629  28.8481610  40.5437151   5.8434275  29.0472498
  40.1323282   6.7856314  27.9359926  43.2912430   4.4572539  31.9848330
  43.3134127   4.5211872  31.0300310  43.7080489   3.6177048  32.1788836
  53.6696055  14.1927798  30.0227553  54.1127201  13.4435124  29.6246676
  52.7922565  14.1837935  29.6401285  48.8031836  20.7458140  25.5034151
  49.4982741  21.3664833  25.7221466  49.1454986  19.8953491  25.7786529
  34.4199645  12.5675941  39.3630969  33.6781381  12.7158576  39.9495599
  34.0992389  12.8284207  38.4997718  50.7023259  18.1957845  27.0321482
  51.2274583  18.5345118  26.3070802  50.6145612  17.2604861  26.8484617
  42.3643308  22.1091919  39.1611359  42.6730434  21.8641066  40.0334058
  43.1618790  22.3138558  38.6730229  42.3863920  24.2629829  31.3916735
  41.9468910  23.7706207  32.0849592  43.1372037  23.7202796  31.1508810
  34.8656259  20.4541370  31.3941363  35.6914279  20.1545141  31.0140007
  34.5150311  19.6848992  31.8431152  39.8337792  19.8067838  33.4639037
  39.2117801  19.1438543  33.1641265  40.5042659  19.8328970  32.7812685
  33.0664864  18.3727696  32.3530297  32.2296772  17.9449870  32.1714298
  33.0388509  18.5660139  33.2901088  39.9062319   8.2849626  43.0571543
  39.9550475   9.1611749  42.6749313  40.4484834   7.7427019  42.4843186
  50.3917165  18.8290749  42.3372680  49.6012709  18.8114888  41.7977179
  50.1550520  19.3679043  43.0921717  50.5115040  15.6783215  39.6505409
  50.5613045  15.5133223  40.5920931  50.4028964  14.8110475  39.2603289
  39.3951299  18.3571761  26.9397497  39.5439419  19.0407226  26.2864170
  40.2017742  18.3376851  27.4546953  47.8018803  11.6614144  40.9664715
  48.7028665  11.5220608  40.6748713  47.8766777  11.8268598  41.9062893
  42.1361608   9.0380998  39.8117902  41.2664917   9.3314564  39.5400490
  42.3721088   9.6221443  40.5325165  52.0133237  18.0980157  39.8947430
  51.7218045  18.4610138  40.7310891  51.4005368  17.3847165  39.7160762
  53.2128919  15.6633037  32.4150000  54.0475811  16.1022841  32.5787561
  53.3488048  15.1871690  31.5958246  50.2620425  13.2212772  38.3627488
  50.7374547  13.4140418  37.5546339  49.3385991  13.2771957  38.1170872
  37.1503932  14.3836939  27.9458566  36.9049974  13.4799269  28.1438776
  37.3199846  14.3854089  27.0038044  44.8400642   5.2560615  37.3283322
  45.3582586   5.9921642  37.0029811  44.4855775   5.5624608  38.1630081
  45.0913236   1.6760898  32.8484219  45.3714990   1.0084087  33.4744645
  45.8763843   1.8689993  32.3358882  42.8946704  20.8519892  24.4109245
  42.3220671  21.4710079  23.9579717  43.4679498  21.4019253  24.9449167
  48.9622094  10.0978532  36.5955794  49.9139517  10.1976629  36.6168018
  48.7925545   9.3056800  37.1053878  46.9836474   7.1834115  36.7815195
  46.3886406   7.4639128  36.0861683  46.6986170   7.6728016  37.5531936
  46.1143964  21.1357042  25.5417827  47.0474637  21.0702603  25.7450703
  46.0267177  21.9713309  25.0832360  48.7431981  20.4522912  22.5021775
  48.6645612  20.1182776  23.3957533  49.5641648  20.9444680  22.5013247
  51.4410172  13.3184651  35.7098093  51.4086492  12.3800652  35.8957777
  52.0510796  13.3968688  34.9763918  43.2793503  12.1880704  21.7525297
  44.2252608  12.0586912  21.8213715  42.9007748  11.4495366  22.2294726
  51.5904661  10.1095695  35.7556377  51.0743709   9.3254151  35.5686305
  52.4744609   9.7814411  35.9202896  49.2515387   3.8536710  31.7152189
  49.0540209   3.5451799  32.5995521  49.8615093   4.5798349  31.8450119
  57.2586722  14.3800658  34.8504130  57.9890110  14.1185946  35.4111833
  56.6493667  13.6429380  34.8906198  55.3402019  12.5208521  35.4478581
  54.6135183  12.3864486  34.8395073  54.9249306  12.8285349  36.2535299
  43.1632195  16.2398451  43.2125954  44.0835205  16.4177050  43.4066001
  43.1281778  15.2954496  43.0605654  32.3814360  11.4337044  32.1379229
  32.0617145  10.5802352  31.8453603  31.8347789  11.6485622  32.8937196
  36.1594268  14.1499485  35.8548736  36.3780278  15.0816593  35.8736769
  36.5720042  13.7907460  36.6403539  43.0798486   4.6567570  27.8424424
  42.2699214   4.3114655  28.2179670  43.7682903   4.3475114  28.4312035
  45.0089034   3.7345617  29.4648721  45.5620073   4.1541071  30.1238744
  45.2459120   2.8081365  29.5071677  41.0322133   9.7232691  45.2451484
  40.9318860  10.6727048  45.1763576  40.8143675   9.3950930  44.3727555
  32.2502620  15.0539956  34.1072351  31.5566092  14.6393908  33.5942305
  32.9975611  15.0960492  33.5105769  48.3867841   5.8446142  28.9727385
  47.8066510   6.5030946  28.5905437  48.1203774   5.0223487  28.5614802
  46.8371408   5.2451200  31.1748705  47.3371186   5.3567735  30.3663024
  47.4807015   4.9412253  31.8149514  40.8953403  13.1529830  44.0616546
  40.4120485  13.9530190  44.2680435  40.9814342  13.1637775  43.1083990
  34.1639363  14.9858209  31.9838365  34.1410051  15.0845897  31.0320249
  34.4739999  15.8323360  32.3055532  36.8226741  17.0434364  36.0984980
  37.7769994  17.0118307  36.0314911  36.6239264  16.5824988  36.9135206
  37.4126123  15.6135481  38.6655778  38.2319012  16.1079559  38.6890615
  37.6862931  14.6967449  38.6373345  47.1692719   8.0046233  28.0283733
  46.2818574   8.2895883  27.8103928  47.5846708   7.8439996  27.1811010
  50.5207255   8.0292754  31.7438072  51.2967645   8.5189206  32.0162689
  49.7955389   8.4550808  32.2009942  52.9579814   8.7420373  32.8012013
  53.5524305   8.5016109  32.0905321  53.0306398   8.0227504  33.4285549
  35.1776970  22.5853984  33.1155178  35.0431438  21.8254385  32.5493176
  34.7609032  23.3094884  32.6483967  46.3135933  17.7690908  22.1231753
  47.0171783  17.9740910  22.7389409  45.5898581  18.3367669  22.3880837
  47.1433743  13.5200769  28.2434023  47.0868944  13.9769320  27.4041656
  47.6962085  12.7591453  28.0656866  50.9538549   9.3090501  29.0684143
  50.6975483   8.9087136  29.8992350  50.3291417  10.0234295  28.9434282
  55.2650887  12.0486574  31.5755434  54.7050445  12.1179763  32.3486996
  54.6594390  11.8727559  30.8554930  38.3346095  23.4823301  33.3273620
  38.2178480  24.4268733  33.2252311  37.5138542  23.1796863  33.7159420
  48.2222630  18.2073437  24.1730213  49.0568234  17.7754635  23.9907688
  48.0606973  18.0355450  25.1007108  47.8768522  14.7105550  25.5386552
  47.8217326  14.5449821  24.5974997  47.2514577  15.4181583  25.6948742
  32.6661037   9.9473614  39.3647975  33.3119901   9.4372568  39.8535200
  32.4578188  10.6842296  39.9391400  45.1914429  17.0154462  44.8640115
  46.0605589  17.1895114  44.5026750  44.7121181  17.8348879  44.7415845
  39.3600610  24.1351563  36.5429549  40.2627856  24.1675173  36.8596044
  39.1337980  23.2052014  36.5575885  41.1154212  22.8882549  33.2039627
  40.1649843  22.8884411  33.0904000  41.4186698  22.1415284  32.6875662
  45.0016767   0.8056436  29.3717808  44.2349163   0.2514922  29.5174490
  45.4127472   0.8778304  30.2331959  37.0058528   7.0941231  43.4622989
  37.8689990   6.7378036  43.6726313  36.4323939   6.7555126  44.1498393
  56.8506905  28.7243088  34.2685390  57.4885315  28.6049835  33.5648730
  56.7327748  29.6723932  34.3273342  53.6596611  28.6770516  34.2046915
  53.3215123  28.5611581  33.3167449  54.5286380  28.2761681  34.1847921
  49.5183427  30.5305992  30.1943805  48.9548292  30.4395929  29.4260093
  49.4035822  29.7105897  30.6746298  54.1416394  29.8305368  40.1633120
  54.1305035  29.4358166  39.2913624  54.3037034  29.0971440  40.7566892
  47.0647859  32.0257184  33.0328026  47.8569151  31.6848009  32.6174325
  47.3044509  32.1352159  33.9530179  55.0982986  34.1976960  25.5058270
  54.4470966  34.7831040  25.1192284  55.8927349  34.7283155  25.5653308
  49.0238613  31.2866097  25.9045405  49.7969489  30.7395084  25.7658281
  49.3764012  32.1510347  26.1159866  51.7879862  29.9919328  35.7013664
  52.3843435  29.7675350  34.9870627  51.8454834  29.2504073  36.3039112
  51.3604891  27.4458763  23.5363855  51.6130411  26.9240285  22.7747318
  50.4229450  27.2824909  23.6390538  56.4048174  26.4494542  31.3438598
  57.1911263  26.0313965  30.9929015  56.6686878  27.3540634  31.5120246
  56.5758251  31.8867392  26.0427255  55.9404084  31.9602018  26.7548159
  56.2455657  32.4760991  25.3646334  61.8056601  26.3869775  32.2471576
  62.5381773  25.8168992  32.4809406  61.0495956  25.9991375  32.6878082
  51.0801180  29.3486869  25.7388230  50.9637438  28.6731773  26.4069314
  51.1903439  28.8619243  24.9220383  53.4232720  28.8097016  29.4434919
  53.0590928  28.2827637  30.1547840  54.2799836  28.4195485  29.2701404
  59.3282021  20.0991349  36.7066185  58.9965346  20.9686760  36.4827400
  58.7327634  19.7827633  37.3860215  53.0638207  23.8386916  24.4396267
  53.2312610  24.7067152  24.8066738  52.8735377  24.0014198  23.5157557
  55.8213541  32.3003895  36.1062098  55.5214264  33.2028934  35.9977905
  55.4764600  32.0336078  36.9583251  49.2726022  28.7517692  32.1398802
  48.3476519  28.6193906  32.3476494  49.5210435  29.5311911  32.6368745
  59.2210684  24.8186435  33.7859535  58.3127562  24.7501844  33.4918296
  59.1698280  25.2958380  34.6141361  53.0427428  26.2944574  25.4242934
  52.9227054  26.7401624  26.2628414  52.3480017  26.6429891  24.8656472
  46.6334833  28.3950965  32.9742591  46.7627214  28.6485444  33.8882003
  45.9532284  28.9878673  32.6547246  53.2951550  26.2376081  41.7294432
  52.5184884  26.7970001  41.7197297  53.9342113  26.7232864  42.2509302
  61.0872331  23.0202874  35.5637409  60.4446711  23.3135407  34.9177204
  60.5827259  22.9055794  36.3690606  58.7412494  26.7666047  26.2523268
  59.6530351  26.9993433  26.0770966  58.2322142  27.3503091  25.6898347
  51.5497923  29.0461534  41.2912399  52.2912607  29.5846578  41.0147223
  50.8434908  29.6727823  41.4483951  57.0253262  31.1890675  39.8884561
  57.4336618  30.7473085  39.1439193  56.3030524  30.6143302  40.1418754
  53.3784332  26.1263281  37.2618118  54.2245527  26.5502695  37.4052767
  53.3182970  25.4696906  37.9556681  57.3482077  31.7491865  33.6436850
  56.7190939  31.9137579  32.9412918  56.9607739  32.1633475  34.4147814
  61.2271309  32.6846303  30.9981213  60.5422347  33.0645204  30.4478247
  61.3115158  33.2941630  31.7313161  56.5283778  23.7867650  38.9199291
  56.2844709  24.5409710  38.3833567  56.8043708  24.1652997  39.7546538
  58.4822240  30.3306262  37.5976557  58.6939136  30.9738022  36.9210938
  58.4351989  29.4968579  37.1298487  56.0848469  22.9424083  34.5013129
  55.2232948  23.2405336  34.7929867  56.1110904  23.1594482  33.5694162
  52.9010039  31.4866273  30.9086935  53.3648384  31.7653976  30.1191557
  52.6366837  30.5849718  30.7260025  49.7934120  31.0337755  33.8466698
  50.3635477  31.4625023  33.2084183  50.3842232  30.7520340  34.5450884
  51.8378925  27.6089426  27.7176500  52.5402968  28.0610469  28.1850426
  51.5059553  26.9673245  28.3456393  50.2859286  26.2001182  42.0927709
  49.6557947  26.8817463  42.3263106  50.1795374  26.0884264  41.1480848
  45.5804259  25.8672978  33.0193633  44.7903313  26.1230507  32.5433744
  46.0715506  26.6821316  33.1245674  59.5968068  33.2078217  35.7698914
  60.4185512  32.8058405  35.4881596  59.5930471  33.1046452  36.7215030
  47.5319004  26.2317558  29.9777110  46.7350167  26.3436252  30.4960606
  47.3044596  26.5704210  29.1118001  53.3624672  32.7562261  37.9259625
  53.4269104  33.2182668  38.7617797  52.6535596  32.1259626  38.0541935
  43.8641962  26.1203469  35.4508624  44.1150000  27.0050479  35.7166200
  44.4001510  25.9408070  34.6783716  67.6874061  29.5516966  32.1183886
  66.9337770  28.9824364  31.9627890  67.8221603  29.5179630  33.0654520
  53.0772689  34.4230368  27.7938605  52.9418364  35.2681904  28.2223453
  53.6182502  34.6249646  27.0304539  49.5640029  20.5021948  44.4552960
  49.1706975  19.9488147  45.1300605  50.3806169  20.8132527  44.8459478
  46.5302087  31.9405806  28.3666530  47.0426607  32.7349057  28.5172095
  47.1824800  31.2432097  28.3000132  48.3396971  35.0571563  30.4489283
  48.5163600  35.9789527  30.2610267  49.1353805  34.7429982  30.8783663
  52.4807990  21.9179827  42.0473217  53.2217703  22.5186980  41.9677679
  52.7125913  21.1757465  41.4891259  47.6249328  27.1036194  40.3251447
  47.5102843  26.2021452  40.6258546  46.7693846  27.3499891  39.9736263
  56.8022404  35.3256735  39.9520349  56.7840879  36.1465616  39.4600618
  57.7242324  35.2010810  40.1770490  56.4265153  17.9460930  36.3237499
  56.0829422  18.8362572  36.2476609  56.7944116  17.7562588  35.4607084
  44.4951004  30.2694461  29.1426101  45.3326226  30.6791469  28.9259808
  44.6729271  29.3293903  29.1126295  56.3915436  27.9369541  24.8309934
  55.8762059  28.7074146  25.0698321  56.1192744  27.2634677  25.4542995
  53.9762547  22.7819242  29.8895172  53.1204143  22.3926092  29.7100811
  54.3889498  22.8611203  29.0294958  55.5061693  20.3165585  34.2886732
  55.0026489  20.2795720  33.4754537  55.7992300  21.2258328  34.3483389
  51.7504579  20.4004315  33.2952914  52.6157576  20.2047124  32.9358803
  51.8182088  20.1714667  34.2222270  61.3649710  30.6901896  26.7663107
  60.5879153  30.3513055  26.3218269  62.0441191  30.6954519  26.0918072
  56.1801739  25.8096633  26.6569715  55.8751874  26.1242783  27.5079858
  57.1332181  25.8878053  26.6997048  54.6248171  31.9686857  28.3062669
  54.0969532  31.2339616  27.9935906  54.1235673  32.7461533  28.0602637
  59.6041017  30.1635877  33.4229715  58.9464691  30.8535139  33.5109844
  60.4081416  30.5532309  33.7663702  49.3566898  22.6306523  30.6669280
  49.9310650  22.4081704  29.9342473  49.9437881  22.6995217  31.4197882
  58.4146475  28.5180250  31.4733657  58.9278357  29.1510242  31.9755367
  59.0647699  27.9181445  31.1077017  49.6836485  24.6610984  24.6865166
  48.8473798  24.9985671  25.0074440  49.5441255  24.5259964  23.7492303
  51.6589566  19.5047772  29.3944350  51.0053978  19.1896789  28.7700965
  51.6170040  18.8823512  30.1204173  52.7700771  29.7867067  21.3097642
  51.8627833  29.5556320  21.5088791  53.2671803  28.9904686  21.4971623
  55.6768850  38.4964574  24.2294328  55.0030548  38.7996271  24.8379286
  56.0634672  39.2993654  23.8799785  54.8927306  25.9929705  33.7191997
  53.9749868  26.2144652  33.5613686  55.3087450  26.0676016  32.8603705
  55.6762354  27.3921121  28.8494678  56.4234173  27.9042518  28.5401800
  55.9453944  27.0705174  29.7099071  53.9489004  29.8879662  25.8321632
  53.0400224  29.6038695  25.9294102  53.9784088  30.3078740  24.9724939
  59.1808272  33.4986251  29.6012800  58.7270599  32.6577161  29.6577990
  58.5502238  34.1347650  29.9387580  58.1241191  24.4278237  30.8313467
  57.3863948  23.9155624  31.1623710  58.3767965  23.9878619  30.0196744
  57.6241211  35.3362748  30.5362618  57.9164185  35.8967805  29.8174983
  58.1339831  35.6291309  31.2915777  58.2252819  17.2054489  31.4255236
  58.5311695  16.3451853  31.1381151  58.9505423  17.7972110  31.2254230
  44.5177175  27.6085176  29.8136834  44.3201574  27.0154537  29.0887901
  43.9623839  27.3037386  30.5312773  52.4973898  27.5008282  31.9331427
  52.5522508  26.5482119  31.8573904  51.6865100  27.6567722  32.4172726
  53.6465092  31.4288405  23.1709711  53.2084522  30.7124264  22.7115348
  54.3875533  31.6564520  22.6094802  50.4366258  26.1185342  29.6921806
  49.6234124  26.4179513  30.0986998  50.9325252  25.7241031  30.4096288
  52.5874836  36.1143099  31.6256071  52.5451015  36.3403945  30.6964603
  53.5037535  35.8806474  31.7741872  56.0340470  26.5827167  38.5236700
  56.3889858  26.8098640  39.3831166  56.6812601  26.9145543  37.9013955
  61.7638207  29.7045603  29.2286029  61.6256105  29.8947198  28.3007218
  61.4074426  30.4664985  29.6854080  49.9280333  23.6903698  35.3083041
  50.5679712  23.5492457  34.6106004  49.0957864  23.4038211  34.9321643
  61.7907586  31.7722130  34.2397301  62.2244093  31.6797419  35.0880355
  62.5039167  31.7479630  33.6017317  50.7040637  32.9906128  31.4218034
  51.4981235  32.4956448  31.2200609  49.9932329  32.4623991  31.0585739
  55.5235481  35.3724224  35.7730401  55.5772504  35.9415160  36.5408117
  54.6550263  35.5426109  35.4084438  47.0123400  27.1349210  27.4977786
  46.0820988  27.0733665  27.7147748  47.1080872  26.6125163  26.7014428
  46.9308949  23.6604023  30.0856028  47.1915767  24.5749356  29.9765188
  47.7526122  23.1928465  30.2352641  48.4033875  25.0741780  37.2554853
  49.0756928  24.8659142  36.6067501  47.5763661  24.8763866  36.8160085
  62.6523136  31.8145830  36.7730186  62.8459026  32.7191641  37.0189461
  62.5523754  31.3553249  37.6068771  54.3059447  21.7003721  39.2720513
  53.6587362  22.3993670  39.1784990  55.0760462  22.1339865  39.6396762
  57.7138245  31.9652573  42.3471067  57.5623751  31.7363125  41.4301150
  57.7042924  32.9223174  42.3602412  54.4823581  29.5384486  37.3317333
  55.4115641  29.6895645  37.1586300  54.0614611  29.6268506  36.4765980
  53.2811913  33.5635150  35.1015871  53.1422999  33.1953934  35.9741809
  52.4926509  34.0782790  34.9299829  53.8760065  38.6644247  26.4441407
  54.0511821  38.1932290  27.2587030  53.1892853  39.2910013  26.6722668
  54.8317128  32.9416753  32.4904709  54.4966961  32.9017523  33.3862358
  54.3321074  32.2761469  32.0175119  48.8061372  28.3484383  38.0157290
  48.6681170  27.6164622  38.6168829  49.7166295  28.2593283  37.7341477
  57.7676320  30.2872787  22.7641768  57.1505490  29.5619615  22.6674821
  57.2992808  31.0482147  22.4208842  51.4343673  28.0604342  37.5040969
  52.1443291  27.4197534  37.4627588  51.3912981  28.3117237  38.4267150
  59.4230451  34.9971695  40.4247549  59.3642997  34.3130916  39.7578132
  59.8249970  35.7390685  39.9728175  50.1472607  25.0469560  39.3236609
  49.6109964  24.5960298  39.9758205  49.5589315  25.1815469  38.5807073
  49.5574866  24.5058211  21.8863072  48.6804332  24.3847012  21.5225319
  50.0332619  23.7144290  21.6341961  59.4247859  32.9611279  38.6561528
  58.5374637  32.6237201  38.7787927  59.9946410  32.2294311  38.8930294
  41.0777006  29.2935371  31.9804580  41.7648046  28.9797101  31.3925595
  40.9225134  30.1976736  31.7071831  45.8811728  24.1825568  36.4089603
  45.7969917  23.5751237  35.6740013  45.0594434  24.6734586  36.4099100
  52.7438792  36.8584502  29.1325593  51.9606314  37.4006182  29.2263817
  53.4431537  37.3758481  29.5319834  56.0535442  22.6679131  31.7759798
  56.5504141  21.9149094  31.4560869  55.2822423  22.7043448  31.2103008
  63.9065199  28.3719497  33.4178090  63.8955075  29.2544212  33.0472023
  63.0382579  28.0191048  33.2232627  57.1365222  31.4250818  29.3498222
  56.2021501  31.5452281  29.1802926  57.3141891  30.5223285  29.0858232
  52.6370410  24.8096514  31.5031483  52.2668198  24.2567555  32.1912389
  53.1329503  24.2054648  30.9506483  60.5237774  27.2668138  29.8848256
  60.9898226  28.0996129  29.8108559  60.9745274  26.8013119  30.5893514
  58.5914005  33.6111959  26.8834408  58.8673849  33.4968554  27.7928282
  57.7218504  33.2129444  26.8446581  58.4954437  19.6348725  33.9239157
  57.5817516  19.8652952  34.0921364  58.9247538  19.7187169  34.7753190
  58.2660895  27.8238617  36.4239051  57.6132345  28.0714524  35.7691504
  58.6441275  27.0102755  36.0901529  55.2268069  37.8598310  30.5267222
  55.4090463  37.0419966  30.9894974  56.0501055  38.0766002  30.0892112
  55.5610234  36.7866495  27.7882270  56.0898001  36.2758950  27.1752432
  55.8238454  36.4709025  28.6527803  54.3148468  28.5658428  42.9105088
  53.6389105  28.4652557  43.5807464  55.1376102  28.4097642  43.3741086
  46.0627327  34.8030364  35.5317604  46.6480764  34.0574052  35.6645508
  45.8652166  35.1134321  36.4154267  48.9165982  37.8381612  30.5480046
  48.2476358  38.3227739  30.0644086  48.7778852  38.0850832  31.4623424
  40.6544982  27.3735965  34.2522047  40.6929081  26.8399555  35.0459165
  40.1485275  26.8471170  33.6333024  48.0335744  22.2200505  37.7484589
  48.0977071  23.0815336  37.3361987  47.9702864  21.6074507  37.0156948
  47.5088017  24.2923638  41.3957623  48.1360055  23.9100715  42.0095148
  46.6515936  24.0737839  41.7613316  57.9082125  34.6986613  43.0011359
  58.4522029  35.3116571  42.5066314  57.3268970  35.2566191  43.5178372
  44.2853559  26.1000067  27.3275978  44.5807001  25.1910745  27.2743032
  43.3841595  26.0787806  27.0056980  56.1939638  37.8207331  34.1326386
  56.0690778  37.0197071  33.6237332  56.8518729  38.3153524  33.6440356
  47.8147806  24.1756063  33.3103527  47.0934392  24.7892031  33.1711000
  48.6041062  24.7113828  33.2320173  58.2574547  35.6216351  35.7605937
  57.3104882  35.5021702  35.6884263  58.6057320  34.7338849  35.8432198
  50.6174120  21.5110490  39.5844178  51.1408522  21.7572786  40.3470488
  50.3986453  22.3430525  39.1647316  46.0141401  23.7814164  27.4515303
  45.6854107  22.9011543  27.2690409  46.3680772  23.7261833  28.3391693
  55.2620980  35.4169067  31.9610289  55.1145942  34.4885774  32.1417859
  56.0874473  35.4389158  31.4767364  49.1283224  24.0687134  27.8190781
  49.4679297  24.5973055  27.0969389  49.5755345  24.4067540  28.5949347
  58.8655102  36.2397626  33.0475162  59.7901649  36.0340487  32.9099613
  58.6970405  35.9914027  33.9564503  51.8226665  22.4524185  37.2693849
  51.4823485  21.6531998  37.6714529  51.1165671  22.7525896  36.6970682
  52.4743137  19.5373497  35.7221172  53.2969206  19.0633975  35.6000062
  52.7181200  20.3163981  36.2219858  51.1151371  22.5661756  26.0184074
  51.8359734  22.9443009  25.5147791  50.4916675  23.2850633  26.1219052
  55.2582494  23.2706905  26.9542406  55.4746109  24.1531543  26.6531234
  54.7776561  22.8793118  26.2248048  49.9981716  26.2292618  33.5313151
  49.8526296  26.5432921  34.4237432  49.5206919  26.8477518  32.9784049
  51.8578098  23.2195166  33.5794040  51.8439667  22.3236259  33.2426338
  52.5750527  23.2265830  34.2132326  53.7104229  23.6532506  35.6247168
  53.4522007  24.5749577  35.6231498  53.1789270  23.2562941  36.3147632
  58.6550418  36.7583293  28.4037253  58.8287295  36.1929716  27.6511105
  59.1479309  37.5584188  28.2216743  44.4727378  28.7697962  36.4700812
  43.9280846  29.5457770  36.6021086  45.3506728  29.1168767  36.3119933
  51.2614994  22.1009546  28.8481610  51.3830906  21.1726192  29.0472498
  50.9717037  22.1148232  27.9359926  54.1306185  19.7864457  31.9848330
  54.1527882  19.8503790  31.0300310  54.5474244  18.9468965  32.1788836
  64.5089809  29.5219716  30.0227553  64.9520955  28.7727041  29.6246676
  63.6316319  29.5129853  29.6401285  59.6425590  36.0750058  25.5034151
  60.3376495  36.6956750  25.7221466  59.9848741  35.2245409  25.7786529
  45.2593400  27.8967859  39.3630969  44.5175136  28.0450494  39.9495599
  44.9386144  28.1576124  38.4997718  61.5417014  33.5249763  27.0321482
  62.0668338  33.8637036  26.3070802  61.4539366  32.5896778  26.8484617
  45.7050013  35.7833287  31.3941363  46.5308033  35.4837059  31.0140007
  45.3544065  35.0140910  31.8431152  50.6731546  35.1359756  33.4639037
  50.0511556  34.4730461  33.1641265  51.3436413  35.1620887  32.7812685
  43.9058618  33.7019614  32.3530297  43.0690527  33.2741788  32.1714298
  43.8782264  33.8952057  33.2901088  50.7456074  23.6141544  43.0571543
  50.7944229  24.4903666  42.6749313  51.2878588  23.0718937  42.4843186
  61.2310920  34.1582667  42.3372680  60.4406463  34.1406806  41.7977179
  60.9944274  34.6970960  43.0921717  61.3508795  31.0075133  39.6505409
  61.4006800  30.8425141  40.5920931  61.2422718  30.1402392  39.2603289
  50.2345053  33.6863679  26.9397497  50.3833174  34.3699143  26.2864170
  51.0411497  33.6668769  27.4546953  58.6412557  26.9906061  40.9664715
  59.5422420  26.8512526  40.6748713  58.7160532  27.1560516  41.9062893
  52.9755362  24.3672916  39.8117902  52.1058672  24.6606482  39.5400490
  53.2114843  24.9513361  40.5325165  62.8526991  33.4272075  39.8947430
  62.5611800  33.7902055  40.7310891  62.2399123  32.7139083  39.7160762
  64.0522674  30.9924954  32.4150000  64.8869565  31.4314759  32.5787561
  64.1881803  30.5163608  31.5958246  61.1014180  28.5504689  38.3627488
  61.5768301  28.7432336  37.5546339  60.1779745  28.6063875  38.1170872
  47.9897686  29.7128856  27.9458566  47.7443728  28.8091186  28.1438776
  48.1593601  29.7146007  27.0038044  55.6794396  20.5852533  37.3283322
  56.1976340  21.3213560  37.0029811  55.3249529  20.8916526  38.1630081
  47.2593334  25.4457214  25.4444728  46.5662579  25.5201569  24.7884764
  47.0145086  24.6817558  25.9666245  55.9306990  17.0052815  32.8484219
  56.2108744  16.3376004  33.4744645  56.7157597  17.1981911  32.3358882
  53.7340459  36.1811809  24.4109245  53.1614426  36.8001996  23.9579717
  54.3073253  36.7311171  24.9449167  59.8015849  25.4270449  36.5955794
  60.7533272  25.5268547  36.6168018  59.6319299  24.6348718  37.1053878
  57.8230228  22.5126033  36.7815195  57.2280160  22.7931045  36.0861683
  57.5379925  23.0019934  37.5531936  56.9537719  36.4648959  25.5417827
  57.8868392  36.3994521  25.7450703  56.8660931  37.3005226  25.0832360
  59.5825735  35.7814830  22.5021775  59.5039367  35.4474693  23.3957533
  60.4035402  36.2736598  22.5013247  62.2803927  28.6476569  35.7098093
  62.2480247  27.7092570  35.8957777  62.8904550  28.7260606  34.9763918
  54.1187257  27.5172622  21.7525297  55.0646362  27.3878830  21.8213715
  53.7401502  26.7787284  22.2294726  62.4298415  25.4387613  35.7556377
  61.9137464  24.6546069  35.5686305  63.3138364  25.1106329  35.9202896
  60.0909142  19.1828628  31.7152189  59.8933963  18.8743716  32.5995521
  60.7008848  19.9090267  31.8450119  68.0980476  29.7092576  34.8504130
  68.8283865  29.4477864  35.4111833  67.4887422  28.9721298  34.8906198
  66.1795773  27.8500439  35.4478581  65.4528937  27.7156403  34.8395073
  65.7643060  28.1577267  36.2535299  54.0025950  31.5690368  43.2125954
  54.9228959  31.7468967  43.4066001  53.9675533  30.6246414  43.0605654
  52.3030175  25.4422598  21.6880183  51.3961630  25.1455711  21.7642896
  52.5806156  25.1452417  20.8214469  43.2208115  26.7628962  32.1379229
  42.9010899  25.9094270  31.8453603  42.6741543  26.9777540  32.8937196
  46.9988022  29.4791403  35.8548736  47.2174032  30.4108511  35.8736769
  47.4113796  29.1199377  36.6403539  53.9192240  19.9859488  27.8424424
  53.1092969  19.6406573  28.2179670  54.6076657  19.6767032  28.4312035
  55.8482789  19.0637535  29.4648721  56.4013827  19.4832988  30.1238744
  56.0852875  18.1373283  29.5071677  51.8715888  25.0524609  45.2451484
  51.7712615  26.0018966  45.1763576  51.6537430  24.7242848  44.3727555
  51.0728959  22.3009534  21.8292162  51.9348123  22.6264432  22.0887979
  51.2579303  21.5141030  21.3165228  43.0896375  30.3831873  34.1072351
  42.3959846  29.9685826  33.5942305  43.8369366  30.4252410  33.5105769
  59.2261596  21.1738060  28.9727385  58.6460265  21.8322864  28.5905437
  58.9597528  20.3515405  28.5614802  57.6765162  20.5743118  31.1748705
  58.1764940  20.6859652  30.3663024  58.3200770  20.2704171  31.8149514
  51.7347158  28.4821747  44.0616546  51.2514240  29.2822108  44.2680435
  51.8208097  28.4929692  43.1083990  45.0033117  30.3150127  31.9838365
  44.9803806  30.4137814  31.0320249  45.3133754  31.1615278  32.3055532
  47.6620495  32.3726282  36.0984980  48.6163749  32.3410224  36.0314911
  47.4633019  31.9116906  36.9135206  48.2519877  30.9427398  38.6655778
  49.0712766  31.4371477  38.6890615  48.5256685  30.0259366  38.6373345
  58.0086474  23.3338151  28.0283733  57.1212329  23.6187801  27.8103928
  58.4240463  23.1731914  27.1811010  61.3601010  23.3584671  31.7438072
  62.1361400  23.8481124  32.0162689  60.6349144  23.7842726  32.2009942
  63.7973568  24.0712291  32.8012013  64.3918059  23.8308027  32.0905321
  63.8700152  23.3519421  33.4285549  46.0170724  37.9145902  33.1155178
  45.8825192  37.1546303  32.5493176  45.6002786  38.6386802  32.6483967
  57.1529687  33.0982825  22.1231753  57.8565537  33.3032828  22.7389409
  56.4292336  33.6659587  22.3880837  57.9827497  28.8492686  28.2434023
  57.9262699  29.3061238  27.4041656  58.5355840  28.0883371  28.0656866
  61.7932303  24.6382418  29.0684143  61.5369238  24.2379054  29.8992350
  61.1685171  25.3526212  28.9434282  66.1044641  27.3778492  31.5755434
  65.5444199  27.4471681  32.3486996  65.4988145  27.2019476  30.8554930
  49.1739850  38.8115219  33.3273620  49.0572234  39.7560651  33.2252311
  48.3532296  38.5088780  33.7159420  59.0616385  33.5365354  24.1730213
  59.8961988  33.1046553  23.9907688  58.9000727  33.3647368  25.1007108
  58.7162277  30.0397468  25.5386552  58.6611081  29.8741739  24.5974997
  58.0908332  30.7473501  25.6948742  43.5054792  25.2765532  39.3647975
  44.1513655  24.7664486  39.8535200  43.2971943  26.0134214  39.9391400
  56.0308184  32.3446380  44.8640115  56.8999344  32.5187032  44.5026750
  55.5514935  33.1640796  44.7415845  52.0258402  19.5405577  25.1171871
  52.0137072  20.4847417  25.2740142  52.9181824  19.3575722  24.8231332
  55.8410522  16.1348353  29.3717808  55.0742917  15.5806840  29.5174490
  56.2521227  16.2070222  30.2331959  47.8452283  22.4233149  43.4622989
  48.7083744  22.0669954  43.6726313  47.2717693  22.0847044  44.1498393
  67.6900660  44.0535006  34.2685390  68.3279070  43.9341753  33.5648730
  67.5721503  45.0015849  34.3273342  64.4990366  44.0062434  34.2046915
  64.1608877  43.8903498  33.3167449  65.3680134  43.6053599  34.1847921
  65.9376740  49.5268878  25.5058270  65.2864720  50.1122958  25.1192284
  66.7321103  50.0575073  25.5653308  59.8632367  46.6158015  25.9045405
  60.6363243  46.0687002  25.7658281  60.2157766  47.4802264  26.1159866
  62.1998645  42.7750681  23.5363855  62.4524166  42.2532202  22.7747318
  61.2623204  42.6116826  23.6390538  67.2441928  41.7786459  31.3438598
  68.0305017  41.3605883  30.9929015  67.5080632  42.6832552  31.5120246
  67.4152005  47.2159310  26.0427255  66.7797838  47.2893936  26.7548159
  67.0849412  47.8052908  25.3646334  72.6450355  41.7161693  32.2471576
  73.3775527  41.1460909  32.4809406  71.8889711  41.3283293  32.6878082
  61.9194934  44.6778787  25.7388230  61.8031192  44.0023690  26.4069314
  62.0297194  44.1911161  24.9220383  64.2626475  44.1388934  29.4434919
  63.8984682  43.6119555  30.1547840  65.1193591  43.7487403  29.2701404
  70.1675776  35.4283267  36.7066185  69.8359100  36.2978678  36.4827400
  69.5721389  35.1119551  37.3860215  63.9031962  39.1678834  24.4396267
  64.0706364  40.0359070  24.8066738  63.7129131  39.3306115  23.5157557
  66.6607295  47.6295813  36.1062098  66.3608018  48.5320851  35.9977905
  66.3158355  47.3627996  36.9583251  70.0604439  40.1478353  33.7859535
  69.1521316  40.0793761  33.4918296  70.0092035  40.6250298  34.6141361
  63.8821183  41.6236491  25.4242934  63.7620808  42.0693542  26.2628414
  63.1873771  41.9721809  24.8656472  61.6428075  54.3940133  29.0733065
  61.5652105  55.3447958  29.1521546  61.0389719  54.0486005  29.7307992
  64.1345305  41.5667998  41.7294432  63.3578639  42.1261919  41.7197297
  64.7735868  42.0524781  42.2509302  71.9266085  38.3494791  35.5637409
  71.2840466  38.6427324  34.9177204  71.4221014  38.2347712  36.3690606
  69.5806249  42.0957964  26.2523268  70.4924105  42.3285351  26.0770966
  69.0715896  42.6795009  25.6898347  67.8647017  46.5182592  39.8884561
  68.2730373  46.0765003  39.1439193  67.1424278  45.9435220  40.1418754
  64.2178087  41.4555199  37.2618118  65.0639282  41.8794613  37.4052767
  64.1576724  40.7988823  37.9556681  68.1875831  47.0783783  33.6436850
  67.5584694  47.2429497  32.9412918  67.8001493  47.4925392  34.4147814
  72.0665063  48.0138221  30.9981213  71.3816101  48.3937122  30.4478247
  72.1508912  48.6233547  31.7313161  67.3677532  39.1159567  38.9199291
  67.1238464  39.8701628  38.3833567  67.6437463  39.4944915  39.7546538
  69.3215995  45.6598180  37.5976557  69.5332890  46.3029940  36.9210938
  69.2745743  44.8260496  37.1298487  66.9242224  38.2716000  34.5013129
  66.0626703  38.5697254  34.7929867  66.9504658  38.4886399  33.5694162
  62.6772679  42.9381343  27.7176500  63.3796723  43.3902387  28.1850426
  62.3453308  42.2965162  28.3456393  61.1253041  41.5293100  42.0927709
  60.4951701  42.2109381  42.3263106  61.0189129  41.4176182  41.1480848
  70.4361823  48.5370135  35.7698914  71.2579266  48.1350322  35.4881596
  70.4324226  48.4338369  36.7215030  58.3712759  41.5609475  29.9777110
  57.5743922  41.6728169  30.4960606  58.1438351  41.8996127  29.1118001
  78.5267816  44.8808884  32.1183886  77.7731524  44.3116282  31.9627890
  78.6615357  44.8471548  33.0654520  63.9166444  49.7522286  27.7938605
  63.7812119  50.5973822  28.2223453  64.4576256  49.9541564  27.0304539
  60.4033783  35.8313866  44.4552960  60.0100729  35.2780064  45.1300605
  61.2199924  36.1424444  44.8459478  57.3695841  47.2697724  28.3666530
  57.8820362  48.0640974  28.5172095  58.0218554  46.5724014  28.3000132
  63.3201744  37.2471745  42.0473217  64.0611458  37.8478898  41.9677679
  63.5519667  36.5049383  41.4891259  67.2658907  33.2752848  36.3237499
  66.9223177  34.1654490  36.2476609  67.6337870  33.0854505  35.4607084
  55.3344758  45.5986378  29.1426101  56.1719980  46.0083387  28.9259808
  55.5123026  44.6585820  29.1126295  67.2309190  43.2661459  24.8309934
  66.7155814  44.0366064  25.0698321  66.9586499  42.5926595  25.4542995
  64.8156301  38.1111160  29.8895172  63.9597897  37.7218010  29.7100811
  65.2283253  38.1903121  29.0294958  66.3455448  35.6457503  34.2886732
  65.8420243  35.6087638  33.4754537  66.6386055  36.5550246  34.3483389
  62.5898334  35.7296233  33.2952914  63.4551330  35.5339041  32.9358803
  62.6575843  35.5006584  34.2222270  72.2043464  46.0193814  26.7663107
  71.4272907  45.6804973  26.3218269  72.8834945  46.0246437  26.0918072
  67.0195493  41.1388551  26.6569715  66.7145629  41.4534700  27.5079858
  67.9725935  41.2169971  26.6997048  65.4641925  47.2978774  28.3062669
  64.9363287  46.5631534  27.9935906  64.9629428  48.0753451  28.0602637
  70.4434771  45.4927795  33.4229715  69.7858446  46.1827056  33.5109844
  71.2475170  45.8824227  33.7663702  60.1960653  37.9598441  30.6669280
  60.7704405  37.7373622  29.9342473  60.7831635  38.0287135  31.4197882
  69.2540230  43.8472168  31.4733657  69.7672112  44.4802159  31.9755367
  69.9041454  43.2473363  31.1077017  60.5230240  39.9902902  24.6865166
  59.6867552  40.3277588  25.0074440  60.3835010  39.8551881  23.7492303
  62.4983320  34.8339690  29.3944350  61.8447733  34.5188707  28.7700965
  62.4563795  34.2115430  30.1204173  63.6094525  45.1158985  21.3097642
  62.7021587  44.8848238  21.5088791  64.1065557  44.3196604  21.4971623
  66.5162604  53.8256492  24.2294328  65.8424303  54.1288189  24.8379286
  66.9028426  54.6285572  23.8799785  65.7321061  41.3221623  33.7191997
  64.8143622  41.5436570  33.5613686  66.1481204  41.3967934  32.8603705
  66.5156109  42.7213039  28.8494678  67.2627928  43.2334436  28.5401800
  66.7847698  42.3997091  29.7099071  64.7882759  45.2171579  25.8321632
  63.8793978  44.9330612  25.9294102  64.8177843  45.6370658  24.9724939
  70.0202026  48.8278169  29.6012800  69.5664353  47.9869079  29.6577990
  69.3895993  49.4639567  29.9387580  68.9634946  39.7570155  30.8313467
  68.2257703  39.2447541  31.1623710  69.2161719  39.3170537  30.0196744
  68.4634965  50.6654666  30.5362618  68.7557940  51.2259723  29.8174983
  68.9733586  50.9583227  31.2915777  69.0646573  32.5346407  31.4255236
  69.3705450  31.6743770  31.1381151  69.7899178  33.1264027  31.2254230
  63.3367653  42.8300200  31.9331427  63.3916263  41.8774036  31.8573904
  62.5258855  42.9859639  32.4172726  64.4858847  46.7580323  23.1709711
  64.0478276  46.0416182  22.7115348  65.2269287  46.9856438  22.6094802
  61.2760013  41.4477260  29.6921806  60.4627878  41.7471430  30.0986998
  61.7719007  41.0532949  30.4096288  66.8734224  41.9119084  38.5236700
  67.2283612  42.1390557  39.3831166  67.5206356  42.2437461  37.9013955
  72.6031961  45.0337520  29.2286029  72.4649860  45.2239116  28.3007218
  72.2468180  45.7956903  29.6854080  60.7674087  39.0195615  35.3083041
  61.4073467  38.8784374  34.6106004  59.9351618  38.7330129  34.9321643
  72.6301341  47.1014047  34.2397301  73.0637848  47.0089336  35.0880355
  73.3432922  47.0771548  33.6017317  66.3629236  50.7016141  35.7730401
  66.4166258  51.2707078  36.5408117  65.4944017  50.8718026  35.4084438
  57.8517155  42.4641128  27.4977786  56.9214743  42.4025583  27.7147748
  57.9474627  41.9417080  26.7014428  57.7702704  38.9895940  30.0856028
  58.0309521  39.9041274  29.9765188  58.5919876  38.5220383  30.2352641
  73.4916891  47.1437748  36.7730186  73.6852781  48.0483558  37.0189461
  73.3917509  46.6845167  37.6068771  65.1453201  37.0295638  39.2720513
  64.4981116  37.7285588  39.1784990  65.9154217  37.4631782  39.6396762
  64.7153819  53.9936164  26.4441407  64.8905575  53.5224207  27.2587030
  64.0286607  54.6201930  26.6722668  68.6070074  45.6164705  22.7641768
  67.9899245  44.8911533  22.6674821  68.1386563  46.3774065  22.4208842
  62.2737427  43.3896260  37.5040969  62.9837046  42.7489452  37.4627588
  62.2306735  43.6409155  38.4267150  70.2624206  50.3263613  40.4247549
  70.2036752  49.6422833  39.7578132  70.6643724  51.0682603  39.9728175
  60.9866361  40.3761478  39.3236609  60.4503718  39.9252216  39.9758205
  60.3983070  40.5107387  38.5807073  60.3968620  39.8350129  21.8863072
  59.5198086  39.7138930  21.5225319  60.8726373  39.0436207  21.6341961
  70.2641613  48.2903197  38.6561528  69.3768392  47.9529119  38.7787927
  70.8340164  47.5586228  38.8930294  63.5832546  52.1876419  29.1325593
  62.8000068  52.7298100  29.2263817  64.2825291  52.7050399  29.5319834
  66.8929196  37.9971049  31.7759798  67.3897896  37.2441011  31.4560869
  66.1216178  38.0335366  31.2103008  74.7458954  43.7011414  33.4178090
  74.7348830  44.5836130  33.0472023  73.8776333  43.3482965  33.2232627
  67.9758977  46.7542736  29.3498222  67.0415256  46.8744199  29.1802926
  68.1535645  45.8515203  29.0858232  63.4764165  40.1388432  31.5031483
  63.1061953  39.5859472  32.1912389  63.9723257  39.5346565  30.9506483
  71.3631528  42.5960055  29.8848256  71.8291980  43.4288047  29.8108559
  71.8139029  42.1305037  30.5893514  69.4307759  48.9403877  26.8834408
  69.7067603  48.8260471  27.7928282  68.5612258  48.5421362  26.8446581
  69.3348191  34.9640642  33.9239157  68.4211271  35.1944869  34.0921364
  69.7641292  35.0479086  34.7753190  69.1054650  43.1530534  36.4239051
  68.4526100  43.4006442  35.7691504  69.4835029  42.3394673  36.0901529
  66.0661823  53.1890228  30.5267222  66.2484218  52.3711883  30.9894974
  66.8894809  53.4057920  30.0892112  66.4003989  52.1158413  27.7882270
  66.9291755  51.6050867  27.1752432  66.6632208  51.8000943  28.6527803
  59.7559737  53.1673529  30.5480046  59.0870112  53.6519657  30.0644086
  59.6172607  53.4142750  31.4623424  58.8729499  37.5492423  37.7484589
  58.9370825  38.4107254  37.3361987  58.8096619  36.9366424  37.0156948
  55.1247314  41.4291984  27.3275978  55.4200755  40.5202663  27.2743032
  54.2235350  41.4079724  27.0056980  67.0333393  53.1499248  34.1326386
  66.9084532  52.3488988  33.6237332  67.6912484  53.6445442  33.6440356
  58.6541561  39.5047981  33.3103527  57.9328147  40.1183949  33.1711000
  59.4434817  40.0405746  33.2320173  69.0968301  50.9508269  35.7605937
  68.1498637  50.8313620  35.6884263  69.4451074  50.0630767  35.8432198
  61.4567874  36.8402407  39.5844178  61.9802276  37.0864704  40.3470488
  61.2380208  37.6722442  39.1647316  56.8535156  39.1106082  27.4515303
  56.5247862  38.2303461  27.2690409  57.2074526  39.0553751  28.3391693
  66.1014734  50.7460985  31.9610289  65.9539697  49.8177692  32.1417859
  66.9268228  50.7681075  31.4767364  59.9676979  39.3979052  27.8190781
  60.3073051  39.9264973  27.0969389  60.4149099  39.7359458  28.5949347
  69.7048856  51.5689543  33.0475162  70.6295404  51.3632405  32.9099613
  69.5364160  51.3205945  33.9564503  62.6620419  37.7816103  37.2693849
  62.3217240  36.9823916  37.6714529  61.9559426  38.0817813  36.6970682
  63.3136891  34.8665415  35.7221172  64.1362961  34.3925893  35.6000062
  63.5574955  35.6455899  36.2219858  61.9545126  37.8953673  26.0184074
  62.6753488  38.2734926  25.5147791  61.3310430  38.6142550  26.1219052
  66.0976249  38.5998822  26.9542406  66.3139863  39.4823460  26.6531234
  65.6170316  38.2085036  26.2248048  60.8375470  41.5584536  33.5313151
  60.6920051  41.8724839  34.4237432  60.3600674  42.1769436  32.9784049
  62.6971853  38.5487084  33.5794040  62.6833422  37.6528177  33.2426338
  63.4144281  38.5557747  34.2132326  64.5497984  38.9824424  35.6247168
  64.2915761  39.9041494  35.6231498  64.0183024  38.5854858  36.3147632
  69.4944172  52.0875211  28.4037253  69.6681050  51.5221633  27.6511105
  69.9873064  52.8876106  28.2216743  62.1008749  37.4301464  28.8481610
  62.2224660  36.5018110  29.0472498  61.8110791  37.4440150  27.9359926
  64.9699939  35.1156374  31.9848330  64.9921636  35.1795707  31.0300310
  65.3867998  34.2760883  32.1788836  75.3483564  44.8511634  30.0227553
  75.7914710  44.1018959  29.6246676  74.4710074  44.8421770  29.6401285
  70.4819345  51.4041975  25.5034151  71.1770250  52.0248668  25.7221466
  70.8242495  50.5537327  25.7786529  72.3810768  48.8541681  27.0321482
  72.9062092  49.1928954  26.3070802  72.2933121  47.9188696  26.8484617
  64.0651429  54.9213664  31.3916735  63.6256419  54.4290043  32.0849592
  64.8159546  54.3786632  31.1508810  61.5849828  38.9433461  43.0571543
  61.6337984  39.8195584  42.6749313  62.1272343  38.4010854  42.4843186
  72.0704674  49.4874584  42.3372680  71.2800218  49.4698723  41.7977179
  71.8338029  50.0262878  43.0921717  72.1902549  46.3367051  39.6505409
  72.2400554  46.1717058  40.5920931  72.0816473  45.4694310  39.2603289
  61.0738808  49.0155597  26.9397497  61.2226928  49.6991061  26.2864170
  61.8805251  48.9960687  27.4546953  69.4806312  42.3197979  40.9664715
  70.3816174  42.1804444  40.6748713  69.5554286  42.4852434  41.9062893
  63.8149117  39.6964834  39.8117902  62.9452426  39.9898400  39.5400490
  64.0508597  40.2805279  40.5325165  73.6920746  48.7563992  39.8947430
  73.4005554  49.1193973  40.7310891  73.0792877  48.0431001  39.7160762
  74.8916428  46.3216872  32.4150000  75.7263320  46.7606676  32.5787561
  75.0275557  45.8455525  31.5958246  71.9407934  43.8796607  38.3627488
  72.4162056  44.0724253  37.5546339  71.0173500  43.9355793  38.1170872
  58.8291441  45.0420774  27.9458566  58.5837483  44.1383104  28.1438776
  58.9987355  45.0437925  27.0038044  66.5188151  35.9144451  37.3283322
  67.0370095  36.6505477  37.0029811  66.1643283  36.2208444  38.1630081
  58.0987088  40.7749132  25.4444728  57.4056333  40.8493487  24.7884764
  57.8538840  40.0109475  25.9666245  66.7700745  32.3344733  32.8484219
  67.0502499  31.6667922  33.4744645  67.5551352  32.5273829  32.3358882
  64.5734213  51.5103727  24.4109245  64.0008180  52.1293914  23.9579717
  65.1467007  52.0603089  24.9449167  70.6409603  40.7562367  36.5955794
  71.5927026  40.8560465  36.6168018  70.4713054  39.9640636  37.1053878
  68.6623983  37.8417950  36.7815195  68.0673915  38.1222963  36.0861683
  68.3773679  38.3311851  37.5531936  67.7931473  51.7940877  25.5417827
  68.7262146  51.7286439  25.7450703  67.7054686  52.6297144  25.0832360
  70.4219490  51.1106747  22.5021775  70.3433121  50.7766611  23.3957533
  71.2429157  51.6028515  22.5013247  73.1197681  43.9768487  35.7098093
  73.0874001  43.0384488  35.8957777  73.7298305  44.0552523  34.9763918
  64.9581012  42.8464540  21.7525297  65.9040117  42.7170748  21.8213715
  64.5795257  42.1079202  22.2294726  73.2692169  40.7679530  35.7556377
  72.7531218  39.9837987  35.5686305  74.1532118  40.4398247  35.9202896
  70.9302896  34.5120546  31.7152189  70.7327718  34.2035634  32.5995521
  71.5402602  35.2382185  31.8450119  78.9374231  45.0384494  34.8504130
  79.6677619  44.7769782  35.4111833  78.3281176  44.3013216  34.8906198
  77.0189528  43.1792356  35.4478581  76.2922692  43.0448321  34.8395073
  76.6036815  43.4869185  36.2535299  63.1423929  40.7714516  21.6880183
  62.2355384  40.4747629  21.7642896  63.4199910  40.4744334  20.8214469
  64.7585995  35.3151406  27.8424424  63.9486723  34.9698491  28.2179670
  65.4470412  35.0058950  28.4312035  66.6876543  34.3929453  29.4648721
  67.2407582  34.8124906  30.1238744  66.9246629  33.4665201  29.5071677
  61.9122714  37.6301451  21.8292162  62.7741878  37.9556350  22.0887979
  62.0973058  36.8432947  21.3165228  70.0655350  36.5029978  28.9727385
  69.4854019  37.1614782  28.5905437  69.7991283  35.6807322  28.5614802
  68.5158916  35.9035036  31.1748705  69.0158695  36.0151570  30.3663024
  69.1594524  35.5996088  31.8149514  68.8480228  38.6630068  28.0283733
  67.9606083  38.9479719  27.8103928  69.2634217  38.5023832  27.1811010
  72.1994764  38.6876589  31.7438072  72.9755154  39.1773042  32.0162689
  71.4742898  39.1134643  32.2009942  74.6367323  39.4004208  32.8012013
  75.2311814  39.1599944  32.0905321  74.7093907  38.6811339  33.4285549
  67.9923442  48.4274743  22.1231753  68.6959292  48.6324745  22.7389409
  67.2686090  48.9951505  22.3880837  68.8221252  44.1784604  28.2434023
  68.7656453  44.6353156  27.4041656  69.3749594  43.4175289  28.0656866
  72.6326058  39.9674336  29.0684143  72.3762992  39.5670972  29.8992350
  72.0078926  40.6818130  28.9434282  76.9438396  42.7070409  31.5755434
  76.3837954  42.7763599  32.3486996  76.3381899  42.5311394  30.8554930
  69.9010139  48.8657272  24.1730213  70.7355743  48.4338471  23.9907688
  69.7394482  48.6939286  25.1007108  69.5556031  45.3689385  25.5386552
  69.5004835  45.2033657  24.5974997  68.9302086  46.0765418  25.6948742
  62.8652157  34.8697494  25.1171871  62.8530826  35.8139334  25.2740142
  63.7575579  34.6867640  24.8231332  66.6804276  31.4640271  29.3717808
  65.9136672  30.9098758  29.5174490  67.0914981  31.5362140  30.2331959
  78.5294414  59.3826923  34.2685390  79.1672824  59.2633671  33.5648730
  78.4115257  60.3307767  34.3273342  75.3384120  59.3354351  34.2046915
  75.0002632  59.2195416  33.3167449  76.2073889  58.9345516  34.1847921
  71.1970936  61.1889828  30.1943805  70.6335801  61.0979765  29.4260093
  71.0823331  60.3689732  30.6746298  75.8203903  60.4889203  40.1633120
  75.8092544  60.0942001  39.2913624  75.9824543  59.7555276  40.7566892
  68.7435368  62.6841019  33.0328026  69.5356660  62.3431844  32.6174325
  68.9832018  62.7935994  33.9530179  76.7770495  64.8560795  25.5058270
  76.1258475  65.4414876  25.1192284  77.5714858  65.3866990  25.5653308
  70.7026122  61.9449933  25.9045405  71.4756998  61.3978920  25.7658281
  71.0551521  62.8094182  26.1159866  73.4667371  60.6503163  35.7013664
  74.0630944  60.4259186  34.9870627  73.5242343  59.9087909  36.3039112
  73.0392400  58.1042599  23.5363855  73.2917920  57.5824120  22.7747318
  72.1016959  57.9408744  23.6390538  78.0835683  57.1078377  31.3438598
  78.8698772  56.6897800  30.9929015  78.3474387  58.0124469  31.5120246
  78.2545760  62.5451227  26.0427255  77.6191593  62.6185854  26.7548159
  77.9243166  63.1344826  25.3646334  83.4844110  57.0453610  32.2471576
  84.2169282  56.4752827  32.4809406  82.7283465  56.6575211  32.6878082
  72.7588689  60.0070705  25.7388230  72.6424947  59.3315608  26.4069314
  72.8690948  59.5203079  24.9220383  75.1020229  59.4680852  29.4434919
  74.7378437  58.9411473  30.1547840  75.9587345  59.0779321  29.2701404
  81.0069530  50.7575184  36.7066185  80.6752855  51.6270595  36.4827400
  80.4115143  50.4411468  37.3860215  74.7425716  54.4970751  24.4396267
  74.9100119  55.3650988  24.8066738  74.5522885  54.6598033  23.5157557
  77.5001050  62.9587730  36.1062098  77.2001773  63.8612769  35.9977905
  77.1552109  62.6919914  36.9583251  70.9513531  59.4101527  32.1398802
  70.0264028  59.2777741  32.3476494  71.1997944  60.1895746  32.6368745
  80.8998193  55.4770271  33.7859535  79.9915071  55.4085679  33.4918296
  80.8485789  55.9542215  34.6141361  74.7214937  56.9528409  25.4242934
  74.6014563  57.3985460  26.2628414  74.0267526  57.3013727  24.8656472
  68.3122342  59.0534801  32.9742591  68.4414723  59.3069280  33.8882003
  67.6319793  59.6462509  32.6547246  74.9739059  56.8959916  41.7294432
  74.1972393  57.4553836  41.7197297  75.6129622  57.3816699  42.2509302
  82.7659840  53.6786709  35.5637409  82.1234220  53.9719242  34.9177204
  82.2614768  53.5639629  36.3690606  80.4200003  57.4249882  26.2523268
  81.3317860  57.6577269  26.0770966  79.9109651  58.0086926  25.6898347
  78.7040771  61.8474510  39.8884561  79.1124127  61.4056920  39.1439193
  77.9818033  61.2727137  40.1418754  75.0571841  56.7847117  37.2618118
  75.9033036  57.2086530  37.4052767  74.9970479  56.1280741  37.9556681
  79.0269586  62.4075701  33.6436850  78.3978448  62.5721415  32.9412918
  78.6395248  62.8217310  34.4147814  82.9058818  63.3430138  30.9981213
  82.2209856  63.7229040  30.4478247  82.9902667  63.9525465  31.7313161
  78.2071287  54.4451485  38.9199291  77.9632218  55.1993546  38.3833567
  78.4831217  54.8236833  39.7546538  80.1609749  60.9890097  37.5976557
  80.3726645  61.6321857  36.9210938  80.1139498  60.1552414  37.1298487
  77.7635978  53.6007918  34.5013129  76.9020457  53.8989172  34.7929867
  77.7898413  53.8178317  33.5694162  74.5797548  62.1450109  30.9086935
  75.0435893  62.4237812  30.1191557  74.3154346  61.2433553  30.7260025
  71.4721629  61.6921590  33.8466698  72.0422986  62.1208859  33.2084183
  72.0629741  61.4104175  34.5450884  73.5166434  58.2673261  27.7176500
  74.2190477  58.7194305  28.1850426  73.1847062  57.6257080  28.3456393
  67.2591768  56.5256814  33.0193633  66.4690822  56.7814342  32.5433744
  67.7503015  57.3405152  33.1245674  81.2755577  63.8662053  35.7698914
  82.0973021  63.4642240  35.4881596  81.2717980  63.7630287  36.7215030
  69.2106513  56.8901393  29.9777110  68.4137676  57.0020087  30.4960606
  68.9832105  57.2288045  29.1118001  75.0412181  63.4146096  37.9259625
  75.1056613  63.8766503  38.7617797  74.3323105  62.7843461  38.0541935
  65.5429471  56.7787304  35.4508624  65.7937509  57.6634314  35.7166200
  66.0789019  56.5991906  34.6783716  89.3661570  60.2100801  32.1183886
  88.6125279  59.6408199  31.9627890  89.5009111  60.1763466  33.0654520
  74.7560198  65.0814204  27.7938605  74.6205873  65.9265739  28.2223453
  75.2970011  65.2833481  27.0304539  71.2427538  51.1605783  44.4552960
  70.8494484  50.6071982  45.1300605  72.0593678  51.4716362  44.8459478
  68.2089596  62.5989642  28.3666530  68.7214116  63.3932892  28.5172095
  68.8612309  61.9015932  28.3000132  70.0184480  65.7155398  30.4489283
  70.1951109  66.6373363  30.2610267  70.8141314  65.4013817  30.8783663
  74.1595499  52.5763663  42.0473217  74.9005212  53.1770816  41.9677679
  74.3913422  51.8341300  41.4891259  78.4809913  65.9840570  39.9520349
  78.4628388  66.8049451  39.4600618  79.4029833  65.8594645  40.1770490
  78.1052662  48.6044766  36.3237499  77.7616931  49.4946407  36.2476609
  78.4731624  48.4146423  35.4607084  66.1738512  60.9278296  29.1426101
  67.0113734  61.3375304  28.9259808  66.3516780  59.9877738  29.1126295
  78.0702945  58.5953377  24.8309934  77.5549568  59.3657981  25.0698321
  77.7980253  57.9218513  25.4542995  75.6550056  53.4403077  29.8895172
  74.7991652  53.0509928  29.7100811  76.0677007  53.5195038  29.0294958
  77.1849202  50.9749421  34.2886732  76.6813998  50.9379556  33.4754537
  77.4779809  51.8842163  34.3483389  73.4292088  51.0588150  33.2952914
  74.2945085  50.8630959  32.9358803  73.4969597  50.8298502  34.2222270
  83.0437219  61.3485731  26.7663107  82.2666662  61.0096891  26.3218269
  83.7228700  61.3538354  26.0918072  77.8589248  56.4680469  26.6569715
  77.5539383  56.7826618  27.5079858  78.8119690  56.5461889  26.6997048
  76.3035680  62.6270692  28.3062669  75.7757041  61.8923452  27.9935906
  75.8023182  63.4045368  28.0602637  81.2828526  60.8219713  33.4229715
  80.6252200  61.5118974  33.5109844  82.0868925  61.2116144  33.7663702
  71.0354407  53.2890358  30.6669280  71.6098159  53.0665540  29.9342473
  71.6225390  53.3579053  31.4197882  80.0933984  59.1764085  31.4733657
  80.6065866  59.8094077  31.9755367  80.7435208  58.5765281  31.1077017
  71.3623994  55.3194819  24.6865166  70.5261307  55.6569506  25.0074440
  71.2228764  55.1843799  23.7492303  73.3377075  50.1631607  29.3944350
  72.6841487  49.8480624  28.7700965  73.2957549  49.5407348  30.1204173
  74.4488280  60.4450902  21.3097642  73.5415342  60.2140156  21.5088791
  74.9459312  59.6488522  21.4971623  77.3556359  69.1548409  24.2294328
  76.6818057  69.4580106  24.8379286  77.7422181  69.9577490  23.8799785
  76.5714815  56.6513541  33.7191997  75.6537377  56.8728488  33.5613686
  76.9874959  56.7259851  32.8603705  77.3549863  58.0504956  28.8494678
  78.1021682  58.5626354  28.5401800  77.6241453  57.7289009  29.7099071
  75.6276513  60.5463497  25.8321632  74.7187733  60.2622530  25.9294102
  75.6571597  60.9662576  24.9724939  80.8595781  64.1570087  29.6012800
  80.4058108  63.3160997  29.6577990  80.2289747  64.7931485  29.9387580
  79.8028700  55.0862073  30.8313467  79.0651457  54.5739459  31.1623710
  80.0555474  54.6462454  30.0196744  79.3028720  65.9946583  30.5362618
  79.5951694  66.5551640  29.8174983  79.8127340  66.2875144  31.2915777
  79.9040328  47.8638325  31.4255236  80.2099204  47.0035688  31.1381151
  80.6292932  48.4555945  31.2254230  66.1964684  58.2669011  29.8136834
  65.9989083  57.6738372  29.0887901  65.6411348  57.9621221  30.5312773
  74.1761407  58.1592118  31.9331427  74.2310017  57.2065954  31.8573904
  73.3652609  58.3151557  32.4172726  75.3252601  62.0872241  23.1709711
  74.8872031  61.3708100  22.7115348  76.0663042  62.3148356  22.6094802
  72.1153767  56.7769178  29.6921806  71.3021633  57.0763348  30.0986998
  72.6112761  56.3824866  30.4096288  74.2662345  66.7726934  31.6256071
  74.2238524  66.9987781  30.6964603  75.1825044  66.5390309  31.7741872
  77.7127979  57.2411002  38.5236700  78.0677367  57.4682475  39.3831166
  78.3600110  57.5729379  37.9013955  83.4425716  60.3629438  29.2286029
  83.3043614  60.5531034  28.3007218  83.0861935  61.1248821  29.6854080
  71.6067842  54.3487533  35.3083041  72.2467221  54.2076292  34.6106004
  70.7745373  54.0622046  34.9321643  83.4695095  62.4305965  34.2397301
  83.9031602  62.3381254  35.0880355  84.1826676  62.4063465  33.6017317
  72.3828146  63.6489963  31.4218034  73.1768744  63.1540284  31.2200609
  71.6719838  63.1207827  31.0585739  77.2022990  66.0308059  35.7730401
  77.2560013  66.5998995  36.5408117  76.3337772  66.2009944  35.4084438
  68.6910909  57.7933045  27.4977786  67.7608497  57.7317501  27.7147748
  68.7868381  57.2708998  26.7014428  68.6096458  54.3187858  30.0856028
  68.8703276  55.2333191  29.9765188  69.4313631  53.8512301  30.2352641
  84.3310645  62.4729666  36.7730186  84.5246535  63.3775476  37.0189461
  84.2311263  62.0137085  37.6068771  75.9846956  52.3587556  39.2720513
  75.3374871  53.0577506  39.1784990  76.7547971  52.7923700  39.6396762
  79.3925754  62.6236408  42.3471067  79.2411260  62.3946960  41.4301150
  79.3830433  63.5807010  42.3602412  76.1611090  60.1968321  37.3317333
  77.0903150  60.3479481  37.1586300  75.7402120  60.2852342  36.4765980
  74.9599422  64.2218985  35.1015871  74.8210508  63.8537770  35.9741809
  74.1714018  64.7366625  34.9299829  75.5547574  69.3228082  26.4441407
  75.7299330  68.8516125  27.2587030  74.8680362  69.9493848  26.6722668
  76.5104637  63.6000588  32.4904709  76.1754470  63.5601358  33.3862358
  76.0108583  62.9345304  32.0175119  79.4463829  60.9456622  22.7641768
  78.8292999  60.2203451  22.6674821  78.9780317  61.7065983  22.4208842
  73.1131182  58.7188177  37.5040969  73.8230800  58.0781370  37.4627588
  73.0700490  58.9701072  38.4267150  81.1017960  65.6555531  40.4247549
  81.0430506  64.9714751  39.7578132  81.5037479  66.3974521  39.9728175
  71.2362375  55.1642047  21.8863072  70.3591841  55.0430848  21.5225319
  71.7120128  54.3728125  21.6341961  81.1035368  63.6195115  38.6561528
  80.2162146  63.2821037  38.7787927  81.6733919  62.8878146  38.8930294
  62.7564515  59.9519207  31.9804580  63.4435555  59.6380937  31.3925595
  62.6012643  60.8560571  31.7071831  74.6336521  68.2796567  35.6222771
  74.5606692  69.0851539  36.1342076  74.1913914  68.4788533  34.7970793
  74.4226301  67.5168337  29.1325593  73.6393823  68.0590017  29.2263817
  75.1219046  68.0342317  29.5319834  77.7322951  53.3262967  31.7759798
  78.2291650  52.5732929  31.4560869  76.9609932  53.3627283  31.2103008
  85.5852708  59.0303332  33.4178090  85.5742584  59.9128048  33.0472023
  84.7170088  58.6774883  33.2232627  77.0935205  68.1783401  37.7780930
  77.8063177  68.8130866  37.7056832  76.6025233  68.2747267  36.9620932
  78.8152731  62.0834654  29.3498222  77.8809010  62.2036116  29.1802926
  78.9929400  61.1807121  29.0858232  74.3157919  55.4680350  31.5031483
  73.9455707  54.9151390  32.1912389  74.8117012  54.8638483  30.9506483
  82.2025283  57.9251973  29.8848256  82.6685735  58.7579965  29.8108559
  82.6532783  57.4596955  30.5893514  80.2701514  64.2695794  26.8834408
  80.5461358  64.1552389  27.7928282  79.4006013  63.8713279  26.8446581
  80.1741946  50.2932560  33.9239157  79.2605025  50.5236787  34.0921364
  80.6035047  50.3771004  34.7753190  79.9448404  58.4822452  36.4239051
  79.2919854  58.7298360  35.7691504  80.3228784  57.6686590  36.0901529
  76.9055578  68.5182145  30.5267222  77.0877972  67.7003801  30.9894974
  77.7288564  68.7349837  30.0892112  77.2397743  67.4450330  27.7882270
  77.7685510  66.9342785  27.1752432  77.5025963  67.1292861  28.6527803
  62.3332491  58.0319800  34.2522047  62.3716590  57.4983391  35.0459165
  61.8272784  57.5055005  33.6333024  74.7358760  70.5309191  37.1462704
  75.2877068  70.6940812  37.9111790  75.0764953  71.1213628  36.4742729
  65.9641068  56.7583902  27.3275978  66.2594510  55.8494580  27.2743032
  65.0629104  56.7371641  27.0056980  77.8727147  68.4791166  34.1326386
  77.7478287  67.6780906  33.6237332  78.5306238  68.9737359  33.6440356
  69.4935315  54.8339899  33.3103527  68.7721901  55.4475866  33.1711000
  70.2828571  55.3697663  33.2320173  79.9362056  66.2800186  35.7605937
  78.9892391  66.1605537  35.6884263  80.2844829  65.3922684  35.8432198
  72.2961629  52.1694325  39.5844178  72.8196031  52.4156622  40.3470488
  72.0773962  53.0014360  39.1647316  67.6928910  54.4398000  27.4515303
  67.3641616  53.5595379  27.2690409  68.0468281  54.3845668  28.3391693
  76.9408489  66.0752902  31.9610289  76.7933451  65.1469610  32.1417859
  77.7661982  66.0972993  31.4767364  70.8070733  54.7270969  27.8190781
  71.1466806  55.2556891  27.0969389  71.2542854  55.0651376  28.5949347
  80.5442611  66.8981461  33.0475162  81.4689158  66.6924322  32.9099613
  80.3757914  66.6497862  33.9564503  73.5014174  53.1108020  37.2693849
  73.1610994  52.3115833  37.6714529  72.7953180  53.4109731  36.6970682
  74.1530646  50.1957333  35.7221172  74.9756715  49.7217811  35.6000062
  74.3968709  50.9747816  36.2219858  72.7938880  53.2245591  26.0184074
  73.5147243  53.6026844  25.5147791  72.1704184  53.9434468  26.1219052
  76.9370003  53.9290740  26.9542406  77.1533618  54.8115378  26.6531234
  76.4564070  53.5376953  26.2248048  71.6769225  56.8876453  33.5313151
  71.5313805  57.2016756  34.4237432  71.1994428  57.5061354  32.9784049
  73.5365607  53.8779001  33.5794040  73.5227176  52.9820095  33.2426338
  74.2538036  53.8849665  34.2132326  75.3891738  54.3116341  35.6247168
  75.1309516  55.2333412  35.6231498  74.8576779  53.9146776  36.3147632
  80.3337927  67.4167129  28.4037253  80.5074804  66.8513551  27.6511105
  80.8266818  68.2168023  28.2216743  72.9402503  52.7593382  28.8481610
  73.0618415  51.8310028  29.0472498  72.6504546  52.7732068  27.9359926
  75.8093694  50.4448292  31.9848330  75.8315391  50.5087625  31.0300310
  76.2261753  49.6052801  32.1788836  86.1877318  60.1803552  30.0227553
  86.6308464  59.4310877  29.6246676  85.3103828  60.1713688  29.6401285
  81.3213099  66.7333893  25.5034151  82.0164004  67.3540586  25.7221466
  81.6636250  65.8829244  25.7786529  83.2204523  64.1833599  27.0321482
  83.7455847  64.5220871  26.3070802  83.1326875  63.2480614  26.8484617
  74.9045183  70.2505582  31.3916735  74.4650174  69.7581960  32.0849592
  75.6553300  69.7078549  31.1508810  67.3837522  66.4417123  31.3941363
  68.2095542  66.1420895  31.0140007  67.0331574  65.6724745  31.8431152
  72.3519055  65.7943591  33.4639037  71.7299065  65.1314296  33.1641265
  73.0223922  65.8204723  32.7812685  65.5846127  64.3603449  32.3530297
  64.7478036  63.9325623  32.1714298  65.5569773  64.5535892  33.2901088
  72.4243583  54.2725379  43.0571543  72.4731738  55.1487502  42.6749313
  72.9666097  53.7302772  42.4843186  82.9098429  64.8166502  42.3372680
  82.1193972  64.7990641  41.7977179  82.6731783  65.3554796  43.0921717
  83.0296304  61.6658969  39.6505409  83.0794309  61.5008976  40.5920931
  82.9210227  60.7986228  39.2603289  71.9132562  64.3447514  26.9397497
  72.0620683  65.0282979  26.2864170  72.7199006  64.3252604  27.4546953
  80.3200066  57.6489897  40.9664715  81.2209929  57.5096361  40.6748713
  80.3948041  57.8144351  41.9062893  74.6542871  55.0256751  39.8117902
  73.7846181  55.3190317  39.5400490  74.8902352  55.6097196  40.5325165
  84.5314500  64.0855910  39.8947430  84.2399309  64.4485891  40.7310891
  83.9186632  63.3722918  39.7160762  85.7310183  61.6508790  32.4150000
  86.5657074  62.0898594  32.5787561  85.8669312  61.1747443  31.5958246
  82.7801689  59.2088525  38.3627488  83.2555810  59.4016171  37.5546339
  81.8567254  59.2647710  38.1170872  69.6685195  60.3712692  27.9458566
  69.4231237  59.4675022  28.1438776  69.8381110  60.3729842  27.0038044
  77.3581905  51.2436368  37.3283322  77.8763849  51.9797395  37.0029811
  77.0037038  51.5500362  38.1630081  68.9380843  56.1041049  25.4444728
  68.2450088  56.1785404  24.7884764  68.6932595  55.3401393  25.9666245
  77.6094499  47.6636651  32.8484219  77.8896253  46.9959840  33.4744645
  78.3945106  47.8565746  32.3358882  75.4127968  66.8395645  24.4109245
  74.8401935  67.4585832  23.9579717  75.9860762  67.3895006  24.9449167
  81.4803358  56.0854285  36.5955794  82.4320781  56.1852382  36.6168018
  81.3106808  55.2932553  37.1053878  79.5017737  53.1709868  36.7815195
  78.9067669  53.4514881  36.0861683  79.2167434  53.6603769  37.5531936
  78.6325228  67.1232795  25.5417827  79.5655901  67.0578356  25.7450703
  78.5448440  67.9589062  25.0832360  81.2613244  66.4398665  22.5021775
  81.1826876  66.1058529  23.3957533  82.0822911  66.9320433  22.5013247
  83.9591436  59.3060404  35.7098093  83.9267756  58.3676405  35.8957777
  84.5692059  59.3844441  34.9763918  75.7974766  58.1756457  21.7525297
  76.7433871  58.0462666  21.8213715  75.4189011  57.4371119  22.2294726
  84.1085924  56.0971448  35.7556377  83.5924973  55.3129905  35.5686305
  84.9925873  55.7690164  35.9202896  81.7696651  49.8412463  31.7152189
  81.5721472  49.5327552  32.5995521  82.3796356  50.5674102  31.8450119
  89.7767985  60.3676411  34.8504130  90.5071374  60.1061699  35.4111833
  89.1674931  59.6305133  34.8906198  87.8583282  58.5084274  35.4478581
  87.1316446  58.3740239  34.8395073  87.4430569  58.8161102  36.2535299
  73.9817684  56.1006434  21.6880183  73.0749139  55.8039547  21.7642896
  74.2593665  55.8036252  20.8214469  64.8995624  57.4212797  32.1379229
  64.5798408  56.5678105  31.8453603  64.3529052  57.6361375  32.8937196
  68.6775531  60.1375238  35.8548736  68.8961541  61.0692346  35.8736769
  69.0901305  59.7783213  36.6403539  75.5979749  50.6443324  27.8424424
  74.7880478  50.2990408  28.2179670  76.2864166  50.3350867  28.4312035
  77.5270298  49.7221370  29.4648721  78.0801336  50.1416824  30.1238744
  77.7640384  48.7957118  29.5071677  72.7516468  52.9593369  21.8292162
  73.6135632  53.2848267  22.0887979  72.9366812  52.1724865  21.3165228
  64.7683884  61.0415709  34.1072351  64.0747355  60.6269662  33.5942305
  65.5156875  61.0836245  33.5105769  80.9049105  51.8321895  28.9727385
  80.3247774  52.4906700  28.5905437  80.6385037  51.0099240  28.5614802
  79.3552671  51.2326953  31.1748705  79.8552449  51.3443488  30.3663024
  79.9988279  50.9288006  31.8149514  66.6820626  60.9733962  31.9838365
  66.6591315  61.0721650  31.0320249  66.9921263  61.8199113  32.3055532
  69.3408004  63.0310118  36.0984980  70.2951258  62.9994060  36.0314911
  69.1420528  62.5700741  36.9135206  79.6873983  53.9921986  28.0283733
  78.7999838  54.2771636  27.8103928  80.1027972  53.8315749  27.1811010
  83.0388519  54.0168507  31.7438072  83.8148909  54.5064959  32.0162689
  82.3136653  54.4426561  32.2009942  85.4761077  54.7296126  32.8012013
  86.0705568  54.4891862  32.0905321  85.5487661  54.0103257  33.4285549
  78.8317196  63.7566661  22.1231753  79.5353046  63.9616663  22.7389409
  78.1079845  64.3243422  22.3880837  79.6615006  59.5076522  28.2434023
  79.6050208  59.9645073  27.4041656  80.2143349  58.7467206  28.0656866
  83.4719812  55.2966254  29.0684143  83.2156747  54.8962889  29.8992350
  82.8472680  56.0110048  28.9434282  87.7832150  58.0362327  31.5755434
  87.2231708  58.1055516  32.3486996  87.1775654  57.8603312  30.8554930
  80.7403894  64.1949190  24.1730213  81.5749497  63.7630388  23.9907688
  80.5788236  64.0231203  25.1007108  80.3949786  60.6981303  25.5386552
  80.3398589  60.5325574  24.5974997  79.7695841  61.4057336  25.6948742
  73.7045911  50.1989412  25.1171871  73.6924581  51.1431252  25.2740142
  74.5969333  50.0159557  24.8231332  73.6335475  68.8758302  33.2039627
  72.6831106  68.8760164  33.0904000  73.9367961  68.1291037  32.6875662
  77.5198031  46.7932189  29.3717808  76.7530426  46.2390675  29.5174490
  77.9308736  46.8654057  30.2331959  89.3688169  74.7118841  34.2685390
  90.0066579  74.5925588  33.5648730  89.2509011  75.6599685  34.3273342
  86.1777875  74.6646269  34.2046915  85.8396386  74.5487334  33.3167449
  87.0467643  74.2637434  34.1847921  82.0364691  76.5181745  30.1943805
  81.4729556  76.4271682  29.4260093  81.9217086  75.6981650  30.6746298
  86.6597658  75.8181121  40.1633120  86.6486299  75.4233919  39.2913624
  86.8218297  75.0847193  40.7566892  79.5829123  78.0132937  33.0328026
  80.3750414  77.6723762  32.6174325  79.8225773  78.1227912  33.9530179
  87.6164249  80.1852713  25.5058270  86.9652229  80.7706793  25.1192284
  88.4108612  80.7158908  25.5653308  81.5419876  77.2741850  25.9045405
  82.3150752  76.7270837  25.7658281  81.8945275  78.1386100  26.1159866
  83.3804919  78.6018232  39.1112304  83.0894785  79.5063863  38.9958970
  84.0161903  78.6434760  39.8256374  84.3061126  75.9795081  35.7013664
  84.9024698  75.7551103  34.9870627  84.3636097  75.2379826  36.3039112
  83.8786154  73.4334516  23.5363855  84.1311675  72.9116038  22.7747318
  82.9410713  73.2700662  23.6390538  88.9229437  72.4370295  31.3438598
  89.7092526  72.0189718  30.9929015  89.1868141  73.3416387  31.5120246
  89.0939514  77.8743145  26.0427255  88.4585347  77.9477772  26.7548159
  88.7636921  78.4636744  25.3646334  94.3237864  72.3745528  32.2471576
  95.0563036  71.8044745  32.4809406  93.5677220  71.9867128  32.6878082
  83.5982443  75.3362622  25.7388230  83.4818701  74.6607526  26.4069314
  83.7084703  74.8494996  24.9220383  85.9413984  74.7972769  29.4434919
  85.5772191  74.2703390  30.1547840  86.7981100  74.4071238  29.2701404
  91.8463285  66.0867102  36.7066185  91.5146609  66.9562513  36.4827400
  91.2508898  65.7703386  37.3860215  85.5819471  69.8262669  24.4396267
  85.7493873  70.6942906  24.8066738  85.3916640  69.9889951  23.5157557
  88.3394804  78.2879648  36.1062098  88.0395527  79.1904687  35.9977905
  87.9945864  78.0211831  36.9583251  81.7907286  74.7393445  32.1398802
  80.8657782  74.6069659  32.3476494  82.0391699  75.5187664  32.6368745
  91.7391948  70.8062188  33.7859535  90.8308825  70.7377597  33.4918296
  91.6879544  71.2834133  34.6141361  85.5608692  72.2820327  25.4242934
  85.4408317  72.7277377  26.2628414  84.8661280  72.6305644  24.8656472
  79.1516097  74.3826718  32.9742591  79.2808478  74.6361197  33.8882003
  78.4713548  74.9754426  32.6547246  83.3215584  85.0523968  29.0733065
  83.2439614  86.0031793  29.1521546  82.7177227  84.7069841  29.7307992
  85.8132814  72.2251834  41.7294432  85.0366148  72.7845754  41.7197297
  86.4523377  72.7108617  42.2509302  93.6053594  69.0078627  35.5637409
  92.9627975  69.3011160  34.9177204  93.1008523  68.8931547  36.3690606
  91.2593758  72.7541800  26.2523268  92.1711614  72.9869187  26.0770966
  90.7503405  73.3378844  25.6898347  84.0679186  75.0337287  41.2912399
  84.8093870  75.5722331  41.0147223  83.3616171  75.6603576  41.4483951
  89.5434526  77.1766428  39.8884561  89.9517882  76.7348838  39.1439193
  88.8211787  76.6019055  40.1418754  85.8965596  72.1139034  37.2618118
  86.7426791  72.5378448  37.4052767  85.8364233  71.4572659  37.9556681
  89.8663340  77.7367618  33.6436850  89.2372203  77.9013332  32.9412918
  89.4789002  78.1509228  34.4147814  93.7452572  78.6722056  30.9981213
  93.0603610  79.0520957  30.4478247  93.8296421  79.2817383  31.7313161
  89.0465041  69.7743403  38.9199291  88.8025973  70.5285463  38.3833567
  89.3224971  70.1528750  39.7546538  91.0003504  76.3182015  37.5976557
  91.2120399  76.9613775  36.9210938  90.9533252  75.4844332  37.1298487
  88.6029733  68.9299836  34.5013129  87.7414212  69.2281089  34.7929867
  88.6292167  69.1470235  33.5694162  85.4191302  77.4742026  30.9086935
  85.8829648  77.7529729  30.1191557  85.1548100  76.5725471  30.7260025
  82.3115383  77.0213508  33.8466698  82.8816740  77.4500776  33.2084183
  82.9023495  76.7396093  34.5450884  84.3560188  73.5965179  27.7176500
  85.0584232  74.0486222  28.1850426  84.0240817  72.9548998  28.3456393
  82.8040550  72.1876935  42.0927709  82.1739210  72.8693216  42.3263106
  82.6976638  72.0760017  41.1480848  78.0985522  71.8548731  33.0193633
  77.3084576  72.1106260  32.5433744  78.5896770  72.6697069  33.1245674
  92.1149332  79.1953971  35.7698914  92.9366775  78.7934158  35.4881596
  92.1111735  79.0922205  36.7215030  80.0500268  72.2193311  29.9777110
  79.2531431  72.3312005  30.4960606  79.8225860  72.5579963  29.1118001
  85.8805935  78.7438014  37.9259625  85.9450368  79.2058421  38.7617797
  85.1716859  78.1135379  38.0541935  76.3823225  72.1079222  35.4508624
  76.6331264  72.9926232  35.7166200  76.9182774  71.9283823  34.6783716
 100.2055325  75.5392719  32.1183886  99.4519033  74.9700117  31.9627890
 100.3402866  75.5055384  33.0654520  85.5953953  80.4106121  27.7938605
  85.4599628  81.2557657  28.2223453  86.1363765  80.6125399  27.0304539
  82.0821292  66.4897701  44.4552960  81.6888238  65.9363900  45.1300605
  82.8987433  66.8008280  44.8459478  79.0483350  77.9281559  28.3666530
  79.5607871  78.7224810  28.5172095  79.7006063  77.2307850  28.3000132
  80.8578235  81.0447316  30.4489283  81.0344863  81.9665280  30.2610267
  81.6535068  80.7305735  30.8783663  84.9989253  67.9055580  42.0473217
  85.7398967  68.5062733  41.9677679  85.2307176  67.1633218  41.4891259
  87.2222429  81.0329688  41.9238947  86.7786283  80.2466066  41.6059852
  87.8839643  81.2208838  41.2582838  81.9809550  82.5625489  36.4499626
  82.5316975  82.4342553  35.6776620  81.1421026  82.8620378  36.0994519
  89.3203667  81.3132488  39.9520349  89.3022143  82.1341369  39.4600618
  90.2423587  81.1886563  40.1770490  85.7776721  78.8276617  40.7943857
  86.3105058  78.0664905  40.5643165  85.2490803  78.5350269  41.5368011
  88.9446416  63.9336683  36.3237499  88.6010686  64.8238325  36.2476609
  89.3125379  63.7438341  35.4607084  77.0132267  76.2570214  29.1426101
  77.8507489  76.6667222  28.9259808  77.1910535  75.3169656  29.1126295
  88.9096699  73.9245294  24.8309934  88.3943323  74.6949899  25.0698321
  88.6374008  73.2510430  25.4542995  86.4943810  68.7694995  29.8895172
  85.6385406  68.3801845  29.7100811  86.9070762  68.8486956  29.0294958
  88.0242957  66.3041338  34.2886732  87.5207752  66.2671474  33.4754537
  88.3173564  67.2134081  34.3483389  84.2685843  66.3880068  33.2952914
  85.1338839  66.1922877  32.9358803  84.3363352  66.1590420  34.2222270
  93.8830973  76.6777649  26.7663107  93.1060416  76.3388808  26.3218269
  94.5622454  76.6830272  26.0918072  88.6983002  71.7972386  26.6569715
  88.3933138  72.1118536  27.5079858  89.6513444  71.8753806  26.6997048
  87.1429434  77.9562610  28.3062669  86.6150796  77.2215369  27.9935906
  86.6416937  78.7337286  28.0602637  92.1222280  76.1511630  33.4229715
  91.4645955  76.8410892  33.5109844  92.9262679  76.5408062  33.7663702
  81.8748162  68.6182276  30.6669280  82.4491914  68.3957457  29.9342473
  82.4619144  68.6870970  31.4197882  90.9327739  74.5056003  31.4733657
  91.4459621  75.1385995  31.9755367  91.5828963  73.9057198  31.1077017
  82.2017749  70.6486737  24.6865166  81.3655061  70.9861424  25.0074440
  82.0622518  70.5135717  23.7492303  84.1770829  65.4923525  29.3944350
  83.5235242  65.1772542  28.7700965  84.1351304  64.8699265  30.1204173
  85.2882034  75.7742820  21.3097642  84.3809096  75.5432073  21.5088791
  85.7853066  74.9780439  21.4971623  88.1950113  84.4840327  24.2294328
  87.5211812  84.7872024  24.8379286  88.5815935  85.2869408  23.8799785
  87.4108570  71.9805458  33.7191997  86.4931131  72.2020405  33.5613686
  87.8268713  72.0551769  32.8603705  88.1943618  73.3796874  28.8494678
  88.9415437  73.8918271  28.5401800  88.4635207  73.0580927  29.7099071
  86.4670268  75.8755415  25.8321632  85.5581487  75.5914448  25.9294102
  86.4965352  76.2954493  24.9724939  91.6989535  79.4862004  29.6012800
  91.2451862  78.6452914  29.6577990  91.0683502  80.1223403  29.9387580
  90.6422455  70.4153990  30.8313467  89.9045212  69.9031377  31.1623710
  90.8949228  69.9754372  30.0196744  90.1422474  81.3238501  30.5362618
  90.4345449  81.8843558  29.8174983  90.6521095  81.6167062  31.2915777
  90.7434082  63.1930242  31.4255236  91.0492959  62.3327606  31.1381151
  91.4686687  63.7847863  31.2254230  77.0358438  73.5960929  29.8136834
  76.8382838  73.0030290  29.0887901  76.4805102  73.2913139  30.5312773
  85.0155162  73.4884035  31.9331427  85.0703772  72.5357872  31.8573904
  84.2046364  73.6443475  32.4172726  86.1646356  77.4164159  23.1709711
  85.7265785  76.7000017  22.7115348  86.9056796  77.6440273  22.6094802
  82.9547522  72.1061095  29.6921806  82.1415387  72.4055266  30.0986998
  83.4506516  71.7116784  30.4096288  85.1056100  82.1018852  31.6256071
  85.0632278  82.3279698  30.6964603  86.0218798  81.8682227  31.7741872
  88.5521733  72.5702920  38.5236700  88.9071121  72.7974393  39.3831166
  89.1993865  72.9021296  37.9013955  94.2819470  75.6921356  29.2286029
  94.1437369  75.8822952  28.3007218  93.9255689  76.4540738  29.6854080
  82.4461596  69.6779451  35.3083041  83.0860976  69.5368210  34.6106004
  81.6139127  69.3913964  34.9321643  94.3088850  77.7597883  34.2397301
  94.7425357  77.6673172  35.0880355  95.0220431  77.7355383  33.6017317
  83.2221900  78.9781881  31.4218034  84.0162499  78.4832201  31.2200609
  82.5113593  78.4499744  31.0585739  88.0416745  81.3599977  35.7730401
  88.0953767  81.9290913  36.5408117  87.1731526  81.5301862  35.4084438
  79.5304664  73.1224963  27.4977786  78.6002252  73.0609418  27.7147748
  79.6262136  72.6000916  26.7014428  79.4490213  69.6479776  30.0856028
  79.7097030  70.5625109  29.9765188  80.2707385  69.1804218  30.2352641
  80.9215138  71.0617533  37.2554853  81.5938192  70.8534895  36.6067501
  80.0944925  70.8639619  36.8160085  95.1704399  77.8021583  36.7730186
  95.3640290  78.7067394  37.0189461  95.0705018  77.3429002  37.6068771
  86.8240710  67.6879474  39.2720513  86.1768625  68.3869423  39.1784990
  87.5941726  68.1215618  39.6396762  90.2319508  77.9528326  42.3471067
  90.0805015  77.7238878  41.4301150  90.2224188  78.9098927  42.3602412
  87.0004845  75.5260239  37.3317333  87.9296905  75.6771398  37.1586300
  86.5795875  75.6144259  36.4765980  85.7993176  79.5510903  35.1015871
  85.6604262  79.1829688  35.9741809  85.0107773  80.0658543  34.9299829
  86.3941328  84.6520000  26.4441407  86.5693084  84.1808043  27.2587030
  85.7074116  85.2785766  26.6722668  87.3498392  78.9292506  32.4904709
  87.0148224  78.8893276  33.3862358  86.8502337  78.2637222  32.0175119
  81.3242635  74.3360136  38.0157290  81.1862433  73.6040375  38.6168829
  82.2347559  74.2469036  37.7341477  90.2857583  76.2748540  22.7641768
  89.6686754  75.5495368  22.6674821  89.8174072  77.0357900  22.4208842
  83.9524936  74.0480095  37.5040969  84.6624555  73.4073287  37.4627588
  83.9094244  74.2992990  38.4267150  91.9411715  80.9847449  40.4247549
  91.8824261  80.3006669  39.7578132  92.3431233  81.7266439  39.9728175
  82.6653870  71.0345313  39.3236609  82.1291227  70.5836052  39.9758205
  82.0770579  71.1691222  38.5807073  80.9602414  87.8009362  33.2181267
  81.1999012  88.4327887  33.8960286  80.1171610  87.4497402  33.5046627
  82.0756129  70.4933964  21.8863072  81.1985595  70.3722765  21.5225319
  82.5513882  69.7020043  21.6341961  91.9429122  78.9487032  38.6561528
  91.0555901  78.6112954  38.7787927  92.5127673  78.2170064  38.8930294
  78.3992991  70.1701321  36.4089603  78.3151180  69.5626990  35.6740013
  77.5775698  70.6610339  36.4099100  85.4730275  83.6088485  35.6222771
  85.4000447  84.4143456  36.1342076  85.0307669  83.8080451  34.7970793
  85.2620055  82.8460255  29.1325593  84.4787577  83.3881935  29.2263817
  85.9612800  83.3634234  29.5319834  88.5716705  68.6554884  31.7759798
  89.0685405  67.9024847  31.4560869  87.8003687  68.6919201  31.2103008
  96.4246463  74.3595250  33.4178090  96.4136339  75.2419965  33.0472023
  95.5563842  74.0066801  33.2232627  87.9328959  83.5075319  37.7780930
  88.6456931  84.1422784  37.7056832  87.4418988  83.6039185  36.9620932
  89.6546486  77.4126572  29.3498222  88.7202765  77.5328034  29.1802926
  89.8323154  76.5099038  29.0858232  85.1551674  70.7972267  31.5031483
  84.7849461  70.2443308  32.1912389  85.6510766  70.1930401  30.9506483
  93.0419037  73.2543891  29.8848256  93.5079489  74.0871882  29.8108559
  93.4926538  72.7888872  30.5893514  82.9840873  81.2569762  38.5986501
  83.6850332  81.8906245  38.7515895  82.5135988  81.5984494  37.8382140
  91.1095268  79.5987712  26.8834408  91.3855112  79.4844307  27.7928282
  90.2399767  79.2005197  26.8446581  91.0135700  65.6224478  33.9239157
  90.0998780  65.8528705  34.0921364  91.4428801  65.7062922  34.7753190
  90.7842158  73.8114370  36.4239051  90.1313609  74.0590277  35.7691504
  91.1622538  72.9978508  36.0901529  87.7449332  83.8474063  30.5267222
  87.9271727  83.0295719  30.9894974  88.5682318  84.0641755  30.0892112
  88.0791498  82.7742248  27.7882270  88.6079264  82.2634703  27.1752432
  88.3419717  82.4584778  28.6527803  86.8329732  74.5534181  42.9105088
  86.1570369  74.4528310  43.5807464  87.6557365  74.3973395  43.3741086
  78.5808591  80.7906117  35.5317604  79.1662027  80.0449805  35.6645508
  78.3833429  81.1010074  36.4154267  81.4347246  83.8257365  30.5480046
  80.7657621  84.3103492  30.0644086  81.2960116  84.0726585  31.4623424
  85.5752514  85.8601108  37.1462704  86.1270822  86.0232730  37.9111790
  85.9158708  86.4505546  36.4742729  80.5517008  68.2076258  37.7484589
  80.6158334  69.0691089  37.3361987  80.4884128  67.5950260  37.0156948
  80.0269280  70.2799391  41.3957623  80.6541319  69.8976468  42.0095148
  79.1697199  70.0613593  41.7613316  90.4263389  80.6862366  43.0011359
  90.9703293  81.2992324  42.5066314  89.8450234  81.2441944  43.5178372
  76.8034823  72.0875820  27.3275978  77.0988264  71.1786498  27.2743032
  75.9022859  72.0663559  27.0056980  88.7120902  83.8083084  34.1326386
  88.5872041  83.0072824  33.6237332  89.3699993  84.3029277  33.6440356
  80.3329070  70.1631816  33.3103527  79.6115656  70.7767784  33.1711000
  81.1222326  70.6989581  33.2320173  90.7755810  81.6092104  35.7605937
  89.8286146  81.4897455  35.6884263  91.1238583  80.7214602  35.8432198
  83.1355383  67.4986243  39.5844178  83.6589785  67.7448539  40.3470488
  82.9167717  68.3306278  39.1647316  78.5322664  69.7689917  27.4515303
  78.2035371  68.8887296  27.2690409  78.8862035  69.7137586  28.3391693
  87.7802243  81.4044820  31.9610289  87.6327206  80.4761527  32.1417859
  88.6055737  81.4264911  31.4767364  81.6464488  70.0562887  27.8190781
  81.9860560  70.5848808  27.0969389  82.0936608  70.3943293  28.5949347
  91.3836365  82.2273379  33.0475162  92.3082913  82.0216240  32.9099613
  91.2151669  81.9789780  33.9564503  84.3407928  68.4399938  37.2693849
  84.0004749  67.6407751  37.6714529  83.6346935  68.7401649  36.6970682
  84.9924400  65.5249250  35.7221172  85.8150470  65.0509728  35.6000062
  85.2362464  66.3039734  36.2219858  83.6332635  68.5537509  26.0184074
  84.3540997  68.9318762  25.5147791  83.0097939  69.2726386  26.1219052
  87.7763758  69.2582658  26.9542406  87.9927372  70.1407296  26.6531234
  87.2957825  68.8668871  26.2248048  82.5162979  72.2168371  33.5313151
  82.3707560  72.5308674  34.4237432  82.0388183  72.8353271  32.9784049
  84.3759362  69.2070919  33.5794040  84.3620931  68.3112012  33.2426338
  85.0931790  69.2141583  34.2132326  86.2285493  69.6408259  35.6247168
  85.9703270  70.5625330  35.6231498  85.6970533  69.2438694  36.3147632
  91.1731681  82.7459046  28.4037253  91.3468559  82.1805469  27.6511105
  91.6660573  83.5459941  28.2216743  76.9908641  74.7573715  36.4700812
  76.4462109  75.5333523  36.6021086  77.8687991  75.1044520  36.3119933
  83.7796258  68.0885299  28.8481610  83.9012169  67.1601945  29.0472498
  83.4898300  68.1023985  27.9359926  86.6487448  65.7740210  31.9848330
  86.6709145  65.8379543  31.0300310  87.0655507  64.9344718  32.1788836
  97.0271073  75.5095469  30.0227553  97.4702219  74.7602794  29.6246676
  96.1497583  75.5005606  29.6401285  92.1606854  82.0625811  25.5034151
  92.8557759  82.6832503  25.7221466  92.5030004  81.2121162  25.7786529
  94.0598277  79.5125516  27.0321482  94.5849601  79.8512789  26.3070802
  93.9720630  78.5772532  26.8484617  85.7218326  83.4259590  39.1611359
  86.0305452  83.1808737  40.0334058  86.5193808  83.6306228  38.6730229
  85.7438938  85.5797499  31.3916735  85.3043928  85.0873878  32.0849592
  86.4947055  85.0370467  31.1508810  78.2231277  81.7709040  31.3941363
  79.0489297  81.4712812  31.0140007  77.8725329  81.0016663  31.8431152
  83.1912810  81.1235509  33.4639037  82.5692819  80.4606214  33.1641265
  83.8617677  81.1496640  32.7812685  76.4239882  79.6895367  32.3530297
  75.5871790  79.2617541  32.1714298  76.3963527  79.8827810  33.2901088
  83.2637337  69.6017297  43.0571543  83.3125493  70.4779419  42.6749313
  83.8059852  69.0594690  42.4843186  93.7492183  80.1458420  42.3372680
  92.9587727  80.1282559  41.7977179  93.5125538  80.6846714  43.0921717
  93.8690058  76.9950886  39.6505409  93.9188063  76.8300894  40.5920931
  93.7603981  76.1278145  39.2603289  82.7526317  79.6739432  26.9397497
  82.9014437  80.3574896  26.2864170  83.5592760  79.6544522  27.4546953
  91.1593821  72.9781814  40.9664715  92.0603683  72.8388279  40.6748713
  91.2341795  73.1436269  41.9062893  85.4936626  70.3548669  39.8117902
  84.6239935  70.6482235  39.5400490  85.7296106  70.9389114  40.5325165
  95.3708255  79.4147828  39.8947430  95.0793063  79.7777808  40.7310891
  94.7580386  78.7014836  39.7160762  96.5703937  76.9800708  32.4150000
  97.4050829  77.4190512  32.5787561  96.7063066  76.5039361  31.5958246
  93.6195443  74.5380442  38.3627488  94.0949565  74.7308089  37.5546339
  92.6961009  74.5939628  38.1170872  80.5078950  75.7004610  27.9458566
  80.2624992  74.7966940  28.1438776  80.6774864  75.7021760  27.0038044
  88.1975660  66.5728286  37.3283322  88.7157604  67.3089313  37.0029811
  87.8430792  66.8792279  38.1630081  79.7774597  71.4332967  25.4444728
  79.0843842  71.5077322  24.7884764  79.5326349  70.6693311  25.9666245
  88.4488254  62.9928568  32.8484219  88.7290008  62.3251758  33.4744645
  89.2338861  63.1857664  32.3358882  86.2521722  82.1687562  24.4109245
  85.6795689  82.7877749  23.9579717  86.8254516  82.7186924  24.9449167
  92.3197112  71.4146202  36.5955794  93.2714535  71.5144300  36.6168018
  92.1500563  70.6224471  37.1053878  90.3411492  68.5001786  36.7815195
  89.7461424  68.7806798  36.0861683  90.0561188  68.9895687  37.5531936
  89.4718982  82.4524712  25.5417827  90.4049655  82.3870274  25.7450703
  89.3842195  83.2880979  25.0832360  92.1006999  81.7690583  22.5021775
  92.0220630  81.4350446  23.3957533  92.9216666  82.2612351  22.5013247
  94.7985190  74.6352322  35.7098093  94.7661510  73.6968323  35.8957777
  95.4085814  74.7136359  34.9763918  86.6368521  73.5048375  21.7525297
  87.5827626  73.3754583  21.8213715  86.2582766  72.7663037  22.2294726
  94.9479678  71.4263366  35.7556377  94.4318727  70.6421822  35.5686305
  95.8319627  71.0982082  35.9202896  92.6090405  65.1704381  31.7152189
  92.4115227  64.8619469  32.5995521  93.2190111  65.8966020  31.8450119
 100.6161740  75.6968329  34.8504130 101.3465128  75.4353617  35.4111833
 100.0068685  74.9597051  34.8906198  98.6977037  73.8376192  35.4478581
  97.9710201  73.7032156  34.8395073  98.2824324  74.1453020  36.2535299
  86.5207213  77.5566121  43.2125954  87.4410223  77.7344720  43.4066001
  86.4856796  76.6122167  43.0605654  84.8211438  71.4298351  21.6880183
  83.9142893  71.1331464  21.7642896  85.0987419  71.1328170  20.8214469
  75.7389378  72.7504715  32.1379229  75.4192163  71.8970023  31.8453603
  75.1922807  72.9653293  32.8937196  79.5169286  75.4667156  35.8548736
  79.7355296  76.3984264  35.8736769  79.9295060  75.1075130  36.6403539
  86.4373504  65.9735241  27.8424424  85.6274232  65.6282326  28.2179670
  87.1257921  65.6642785  28.4312035  88.3664052  65.0513288  29.4648721
  88.9195091  65.4708741  30.1238744  88.6034138  64.1249036  29.5071677
  84.3897151  71.0400362  45.2451484  84.2893878  71.9894719  45.1763576
  84.1718693  70.7118601  44.3727555  83.5910223  68.2885287  21.8292162
  84.4529387  68.6140185  22.0887979  83.7760567  67.5016783  21.3165228
  91.7442859  67.1613813  28.9727385  91.1641528  67.8198617  28.5905437
  91.4778792  66.3391158  28.5614802  90.1946425  66.5618871  31.1748705
  90.6946204  66.6735405  30.3663024  90.8382033  66.2579924  31.8149514
  84.2528421  74.4697500  44.0616546  83.7695503  75.2697861  44.2680435
  84.3389360  74.4805445  43.1083990  77.5214381  76.3025880  31.9838365
  77.4985069  76.4013567  31.0320249  77.8315017  77.1491031  32.3055532
  80.1801759  78.3602035  36.0984980  81.1345012  78.3285978  36.0314911
  79.9814282  77.8992659  36.9135206  80.7701141  76.9303151  38.6655778
  81.5894030  77.4247230  38.6890615  81.0437949  76.0135119  38.6373345
  90.5267737  69.3213904  28.0283733  89.6393592  69.6063554  27.8103928
  90.9421726  69.1607667  27.1811010  93.8782273  69.3460425  31.7438072
  94.6542663  69.8356877  32.0162689  93.1530407  69.7718479  32.2009942
  96.3154832  70.0588044  32.8012013  96.9099323  69.8183780  32.0905321
  96.3881416  69.3395174  33.4285549  78.5351988  83.9021655  33.1155178
  78.4006456  83.1422056  32.5493176  78.1184050  84.6262555  32.6483967
  89.6710951  79.0858578  22.1231753  90.3746801  79.2908581  22.7389409
  88.9473599  79.6535340  22.3880837  90.5008761  74.8368439  28.2434023
  90.4443962  75.2936991  27.4041656  91.0537103  74.0759124  28.0656866
  94.3113567  70.6258171  29.0684143  94.0550501  70.2254807  29.8992350
  93.6866435  71.3401965  28.9434282  98.6225905  73.3654245  31.5755434
  98.0625463  73.4347434  32.3486996  98.0169408  73.1895229  30.8554930
  81.6921113  84.7990972  33.3273620  81.5753498  85.7436404  33.2252311
  80.8713560  84.4964533  33.7159420  91.5797648  79.5241107  24.1730213
  92.4143252  79.0922306  23.9907688  91.4181991  79.3523121  25.1007108
  91.2343540  76.0273221  25.5386552  91.1792344  75.8617492  24.5974997
  90.6089595  76.7349254  25.6948742  76.0236055  71.2641285  39.3647975
  76.6694919  70.7540239  39.8535200  75.8153206  72.0009967  39.9391400
  88.5489447  78.3322133  44.8640115  89.4180607  78.5062785  44.5026750
  88.0696199  79.1516549  44.7415845  84.5439666  65.5281330  25.1171871
  84.5318335  66.4723170  25.2740142  85.4363088  65.3451475  24.8231332
  82.7175628  85.4519234  36.5429549  83.6202874  85.4842844  36.8596044
  82.4912998  84.5219685  36.5575885  84.4729230  84.2050220  33.2039627
  83.5224861  84.2052082  33.0904000  84.7761716  83.4582955  32.6875662
  88.3591785  62.1224106  29.3717808  87.5924181  61.5682593  29.5174490
  88.7702490  62.1945975  30.2331959  80.3633546  68.4108902  43.4622989
  81.2265008  68.0545707  43.6726313  79.7898957  68.0722797  44.1498393
 100.2081923  90.0410759  34.2685390 100.8460333  89.9217506  33.5648730
 100.0902766  90.9891602  34.3273342  97.0171629  89.9938187  34.2046915
  96.6790141  89.8779251  33.3167449  97.8861398  89.5929352  34.1847921
  92.8758445  91.8473663  30.1943805  92.3123310  91.7563600  29.4260093
  92.7610840  91.0273568  30.6746298  97.4991412  91.1473038  40.1633120
  97.4880053  90.7525837  39.2913624  97.6612052  90.4139111  40.7566892
  90.4222877  93.3424855  33.0328026  91.2144169  93.0015679  32.6174325
  90.6619527  93.4519830  33.9530179  98.4558004  95.5144631  25.5058270
  97.8045984  96.0998711  25.1192284  99.2502367  96.0450826  25.5653308
  92.3813631  92.6033768  25.9045405  93.1544507  92.0562755  25.7658281
  92.7339030  93.4678017  26.1159866  94.2198674  93.9310150  39.1112304
  93.9288539  94.8355781  38.9958970  94.8555658  93.9726678  39.8256374
  95.1454880  91.3086999  35.7013664  95.7418453  91.0843021  34.9870627
  95.2029852  90.5671744  36.3039112  94.7179909  88.7626434  23.5363855
  94.9705429  88.2407955  22.7747318  93.7804468  88.5992579  23.6390538
  99.7623192  87.7662212  31.3438598 100.5486281  87.3481636  30.9929015
 100.0261896  88.6708305  31.5120246  99.9333269  93.2035063  26.0427255
  99.2979102  93.2769689  26.7548159  99.6030675  93.7928662  25.3646334
 105.1631619  87.7037446  32.2471576 105.8956791  87.1336662  32.4809406
 104.4070974  87.3159046  32.6878082  94.4376197  90.6654540  25.7388230
  94.3212456  89.9899443  26.4069314  94.5478457  90.1786914  24.9220383
  96.7807738  90.1264687  29.4434919  96.4165946  89.5995308  30.1547840
  97.6374854  89.7363156  29.2701404 102.6857039  81.4159020  36.7066185
 102.3540364  82.2854431  36.4827400 102.0902652  81.0995304  37.3860215
  96.4213225  85.1554587  24.4396267  96.5887628  86.0234823  24.8066738
  96.2310394  85.3181868  23.5157557  99.1788559  93.6171566  36.1062098
  98.8789282  94.5196604  35.9977905  98.8339618  93.3503749  36.9583251
  92.6301040  90.0685363  32.1398802  91.7051537  89.9361577  32.3476494
  92.8785453  90.8479582  32.6368745 102.5785702  86.1354106  33.7859535
 101.6702580  86.0669514  33.4918296 102.5273298  86.6126051  34.6141361
  96.4002446  87.6112244  25.4242934  96.2802071  88.0569295  26.2628414
  95.7055035  87.9597562  24.8656472  89.9909851  89.7118636  32.9742591
  90.1202232  89.9653115  33.8882003  89.3107302  90.3046344  32.6547246
  94.1609338 100.3815886  29.0733065  94.0833368 101.3323711  29.1521546
  93.5570982 100.0361759  29.7307992  96.6526568  87.5543751  41.7294432
  95.8759902  88.1137672  41.7197297  97.2917131  88.0400534  42.2509302
 104.4447349  84.3370544  35.5637409 103.8021729  84.6303077  34.9177204
 103.9402277  84.2223465  36.3690606 102.0987512  88.0833717  26.2523268
 103.0105369  88.3161104  26.0770966 101.5897160  88.6670762  25.6898347
  94.9072940  90.3629205  41.2912399  95.6487625  90.9014249  41.0147223
  94.2009926  90.9895494  41.4483951 100.3828280  92.5058345  39.8884561
 100.7911636  92.0640756  39.1439193  99.6605542  91.9310973  40.1418754
  96.7359350  87.4430952  37.2618118  97.5820545  87.8670366  37.4052767
  96.6757988  86.7864576  37.9556681 100.7057095  93.0659536  33.6436850
 100.0765957  93.2305250  32.9412918 100.3182757  93.4801145  34.4147814
 104.5846327  94.0013974  30.9981213 103.8997365  94.3812875  30.4478247
 104.6690176  94.6109300  31.7313161  99.8858795  85.1035320  38.9199291
  99.6419727  85.8577381  38.3833567 100.1618726  85.4820668  39.7546538
 101.8397258  91.6473933  37.5976557 102.0514153  92.2905693  36.9210938
 101.7927006  90.8136249  37.1298487  99.4423487  84.2591753  34.5013129
  98.5807966  84.5573007  34.7929867  99.4685922  84.4762152  33.5694162
  96.2585057  92.8033944  30.9086935  96.7223402  93.0821647  30.1191557
  95.9941855  91.9017389  30.7260025  93.1509138  92.3505426  33.8466698
  93.7210495  92.7792694  33.2084183  93.7417250  92.0688010  34.5450884
  95.1953943  88.9257096  27.7176500  95.8977986  89.3778140  28.1850426
  94.8634571  88.2840915  28.3456393  93.6434304  87.5168853  42.0927709
  93.0132965  88.1985134  42.3263106  93.5370392  87.4051935  41.1480848
  88.9379277  87.1840649  33.0193633  88.1478331  87.4398178  32.5433744
  89.4290524  87.9988987  33.1245674 102.9543086  94.5245888  35.7698914
 103.7760530  94.1226075  35.4881596 102.9505489  94.4214122  36.7215030
  90.8894022  87.5485228  29.9777110  90.0925185  87.6603923  30.4960606
  90.6619614  87.8871880  29.1118001  96.7199690  94.0729931  37.9259625
  96.7844122  94.5350339  38.7617797  96.0110614  93.4427296  38.0541935
  87.2216980  87.4371139  35.4508624  87.4725018  88.3218149  35.7166200
  87.7576528  87.2575741  34.6783716 111.0449079  90.8684637  32.1183886
 110.2912788  90.2992035  31.9627890 111.1796620  90.8347301  33.0654520
  96.4347707  95.7398039  27.7938605  96.2993382  96.5849575  28.2223453
  96.9757520  95.9417317  27.0304539  92.9215047  81.8189619  44.4552960
  92.5281993  81.2655817  45.1300605  93.7381187  82.1300197  44.8459478
  89.8877105  93.2573477  28.3666530  90.4001625  94.0516727  28.5172095
  90.5399818  92.5599767  28.3000132  91.6971989  96.3739233  30.4489283
  91.8738618  97.2957198  30.2610267  92.4928823  96.0597653  30.8783663
  95.8383008  83.2347498  42.0473217  96.5792721  83.8354651  41.9677679
  96.0700931  82.4925136  41.4891259  90.9824346  88.4203865  40.3251447
  90.8677861  87.5189122  40.6258546  90.1268864  88.6667562  39.9736263
  98.0616184  96.3621605  41.9238947  97.6180038  95.5757984  41.6059852
  98.7233397  96.5500756  41.2582838  92.8203305  97.8917407  36.4499626
  93.3710730  97.7634470  35.6776620  91.9814781  98.1912296  36.0994519
 100.1597422  96.6424405  39.9520349 100.1415897  97.4633286  39.4600618
 101.0817342  96.5178481  40.1770490  96.6170476  94.1568535  40.7943857
  97.1498813  93.3956823  40.5643165  96.0884557  93.8642187  41.5368011
  99.7840171  79.2628601  36.3237499  99.4404440  80.1530243  36.2476609
 100.1519133  79.0730259  35.4607084  87.8526021  91.5862131  29.1426101
  88.6901243  91.9959140  28.9259808  88.0304289  90.6461573  29.1126295
  99.7490454  89.2537212  24.8309934  99.2337077  90.0241817  25.0698321
  99.4767762  88.5802348  25.4542995  97.3337565  84.0986913  29.8895172
  96.4779161  83.7093763  29.7100811  97.7464516  84.1778874  29.0294958
  98.8636711  81.6333256  34.2886732  98.3601507  81.5963391  33.4754537
  99.1567318  82.5425999  34.3483389  95.1079597  81.7171986  33.2952914
  95.9732594  81.5214794  32.9358803  95.1757106  81.4882338  34.2222270
 104.7224728  92.0069567  26.7663107 103.9454170  91.6680726  26.3218269
 105.4016209  92.0122190  26.0918072  99.5376757  87.1264304  26.6569715
  99.2326892  87.4410453  27.5079858 100.4907199  87.2045724  26.6997048
  97.9823189  93.2854527  28.3062669  97.4544550  92.5507287  27.9935906
  97.4810691  94.0629204  28.0602637 102.9616035  91.4803548  33.4229715
 102.3039709  92.1702809  33.5109844 103.7656434  91.8699980  33.7663702
  92.7141916  83.9474194  30.6669280  93.2885668  83.7249375  29.9342473
  93.3012899  84.0162888  31.4197882 101.7721493  89.8347921  31.4733657
 102.2853375  90.4677912  31.9755367 102.4222717  89.2349116  31.1077017
  93.0411503  85.9778655  24.6865166  92.2048816  86.3153341  25.0074440
  92.9016273  85.8427634  23.7492303  95.0164584  80.8215443  29.3944350
  94.3628996  80.5064460  28.7700965  94.9745058  80.1991183  30.1204173
  96.1275789  91.1034738  21.3097642  95.2202851  90.8723991  21.5088791
  96.6246821  90.3072357  21.4971623  98.2502324  87.3097376  33.7191997
  97.3324886  87.5312323  33.5613686  98.6662468  87.3843687  32.8603705
  99.0337372  88.7088792  28.8494678  99.7809191  89.2210189  28.5401800
  99.3028962  88.3872845  29.7099071  97.3064022  91.2047333  25.8321632
  96.3975241  90.9206365  25.9294102  97.3359106  91.6246411  24.9724939
 102.5383290  94.8153922  29.6012800 102.0845617  93.9744832  29.6577990
 101.9077256  95.4515320  29.9387580 101.4816209  85.7445908  30.8313467
 100.7438966  85.2323294  31.1623710 101.7342983  85.3046290  30.0196744
 100.9816229  96.6530419  30.5362618 101.2739203  97.2135476  29.8174983
 101.4914849  96.9458980  31.2915777 101.5827837  78.5222160  31.4255236
 101.8886713  77.6619523  31.1381151 102.3080441  79.1139780  31.2254230
  87.8752193  88.9252847  29.8136834  87.6776592  88.3322207  29.0887901
  87.3198857  88.6205057  30.5312773  95.8548916  88.8175953  31.9331427
  95.9097526  87.8649790  31.8573904  95.0440118  88.9735392  32.4172726
  97.0040110  92.7456076  23.1709711  96.5659540  92.0291935  22.7115348
  97.7450551  92.9732191  22.6094802  93.7941276  87.4353013  29.6921806
  92.9809142  87.7347183  30.0986998  94.2900270  87.0408702  30.4096288
  95.9449854  97.4310770  31.6256071  95.9026033  97.6571616  30.6964603
  96.8612553  97.1974144  31.7741872  99.3915488  87.8994837  38.5236700
  99.7464876  88.1266310  39.3831166 100.0387619  88.2313214  37.9013955
 105.1213225  91.0213273  29.2286029 104.9831123  91.2114869  28.3007218
 104.7649444  91.7832656  29.6854080  93.2855351  85.0071368  35.3083041
  93.9254730  84.8660127  34.6106004  92.4532881  84.7205882  34.9321643
 105.1482604  93.0889800  34.2397301 105.5819111  92.9965089  35.0880355
 105.8614185  93.0647301  33.6017317  94.0615655  94.3073799  31.4218034
  94.8556253  93.8124119  31.2200609  93.3507347  93.7791662  31.0585739
  98.8810499  96.6891894  35.7730401  98.9347522  97.2582831  36.5408117
  98.0125281  96.8593779  35.4084438  90.3698418  88.4516881  27.4977786
  89.4396006  88.3901336  27.7147748  90.4655890  87.9292833  26.7014428
  90.2883967  84.9771693  30.0856028  90.5490785  85.8917027  29.9765188
  91.1101140  84.5096136  30.2352641  91.7608893  86.3909451  37.2554853
  92.4331946  86.1826813  36.6067501  90.9338679  86.1931537  36.8160085
 106.0098154  93.1313501  36.7730186 106.2034044  94.0359311  37.0189461
 105.9098772  92.6720920  37.6068771  97.6634465  83.0171391  39.2720513
  97.0162380  83.7161341  39.1784990  98.4335480  83.4507535  39.6396762
 101.0713263  93.2820244  42.3471067 100.9198769  93.0530795  41.4301150
 101.0617942  94.2390845  42.3602412  97.8398599  90.8552156  37.3317333
  98.7690659  91.0063316  37.1586300  97.4189629  90.9436177  36.4765980
  96.6386931  94.8802821  35.1015871  96.4998017  94.5121605  35.9741809
  95.8501527  95.3950460  34.9299829  97.2335083  99.9811917  26.4441407
  97.4086839  99.5099960  27.2587030  96.5467871 100.6077683  26.6722668
  98.1892146  94.2584423  32.4904709  97.8541979  94.2185193  33.3862358
  97.6896092  93.5929139  32.0175119  92.1636390  89.6652054  38.0157290
  92.0256188  88.9332292  38.6168829  93.0741313  89.5760954  37.7341477
  94.7918691  89.3772013  37.5040969  95.5018309  88.7365205  37.4627588
  94.7487999  89.6284908  38.4267150 102.7805469  96.3139366  40.4247549
 102.7218015  95.6298586  39.7578132 103.1824988  97.0558356  39.9728175
  93.5047625  86.3637231  39.3236609  92.9684982  85.9127969  39.9758205
  92.9164333  86.4983140  38.5807073  91.7996168 103.1301280  33.2181267
  92.0392766 103.7619804  33.8960286  90.9565365 102.7789320  33.5046627
  92.9149884  85.8225882  21.8863072  92.0379350  85.7014683  21.5225319
  93.3907637  85.0311960  21.6341961 102.7822877  94.2778950  38.6561528
 101.8949655  93.9404872  38.7787927 103.3521428  93.5461981  38.8930294
  84.4352024  90.6103042  31.9804580  85.1223064  90.2964772  31.3925595
  84.2800152  91.5144407  31.7071831  89.2386746  85.4993238  36.4089603
  89.1544935  84.8918908  35.6740013  88.4169452  85.9902257  36.4099100
  96.3124030  98.9380402  35.6222771  96.2394201  99.7435374  36.1342076
  95.8701423  99.1372368  34.7970793  96.1013810  98.1752172  29.1325593
  95.3181331  98.7173853  29.2263817  96.8006555  98.6926152  29.5319834
  99.4110460  83.9846802  31.7759798  99.9079159  83.2316764  31.4560869
  98.6397441  84.0211119  31.2103008 107.2640217  89.6887167  33.4178090
 107.2530093  90.5711883  33.0472023 106.3957597  89.3358718  33.2232627
  98.7722713  98.8367236  37.7780930  99.4850686  99.4714701  37.7056832
  98.2812742  98.9331102  36.9620932 100.4940240  92.7418489  29.3498222
  99.5596519  92.8619952  29.1802926 100.6716909  91.8390956  29.0858232
  95.9945428  86.1264185  31.5031483  95.6243216  85.5735225  32.1912389
  96.4904521  85.5222318  30.9506483 103.8812792  88.5835808  29.8848256
 104.3473244  89.4163800  29.8108559 104.3320292  88.1180790  30.5893514
  93.8234627  96.5861680  38.5986501  94.5244087  97.2198163  38.7515895
  93.3529742  96.9276412  37.8382140 101.9489023  94.9279630  26.8834408
 102.2248867  94.8136224  27.7928282 101.0793522  94.5297115  26.8446581
 101.8529454  80.9516395  33.9239157 100.9392534  81.1820622  34.0921364
 102.2822556  81.0354840  34.7753190 101.6235913  89.1406287  36.4239051
 100.9707363  89.3882195  35.7691504 102.0016293  88.3270426  36.0901529
  98.5843087  99.1765981  30.5267222  98.7665481  98.3587637  30.9894974
  99.4076073  99.3933673  30.0892112  98.9185252  98.1034166  27.7882270
  99.4473019  97.5926620  27.1752432  99.1813472  97.7876696  28.6527803
  97.6723486  89.8826098  42.9105088  96.9964123  89.7820228  43.5807464
  98.4951120  89.7265312  43.3741086  89.4202345  96.1198035  35.5317604
  90.0055782  95.3741723  35.6645508  89.2227184  96.4301992  36.4154267
  92.2741000  99.1549282  30.5480046  91.6051376  99.6395410  30.0644086
  92.1353870  99.4018503  31.4623424  84.0120000  88.6903635  34.2522047
  84.0504099  88.1567226  35.0459165  83.5060293  88.1638841  33.6333024
  96.4146269 101.1893026  37.1462704  96.9664577 101.3524647  37.9111790
  96.7552462 101.7797464  36.4742729  91.3910762  83.5368176  37.7484589
  91.4552089  84.3983007  37.3361987  91.3277882  82.9242177  37.0156948
  90.8663035  85.6091308  41.3957623  91.4935073  85.2268386  42.0095148
  90.0090953  85.3905510  41.7613316 101.2657143  96.0154283  43.0011359
 101.8097047  96.6284242  42.5066314 100.6843988  96.5733862  43.5178372
  87.6428577  87.4167737  27.3275978  87.9382018  86.5078416  27.2743032
  86.7416613  87.3955477  27.0056980  99.5514656  99.1375001  34.1326386
  99.4265796  98.3364741  33.6237332 100.2093747  99.6321195  33.6440356
  91.1722824  85.4923734  33.3103527  90.4509410  86.1059702  33.1711000
  91.9616080  86.0281499  33.2320173 101.6149565  96.9384022  35.7605937
 100.6679900  96.8189373  35.6884263 101.9632338  96.0506520  35.8432198
  93.9749138  82.8278160  39.5844178  94.4983540  83.0740457  40.3470488
  93.7561471  83.6598195  39.1647316  89.3716419  85.0981835  27.4515303
  89.0429125  84.2179214  27.2690409  89.7255790  85.0429504  28.3391693
  98.6195998  96.7336738  31.9610289  98.4720960  95.8053445  32.1417859
  99.4449491  96.7556828  31.4767364  92.4858242  85.3854805  27.8190781
  92.8254315  85.9140726  27.0969389  92.9330363  85.7235211  28.5949347
 102.2230120  97.5565296  33.0475162 103.1476667  97.3508158  32.9099613
 102.0545423  97.3081698  33.9564503  95.1801683  83.7691856  37.2693849
  94.8398503  82.9699669  37.6714529  94.4740689  84.0693566  36.6970682
  95.8318155  80.8541168  35.7221172  96.6544224  80.3801646  35.6000062
  96.0756218  81.6331652  36.2219858  94.4726389  83.8829426  26.0184074
  95.1934752  84.2610679  25.5147791  93.8491693  84.6018303  26.1219052
  98.6157512  84.5874575  26.9542406  98.8321127  85.4699213  26.6531234
  98.1351579  84.1960789  26.2248048  93.3556734  87.5460289  33.5313151
  93.2101314  87.8600592  34.4237432  92.8781937  88.1645189  32.9784049
  95.2153116  84.5362837  33.5794040  95.2014685  83.6403930  33.2426338
  95.9325545  84.5433500  34.2132326  97.0679247  84.9700177  35.6247168
  96.8097025  85.8917247  35.6231498  96.5364288  84.5730611  36.3147632
 102.0125436  98.0750964  28.4037253 102.1862313  97.5097386  27.6511105
 102.5054327  98.8751859  28.2216743  87.8302396  90.0865633  36.4700812
  87.2855864  90.8625441  36.6021086  88.7081746  90.4336437  36.3119933
  94.6190012  83.4177217  28.8481610  94.7405924  82.4893863  29.0472498
  94.3292055  83.4315903  27.9359926  97.4881203  81.1032127  31.9848330
  97.5102900  81.1671460  31.0300310  97.9049262  80.2636636  32.1788836
 107.8664827  90.8387387  30.0227553 108.3095973  90.0894712  29.6246676
 106.9891337  90.8297523  29.6401285  88.6168418  89.2135529  39.3630969
  87.8750154  89.3618165  39.9495599  88.2961162  89.4743795  38.4997718
  96.5612080  98.7551508  39.1611359  96.8699207  98.5100654  40.0334058
  97.3587562  98.9598146  38.6730229  96.5832692 100.9089417  31.3916735
  96.1437683 100.4165796  32.0849592  97.3340809 100.3662385  31.1508810
  89.0625031  97.1000958  31.3941363  89.8883051  96.8004730  31.0140007
  88.7119083  96.3308580  31.8431152  94.0306564  96.4527426  33.4639037
  93.4086574  95.7898131  33.1641265  94.7011431  96.4788558  32.7812685
  87.2633636  95.0187284  32.3530297  86.4265545  94.5909459  32.1714298
  87.2357282  95.2119728  33.2901088  94.1031092  84.9309214  43.0571543
  94.1519247  85.8071337  42.6749313  94.6453606  84.3886607  42.4843186
 104.5885938  95.4750338  42.3372680 103.7981481  95.4574476  41.7977179
 104.3519292  96.0138631  43.0921717 104.7083813  92.3242804  39.6505409
 104.7581818  92.1592811  40.5920931 104.5997736  91.4570063  39.2603289
  93.5920071  95.0031350  26.9397497  93.7408192  95.6866814  26.2864170
  94.3986515  94.9836440  27.4546953 101.9987575  88.3073732  40.9664715
 102.8997438  88.1680197  40.6748713 102.0735550  88.4728187  41.9062893
  96.3330380  85.6840587  39.8117902  95.4633690  85.9774153  39.5400490
  96.5689861  86.2681032  40.5325165 106.2102009  94.7439745  39.8947430
 105.9186818  95.1069726  40.7310891 105.5974141  94.0306754  39.7160762
 107.4097692  92.3092625  32.4150000 108.2444583  92.7482429  32.5787561
 107.5456821  91.8331278  31.5958246 104.4589198  89.8672360  38.3627488
 104.9343319  90.0600006  37.5546339 103.5354763  89.9231546  38.1170872
  91.3472704  91.0296527  27.9458566  91.1018746  90.1258857  28.1438776
  91.5168619  91.0313678  27.0038044  99.0369414  81.9020204  37.3283322
  99.5551358  82.6381231  37.0029811  98.6824547  82.2084197  38.1630081
  90.6168352  86.7624885  25.4444728  89.9237597  86.8369240  24.7884764
  90.3720104  85.9985228  25.9666245  99.2882008  78.3220486  32.8484219
  99.5683762  77.6543675  33.4744645 100.0732615  78.5149582  32.3358882
 103.1590867  86.7438120  36.5955794 104.1108290  86.8436218  36.6168018
 102.9894317  85.9516389  37.1053878 101.1805246  83.8293703  36.7815195
 100.5855178  84.1098716  36.0861683 100.8954943  84.3187604  37.5531936
 105.6378944  89.9644240  35.7098093 105.6055265  89.0260241  35.8957777
 106.2479568  90.0428277  34.9763918  97.4762275  88.8340293  21.7525297
  98.4221380  88.7046501  21.8213715  97.0976520  88.0954955  22.2294726
 105.7873433  86.7555283  35.7556377 105.2712482  85.9713740  35.5686305
 106.6713381  86.4274000  35.9202896 103.4484160  80.4996299  31.7152189
 103.2508981  80.1911387  32.5995521 104.0583865  81.2257938  31.8450119
 111.4555494  91.0260247  34.8504130 112.1858883  90.7645535  35.4111833
 110.8462440  90.2888969  34.8906198 109.5370791  89.1668109  35.4478581
 108.8103955  89.0324074  34.8395073 109.1218078  89.4744938  36.2535299
  97.3600968  92.8858039  43.2125954  98.2803977  93.0636638  43.4066001
  97.3250551  91.9414084  43.0605654  95.6605192  86.7590269  21.6880183
  94.7536648  86.4623382  21.7642896  95.9381174  86.4620087  20.8214469
  86.5783133  88.0796633  32.1379229  86.2585917  87.2261941  31.8453603
  86.0316561  88.2945211  32.8937196  90.3563040  90.7959074  35.8548736
  90.5749050  91.7276181  35.8736769  90.7688814  90.4367048  36.6403539
  97.2767258  81.3027159  27.8424424  96.4667987  80.9574244  28.2179670
  97.9651675  80.9934703  28.4312035  99.2057807  80.3805206  29.4648721
  99.7588845  80.8000659  30.1238744  99.4427893  79.4540954  29.5071677
  95.2290906  86.3692279  45.2451484  95.1287633  87.3186636  45.1763576
  95.0112448  86.0410518  44.3727555  94.4303977  83.6177204  21.8292162
  95.2923141  83.9432103  22.0887979  94.6154321  82.8308700  21.3165228
  86.4471393  91.6999544  34.1072351  85.7534864  91.2853497  33.5942305
  87.1944384  91.7420081  33.5105769 102.5836614  82.4905731  28.9727385
 102.0035283  83.1490535  28.5905437 102.3172546  81.6683075  28.5614802
 101.0340180  81.8910789  31.1748705 101.5339958  82.0027323  30.3663024
 101.6775788  81.5871841  31.8149514  95.0922176  89.7989418  44.0616546
  94.6089257  90.5989778  44.2680435  95.1783115  89.8097363  43.1083990
  88.3608135  91.6317798  31.9838365  88.3378824  91.7305485  31.0320249
  88.6708772  92.4782949  32.3055532  91.0195513  93.6893953  36.0984980
  91.9738767  93.6577895  36.0314911  90.8208037  93.2284577  36.9135206
  91.6094895  92.2595069  38.6655778  92.4287784  92.7539148  38.6890615
  91.8831703  91.3427037  38.6373345 101.3661492  84.6505821  28.0283733
 100.4787347  84.9355472  27.8103928 101.7815481  84.4899585  27.1811010
 104.7176028  84.6752342  31.7438072 105.4936418  85.1648795  32.0162689
 103.9924162  85.1010396  32.2009942 107.1548586  85.3879961  32.8012013
 107.7493077  85.1475697  32.0905321 107.2275170  84.6687092  33.4285549
  89.3745742  99.2313572  33.1155178  89.2400210  98.4713973  32.5493176
  88.9577804  99.9554472  32.6483967 101.3402515  90.1660357  28.2434023
 101.2837717  90.6228909  27.4041656 101.8930858  89.4051042  28.0656866
 105.1507321  85.9550089  29.0684143 104.8944256  85.5546725  29.8992350
 104.5260189  86.6693883  28.9434282 109.4619659  88.6946162  31.5755434
 108.9019217  88.7639352  32.3486996 108.8563162  88.5187147  30.8554930
  92.5314868 100.1282889  33.3273620  92.4147252 101.0728322  33.2252311
  91.7107314  99.8256451  33.7159420 102.0737295  91.3565138  25.5386552
 102.0186098  91.1909410  24.5974997 101.4483350  92.0641171  25.6948742
  86.8629810  86.5933203  39.3647975  87.5088673  86.0832157  39.8535200
  86.6546961  87.3301884  39.9391400  99.3883202  93.6614050  44.8640115
 100.2574361  93.8354703  44.5026750  98.9089953  94.4808467  44.7415845
  95.3833420  80.8573247  25.1171871  95.3712090  81.8015087  25.2740142
  96.2756842  80.6743393  24.8231332  93.5569382 100.7811151  36.5429549
  94.4596629 100.8134762  36.8596044  93.3306752  99.8511602  36.5575885
  95.3122984  99.5342138  33.2039627  94.3618615  99.5343999  33.0904000
  95.6155470  98.7874872  32.6875662  99.1985540  77.4516024  29.3717808
  98.4317935  76.8974511  29.5174490  99.6096245  77.5237893  30.2331959
  91.2027301  83.7400820  43.4622989  92.0658762  83.3837625  43.6726313
  90.6292711  83.4014715  44.1498393 107.8565384 105.3230104  34.2046915
 107.5183895 105.2071169  33.3167449 108.7255152 104.9221269  34.1847921
 108.3385167 106.4764956  40.1633120 108.3273808 106.0817754  39.2913624
 108.5005806 105.7431029  40.7566892 105.0592428 109.2602068  39.1112304
 104.7682294 110.1647699  38.9958970 105.6949412 109.3018595  39.8256374
 105.9848635 106.6378916  35.7013664 106.5812207 106.4134939  34.9870627
 106.0423606 105.8963662  36.3039112 113.5250794  96.7450937  36.7066185
 113.1934118  97.6146348  36.4827400 112.9296407  96.4287221  37.3860215
 103.4694795 105.3977280  32.1398802 102.5445291 105.2653494  32.3476494
 103.7179208 106.1771499  32.6368745 113.4179457 101.4646024  33.7859535
 112.5096334 101.3961432  33.4918296 113.3667053 101.9417968  34.6141361
 100.8303606 105.0410554  32.9742591 100.9595987 105.2945033  33.8882003
 100.1501057 105.6338262  32.6547246 107.4920323 102.8835669  41.7294432
 106.7153657 103.4429589  41.7197297 108.1310886 103.3692452  42.2509302
 115.2841103  99.6662462  35.5637409 114.6415484  99.9594995  34.9177204
 114.7796032  99.5515382  36.3690606 105.7466695 105.6921122  41.2912399
 106.4881379 106.2306166  41.0147223 105.0403680 106.3187411  41.4483951
 107.5753105 102.7722870  37.2618118 108.4214300 103.1962283  37.4052767
 107.5151742 102.1156494  37.9556681 110.7252550 100.4327238  38.9199291
 110.4813482 101.1869299  38.3833567 111.0012480 100.8112586  39.7546538
 110.2817242  99.5883671  34.5013129 109.4201721  99.8864925  34.7929867
 110.3079676  99.8054070  33.5694162 104.4828059 102.8460771  42.0927709
 103.8526719 103.5277052  42.3263106 104.3764147 102.7343852  41.1480848
  99.7773031 102.5132567  33.0193633  98.9872085 102.7690095  32.5433744
 100.2684278 103.3280905  33.1245674  98.0610734 102.7663057  35.4508624
  98.3118773 103.6510067  35.7166200  98.5970283 102.5867659  34.6783716
 103.7608801  97.1481537  44.4552960 103.3675747  96.5947735  45.1300605
 104.5774942  97.4592115  44.8459478 106.6776762  98.5639416  42.0473217
 107.4186476  99.1646569  41.9677679 106.9094685  97.8217053  41.4891259
 101.8218100 103.7495783  40.3251447 101.7071616 102.8481040  40.6258546
 100.9662618 103.9959480  39.9736263 110.6233925  94.5920519  36.3237499
 110.2798195  95.4822160  36.2476609 110.9912888  94.4022176  35.4607084
 109.7030466  96.9625174  34.2886732 109.1995261  96.9255309  33.4754537
 109.9961073  97.8717916  34.3483389 105.9473352  97.0463903  33.2952914
 106.8126348  96.8506712  32.9358803 106.0150861  96.8174255  34.2222270
 103.5535671  99.2766111  30.6669280 104.1279423  99.0541293  29.9342473
 104.1406653  99.3454806  31.4197882 105.8558338  96.1507360  29.3944350
 105.2022751  95.8356377  28.7700965 105.8138813  95.5283101  30.1204173
 109.0896079 102.6389294  33.7191997 108.1718640 102.8604241  33.5613686
 109.5056222 102.7135604  32.8603705 112.4221591  93.8514078  31.4255236
 112.7280468  92.9911441  31.1381151 113.1474196  94.4431698  31.2254230
  98.7145947 104.2544764  29.8136834  98.5170347 103.6614125  29.0887901
  98.1592611 103.9496975  30.5312773 110.2309242 103.2286755  38.5236700
 110.5858630 103.4558228  39.3831166 110.8781374 103.5605132  37.9013955
 104.1249105 100.3363286  35.3083041 104.7648485 100.1952045  34.6106004
 103.2926636 100.0497799  34.9321643 101.1277722 100.3063611  30.0856028
 101.3884539 101.2208944  29.9765188 101.9494894  99.8388054  30.2352641
 102.6002647 101.7201368  37.2554853 103.2725701 101.5118730  36.6067501
 101.7732434 101.5223454  36.8160085 108.5028219  98.3463309  39.2720513
 107.8556134  99.0453259  39.1784990 109.2729235  98.7799453  39.6396762
 108.6792354 106.1844074  37.3317333 109.6084414 106.3355234  37.1586300
 108.2583384 106.2728095  36.4765980 103.0030144 104.9943971  38.0157290
 102.8649942 104.2624210  38.6168829 103.9135068 104.9052871  37.7341477
 105.6312445 104.7063931  37.5040969 106.3412064 104.0657123  37.4627588
 105.5881753 104.9576825  38.4267150 104.3441379 101.6929148  39.3236609
 103.8078736 101.2419887  39.9758205 103.7558088 101.8275057  38.5807073
  95.2745778 105.9394960  31.9804580  95.9616818 105.6256690  31.3925595
  95.1193907 106.8436324  31.7071831 100.0780500 100.8285156  36.4089603
  99.9938689 100.2210826  35.6740013  99.2563207 101.3194174  36.4099100
 110.2504214  99.3138720  31.7759798 110.7472914  98.5608682  31.4560869
 109.4791196  99.3503036  31.2103008 106.8339183 101.4556103  31.5031483
 106.4636970 100.9027143  32.1912389 107.3298275 100.8514236  30.9506483
 112.6923209  96.2808313  33.9239157 111.7786289  96.5112540  34.0921364
 113.1216310  96.3646757  34.7753190 112.4629667 104.4698205  36.4239051
 111.8101118 104.7174113  35.7691504 112.8410047 103.6562343  36.0901529
 108.5117240 105.2118016  42.9105088 107.8357878 105.1112145  43.5807464
 109.3344874 105.0557230  43.3741086 100.2596100 111.4489953  35.5317604
 100.8449536 110.7033641  35.6645508 100.0620938 111.7593909  36.4154267
  94.8513754 104.0195553  34.2522047  94.8897854 103.4859144  35.0459165
  94.3454047 103.4930758  33.6333024 102.2304517  98.8660093  37.7484589
 102.2945843  99.7274924  37.3361987 102.1671637  98.2534095  37.0156948
 101.7056789 100.9383226  41.3957623 102.3328828 100.5560303  42.0095148
 100.8484708 100.7197428  41.7613316 102.0116579 100.8215652  33.3103527
 101.2903165 101.4351619  33.1711000 102.8009835 101.3573416  33.2320173
 104.8142892  98.1570078  39.5844178 105.3377294  98.4032375  40.3470488
 104.5955226  98.9890113  39.1647316 106.0195437  99.0983773  37.2693849
 105.6792258  98.2991586  37.6714529 105.3134444  99.3985484  36.6970682
 106.6711909  96.1833086  35.7221172 107.4937979  95.7093564  35.6000062
 106.9149973  96.9623569  36.2219858 104.1950488 102.8752206  33.5313151
 104.0495069 103.1892509  34.4237432 103.7175692 103.4937107  32.9784049
 106.0546871  99.8654754  33.5794040 106.0408440  98.9695848  33.2426338
 106.7719299  99.8725418  34.2132326 107.9073002 100.2992094  35.6247168
 107.6490779 101.2209165  35.6231498 107.3758042  99.9022529  36.3147632
  98.6696150 105.4157551  36.4700812  98.1249618 106.1917359  36.6021086
  99.5475500 105.7628355  36.3119933 108.3274957  96.4324045  31.9848330
 108.3496654  96.4963378  31.0300310 108.7443016  95.5928554  32.1788836
  99.4562172 104.5427447  39.3630969  98.7143908 104.6910082  39.9495599
  99.1354916 104.8035713  38.4997718 104.9424846 100.2601132  43.0571543
 104.9913002 101.1363255  42.6749313 105.4847361  99.7178525  42.4843186
 112.8381330 103.6365650  40.9664715 113.7391192 103.4972114  40.6748713
 112.9129304 103.8020104  41.9062893 107.1724135 101.0132504  39.8117902
 106.3027444 101.3066070  39.5400490 107.4083615 101.5972949  40.5325165
 109.8763169  97.2312121  37.3283322 110.3945113  97.9673148  37.0029811
 109.5218301  97.5376115  38.1630081 110.1275763  93.6512404  32.8484219
 110.4077517  92.9835593  33.4744645 110.9126370  93.8441499  32.3358882
 113.9984621 102.0730038  36.5955794 114.9502044 102.1728135  36.6168018
 113.8288072 101.2808306  37.1053878 112.0199001  99.1585621  36.7815195
 111.4248933  99.4390634  36.0861683 111.7348697  99.6479522  37.5531936
 116.6267187 102.0847201  35.7556377 116.1106236 101.3005658  35.5686305
 117.5107136 101.7565918  35.9202896 114.2877914  95.8288216  31.7152189
 114.0902736  95.5203305  32.5995521 114.8977620  96.5549855  31.8450119
  97.4176887 103.4088550  32.1379229  97.0979672 102.5553858  31.8453603
  96.8710316 103.6237128  32.8937196 101.1956795 106.1250991  35.8548736
 101.4142805 107.0568099  35.8736769 101.6082569 105.7658966  36.6403539
 110.0451561  95.7097123  29.4648721 110.5982600  96.1292577  30.1238744
 110.2821647  94.7832871  29.5071677 106.0684660 101.6984197  45.2451484
 105.9681387 102.6478554  45.1763576 105.8506202 101.3702436  44.3727555
  97.2865147 107.0291462  34.1072351  96.5928619 106.6145415  33.5942305
  98.0338138 107.0711998  33.5105769 105.9315930 105.1281336  44.0616546
 105.4483012 105.9281696  44.2680435 106.0176869 105.1389281  43.1083990
  99.2001890 106.9609716  31.9838365  99.1772578 107.0597403  31.0320249
  99.5102526 107.8074866  32.3055532 101.8589268 109.0185871  36.0984980
 102.8132521 108.9869813  36.0314911 101.6601791 108.5576494  36.9135206
 102.4488650 107.5886987  38.6655778 103.2681539 108.0831065  38.6890615
 102.7225458 106.6718955  38.6373345  97.7023564 101.9225120  39.3647975
  98.3482428 101.4124074  39.8535200  97.4940715 102.6593802  39.9391400
 110.0379294  92.7807942  29.3717808 109.2711690  92.2266428  29.5174490
 110.4489999  92.8529810  30.2331959 102.0421055  99.0692738  43.4622989
 102.9052517  98.7129542  43.6726313 101.4686466  98.7306632  44.1498393
  47.0688372  -3.6243182  29.7256665  47.6128276  -3.0113224  29.2311620
  46.4875217  -3.0663604  30.2423678  50.3917166  -4.1647128  29.0617987
  49.6012710  -4.1822989  28.5222486  50.1550521  -3.6258835  29.8167023
  45.1914431  -5.9783416  31.5885422  46.0605590  -5.8042763  31.2272057
  44.7121182  -5.1588999  31.4661151  56.8506906   5.7305210  20.9930696
  57.4885316   5.6111958  20.2894037  56.7327749   6.6786054  21.0518649
  54.1416396   6.8367490  26.8878427  54.1305036   6.4420289  26.0158930
  54.3037035   6.1033563  27.4812198  50.8623657   9.6204602  25.8357611
  50.5713523  10.5250233  25.7204277  51.4980641   9.6621130  26.5501680
  51.7879864   6.9981451  22.4258970  52.3843436   6.7737473  21.7115933
  51.8454835   6.2566196  23.0284418  61.8056602   3.3931897  18.9716883
  62.5381774   2.8231114  19.2054713  61.0495958   3.0053498  19.4123389
  59.3282022  -2.8946528  23.4311492  58.9965347  -2.0251117  23.2072707
  58.7327636  -3.2110244  24.1105522  55.8213542   9.3066018  22.8307404
  55.5214265  10.2091056  22.7223212  55.4764601   9.0398201  23.6828557
  50.8034322  16.0710338  15.7978372  50.7258351  17.0218163  15.8766853
  50.1995965  15.7256210  16.4553298  53.2951551   3.2438203  28.4539739
  52.5184886   3.8032123  28.4442604  53.9342115   3.7294986  28.9754609
  61.0872332   0.0264996  22.2882716  60.4446712   0.3197529  21.6422510
  60.5827261  -0.0882084  23.0935912  51.5497924   6.0523657  28.0157706
  52.2912608   6.5908701  27.7392530  50.8434909   6.6789945  28.1729258
  57.0253263   8.1952797  26.6129867  57.4336619   7.7535208  25.8684500
  56.3030525   7.6205425  26.8664060  53.3784333   3.1325404  23.9863424
  54.2245529   3.5564817  24.1298073  53.3182971   2.4759028  24.6801988
  57.3482078   8.7553988  20.3682156  56.7190940   8.9199702  19.6658224
  56.9607740   9.1695597  21.1393120  61.2271310   9.6908426  17.7226520
  60.5422348  10.0707327  17.1723553  61.3115159  10.3003752  18.4558468
  56.5283779   0.7929772  25.6444598  56.2844711   1.5471833  25.1078874
  56.8043709   1.1715120  26.4791845  58.4822242   7.3368385  24.3221864
  58.6939137   7.9800145  23.6456245  58.4351990   6.5030701  23.8543794
  50.2859288   3.2063305  28.8173016  49.6557948   3.8879586  29.0508413
  50.1795375   3.0946386  27.8726154  59.5968069  10.2140340  22.4944221
  60.4185513   9.8120527  22.2126903  59.5930472  10.1108574  23.4460337
  53.3624673   9.7624383  24.6504931  53.4269105  10.2244791  25.4863103
  52.6535597   9.1321748  24.7787241  67.6874063   6.5579089  18.8429192
  66.9337771   5.9886487  18.6873197  67.8221604   6.5241753  19.7899827
  49.5640030  -2.4915929  31.1798267  49.1706976  -3.0449731  31.8545911
  50.3806171  -2.1805351  31.5704785  52.4807991  -1.0758050  28.7718524
  53.2217705  -0.4750897  28.6922986  52.7125914  -1.8180412  28.2136566
  47.6249329   4.1098317  27.0496753  47.5102844   3.2083574  27.3503852
  46.7693847   4.3562014  26.6981570  54.7041167  12.0516057  28.6484254
  54.2605021  11.2652436  28.3305158  55.3658381  12.2395208  27.9828145
  49.4628288  13.5811859  23.1744932  50.0135713  13.4528922  22.4021926
  48.6239764  13.8806748  22.8239825  56.8022405  12.3318857  26.6765655
  56.7840880  13.1527738  26.1845924  57.7242325  12.2072933  26.9015796
  53.2595459   9.8462987  27.5189163  53.7923796   9.0851275  27.2888471
  52.7309540   9.5536639  28.2613318  59.6041018   7.1698000  20.1475022
  58.9464692   7.8597261  20.2355150  60.4081417   7.5594432  20.4909008
  59.1808273  10.5048374  16.3258106  58.7270600   9.6639284  16.3823297
  58.5502240  11.1409772  16.6632886  57.6241212  12.3424871  17.2607924
  57.9164187  12.9029928  16.5420290  58.1339833  12.6353432  18.0161083
  52.5874837  13.1205222  18.3501378  52.5451016  13.3466068  17.4209910
  53.5037536  12.8868596  18.4987179  56.0340471   3.5889289  25.2482007
  56.3889859   3.8160762  26.1076473  56.6812602   3.9207666  24.6259262
  61.7907588   8.7784252  20.9642607  62.2244094   8.6859541  21.8125661
  62.5039168   8.7541753  20.3262623  55.5235483  12.3786346  22.4975708
  55.5772505  12.9477283  23.2653424  54.6550264  12.5488231  22.1329745
  62.6523137   8.8207953  23.4975493  62.8459027   9.7253763  23.7434768
  62.5523755   8.3615372  24.3314078  54.3059448  -1.2934157  25.9965820
  53.6587363  -0.5944207  25.9030296  55.0760463  -0.8598013  26.3642068
  57.7138246   8.9714696  29.0716373  57.5623752   8.7425247  28.1546457
  57.7042925   9.9285297  29.0847718  54.4823582   6.5446608  24.0562640
  55.4115642   6.6957768  23.8831607  54.0614612   6.6330629  23.2011286
  53.2811914  10.5697273  21.8261177  53.1423000  10.2016057  22.6987115
  52.4926510  11.0844912  21.6545135  54.8317129   9.9478875  19.2150015
  54.4966962   9.9079645  20.1107665  54.3321075   9.2823591  18.7420425
  48.8061373   5.3546505  24.7402596  48.6681171   4.6226744  25.3414135
  49.7166297   5.2655406  24.4586784  51.4343674   5.0666465  24.2286276
  52.1443292   4.4259657  24.1872894  51.3912982   5.3179360  25.1512457
  59.4230453  12.0033818  27.1492855  59.3642999  11.3193038  26.4823438
  59.8249971  12.7452808  26.6973481  50.1472608   2.0531683  26.0481915
  49.6109965   1.6022421  26.7003512  49.5589316   2.1877591  25.3052380
  48.4421151  18.8195732  19.9426574  48.6817750  19.4514256  20.6205593
  47.5990348  18.4683772  20.2291933  59.4247860   9.9673402  25.3806835
  58.5374639   9.6299324  25.5033234  59.9946411   9.2356433  25.6175600
  52.9549013  14.6274854  22.3468078  52.8819185  15.4329826  22.8587383
  52.5126406  14.8266820  21.5216099  63.9065200   5.3781619  20.1423396
  63.8955077   6.2606335  19.7717330  63.0382580   5.0253170  19.9477934
  55.4147697  14.5261688  24.5026237  56.1275669  15.1609153  24.4302138
  54.9237725  14.6225554  23.6866239  50.4659610  12.2756132  25.3231808
  51.1669070  12.9092615  25.4761202  49.9954725  12.6170863  24.5627447
  58.2660896   4.8300739  23.1484358  57.6132347   5.0776647  22.4936811
  58.6441276   4.0164877  22.8146835  55.2268070  14.8660432  17.2512528
  55.4090465  14.0482088  17.7140281  56.0501056  15.0828125  16.8137418
  54.3148469   5.5720550  29.6350395  53.6389106   5.4714680  30.3052770
  55.1376103   5.4159764  30.0986392  46.0627328  11.8092487  22.2562910
  46.6480765  11.0636175  22.3890814  45.8652167  12.1196444  23.1399574
  53.0571252  16.8787478  23.8708011  53.6089560  17.0419099  24.6357096
  53.3977446  17.4691916  23.1988036  47.5088018   1.2985760  28.1202930
  48.1360057   0.9162837  28.7340454  46.6515937   1.0799962  28.4858622
  57.9082127  11.7048735  29.7256665  58.4522030  12.3178694  29.2311620
  57.3268971  12.2628314  30.2423678  56.1939639  14.8269453  20.8571693
  56.0690779  14.0259193  20.3482639  56.8518731  15.3215647  20.3685663
  58.2574548  12.6278473  22.4851243  57.3104883  12.5083825  22.4129570
  58.6057321  11.7400971  22.5677505  50.6174121  -1.4827388  26.3089485
  51.1408523  -1.2365091  27.0715794  50.3986454  -0.6507353  25.8892622
  55.2620981  12.4231190  18.6855595  55.1145944  11.4947897  18.8663165
  56.0874475  12.4451280  18.2012671  58.8655103  13.2459748  19.7720468
  59.7901650  13.0402610  19.6344919  58.6970406  12.9976150  20.6809810
  58.6550419  13.7645416  15.1282560  58.8287297  13.1991838  14.3756412
  59.1479310  14.5646311  14.9462050  64.5089810   6.5281839  16.7472859
  64.9520956   5.7789164  16.3491983  63.6316321   6.5191975  16.3646591
  45.2593401   4.9029981  26.0876275  44.5175137   5.0512617  26.6740906
  44.9386145   5.1638247  25.2243025  53.2037064  14.4445959  25.8856665
  53.5124190  14.1995106  26.7579365  54.0012546  14.6492598  25.3975536
  53.2257676  16.5983869  18.1162042  52.7862666  16.1060248  18.8094899
  53.9765793  16.0556837  17.8754117  50.6731548  12.1421878  20.1884344
  50.0511557  11.4792583  19.8886571  51.3436415  12.1683010  19.5057991
  50.7456075   0.6203666  29.7816850  50.7944231   1.4965789  29.3994619
  51.2878589   0.0781059  29.2088493  61.2310921  11.1644789  29.0617987
  60.4406465  11.1468928  28.5222486  60.9944275  11.7033083  29.8167023
  61.3508796   8.0137256  26.3750715  61.4006801   7.8487263  27.3166238
  61.2422719   7.1464515  25.9848596  58.6412558   3.9968184  27.6910022
  59.5422421   3.8574649  27.3994020  58.7160533   4.1622639  28.6308199
  52.9755364   1.3735039  26.5363208  52.1058673   1.6668605  26.2645797
  53.2114844   1.9575484  27.2570472  62.8526993  10.4334197  26.6192737
  62.5611801  10.7964178  27.4556198  62.2399124   9.7201206  26.4406069
  64.0522675   7.9987077  19.1395307  64.8869566   8.4376881  19.3032867
  64.1881804   7.5225730  18.3203553  61.1014181   5.5566812  25.0872795
  61.5768303   5.7494458  24.2791646  60.1779746   5.6125998  24.8416178
  59.8015850   2.4332572  23.3201100  60.7533273   2.5330670  23.3413324
  59.6319300   1.6410841  23.8299185  57.8230229  -0.4811845  23.5060501
  57.2280162  -0.2006832  22.8106990  57.5379926   0.0082056  24.2777242
  62.2803928   5.6538692  22.4343400  62.2480248   4.7154692  22.6203084
  62.8904551   5.7322728  21.7009225  62.4298416   2.4449735  22.4801683
  61.9137465   1.6608192  22.2931612  63.3138365   2.1168452  22.6448203
  68.0980478   6.7154699  21.5749437  68.8283866   6.4539987  22.1357140
  67.4887423   5.9783420  21.6151505  66.1795775   4.8562561  22.1723888
  65.4528938   4.7218526  21.5640380  65.7643062   5.1639390  22.9780606
  54.0025951   8.5752491  29.9371261  54.9228961   8.7531090  30.1311308
  53.9675534   7.6308536  29.7850960  51.8715889   2.0586731  31.9696791
  51.7712616   3.0081088  31.9008882  51.6537431   1.7304970  31.0972861
  51.7347159   5.4883870  30.7861853  51.2514241   6.2884230  30.9925742
  51.8208098   5.4991815  29.8329297  47.6620497   9.3788405  22.8230287
  48.6163750   9.3472347  22.7560218  47.4633020   8.9179028  23.6380512
  48.2519879   7.9489521  25.3901084  49.0712768   8.4433599  25.4135921
  48.5256686   7.0321489  25.3618652  46.0170725  14.9208024  19.8400484
  45.8825193  14.1608425  19.2738482  45.6002788  15.6448924  19.3729273
  66.1044642   4.3840614  18.3000741  65.5444200   4.4533803  19.0732303
  65.4988146   4.2081599  17.5800237  49.1739851  15.8177341  20.0518927
  49.0572235  16.7622774  19.9497617  48.3532298  15.5150903  20.4404726
  56.0308185   9.3508502  31.5885422  56.8999345   9.5249154  31.2272057
  55.5514937  10.1702919  31.4661151  50.1994365  16.4705603  23.2674855
  51.1021612  16.5029213  23.5841350  49.9731735  15.5406054  23.2821191
  51.9547967  15.2236590  19.9284934  51.0043598  15.2238451  19.8149306
  52.2580454  14.4769324  19.4120969  47.8452284  -0.5704728  30.1868295
  48.7083746  -0.9267923  30.3971620  47.2717695  -0.9090833  30.8743700
  67.6900661  21.0597128  20.9930696  68.3279071  20.9403875  20.2894037
  67.5721504  22.0077972  21.0518649  64.4990367  21.0124556  20.9292221
  64.1608879  20.8965621  20.0412756  65.3680135  20.6115721  20.9093227
  60.3577183  22.8660033  16.9189112  59.7942048  22.7749970  16.1505400
  60.2429578  22.0459937  17.3991605  64.9810150  22.1659408  26.8878427
  64.9698791  21.7712206  26.0158930  65.1430790  21.4325481  27.4812198
  57.9041615  24.3611224  19.7573333  58.6962907  24.0202049  19.3419632
  58.1438265  24.4706199  20.6775486  65.9376742  26.5331000  12.2303577
  65.2864721  27.1185081  11.8437591  66.7321104  27.0637195  12.2898614
  59.8632369  23.6220137  12.6290711  60.6363245  23.0749125  12.4903587
  60.2157768  24.4864387  12.8405173  61.7017411  24.9496520  25.8357611
  61.4107277  25.8542151  25.7204277  62.3374396  24.9913047  26.5501680
  62.6273618  22.3273368  22.4258970  63.2237190  22.1029391  21.7115933
  62.6848590  21.5858114  23.0284418  62.1998647  19.7812804  10.2609161
  62.4524167  19.2594325   9.4992624  61.2623206  19.6178949  10.3635845
  67.2441929  18.7848582  18.0683905  68.0305019  18.3668005  17.7174322
  67.5080634  19.6894674  18.2365553  67.4152007  24.2221432  12.7672561
  66.7797840  24.2956059  13.4793466  67.0849413  24.8115031  12.0891641
  72.6450356  18.7223815  18.9716883  73.3775528  18.1523032  19.2054713
  71.8889712  18.3345416  19.4123389  61.9194935  21.6840910  12.4633536
  61.8031193  21.0085813  13.1314621  62.0297195  21.1973283  11.6465689
  64.2626476  21.1451057  16.1680225  63.8984683  20.6181678  16.8793147
  65.1193592  20.7549526  15.9946711  70.1675777  12.4345389  23.4311492
  69.8359102  13.3040800  23.2072707  69.5721390  12.1181673  24.1105522
  66.6607296  24.6357935  22.8307404  66.3608019  25.5382974  22.7223212
  66.3158356  24.3690118  23.6828557  60.1119778  21.0871732  18.8644109
  59.1870274  20.9547946  19.0721801  60.3604191  21.8665951  19.3614051
  70.0604440  17.1540475  20.5104842  69.1521318  17.0855884  20.2163603
  70.0092036  17.6312420  21.3386667  63.8821184  18.6298614  12.1488241
  63.7620809  19.0755665  12.9873721  63.1873772  18.9783932  11.5901779
  57.4728589  20.7305006  19.6987898  57.6020970  20.9839485  20.6127310
  56.7926040  21.3232714  19.3792553  61.6428076  31.4002256  15.7978372
  61.5652106  32.3510081  15.8766853  61.0389720  31.0548128  16.4553298
  64.1345306  18.5730121  28.4539739  63.3578640  19.1324041  28.4442604
  64.7735869  19.0586904  28.9754609  71.9266087  15.3556914  22.2882716
  71.2840467  15.6489447  21.6422510  71.4221015  15.2409834  23.0935912
  69.5806250  19.1020087  12.9768575  70.4924106  19.3347474  12.8016272
  69.0715897  19.6857131  12.4143653  62.3891678  21.3815574  28.0157706
  63.1306363  21.9200618  27.7392530  61.6828664  22.0081863  28.1729258
  67.8647018  23.5244715  26.6129867  68.2730374  23.0827125  25.8684500
  67.1424279  22.9497342  26.8664060  64.2178088  18.4617322  23.9863424
  65.0639283  18.8856735  24.1298073  64.1576726  17.8050946  24.6801988
  68.1875833  24.0845905  20.3682156  67.5584695  24.2491620  19.6658224
  67.8001495  24.4987515  21.1393120  72.0665064  25.0200343  17.7226520
  71.3816103  25.3999245  17.1723553  72.1508914  25.6295670  18.4558468
  67.3677533  16.1221690  25.6444598  67.1238465  16.8763751  25.1078874
  67.6437464  16.5007038  26.4791845  69.3215996  22.6660302  24.3221864
  69.5332891  23.3092062  23.6456245  69.2745744  21.8322619  23.8543794
  66.9242225  15.2778123  21.2258436  66.0626704  15.5759377  21.5175173
  66.9504660  15.4948522  20.2939468  63.7403794  23.8220314  17.6332241
  64.2042140  24.1008017  16.8436864  63.4760593  22.9203758  17.4505332
  60.6327875  23.3691795  20.5712005  61.2029233  23.7979063  19.9329489
  61.2235987  23.0874380  21.2696190  62.6772680  19.9443466  14.4421807
  63.3796724  20.3964510  14.9095733  62.3453309  19.3027285  15.0701700
  61.1253042  18.5355223  28.8173016  60.4951703  19.2171503  29.0508413
  61.0189130  18.4238304  27.8726154  56.4198014  18.2027019  19.7438940
  55.6297068  18.4584547  19.2679051  56.9109262  19.0175356  19.8490981
  70.4361824  25.5432258  22.4944221  71.2579268  25.1412445  22.2126903
  70.4324227  25.4400492  23.4460337  58.3712760  18.5671598  16.7022417
  57.5743923  18.6790292  17.2205913  58.1438352  18.9058250  15.8363307
  64.2018427  25.0916301  24.6504931  64.2662860  25.5536708  25.4863103
  63.4929351  24.4613666  24.7787241  54.7035717  18.4557509  22.1753931
  54.9543756  19.3404519  22.4411507  55.2395266  18.2762111  21.4029023
  78.5267817  21.8871006  18.8429192  77.7731525  21.3178404  18.6873197
  78.6615358  21.8533671  19.7899827  63.9166445  26.7584409  14.5183912
  63.7812120  27.6035944  14.9468760  64.4576258  26.9603686  13.7549846
  60.4033785  12.8375988  31.1798267  60.0100730  12.2842187  31.8545911
  61.2199925  13.1486567  31.5704785  57.3695842  24.2759847  15.0911837
  57.8820363  25.0703097  15.2417402  58.0218555  23.5786137  15.0245438
  59.1790727  27.3925603  17.1734590  59.3557356  28.3143568  16.9855574
  59.9747561  27.0784022  17.6028970  63.3201746  14.2533867  28.7718524
  64.0611459  14.8541021  28.6922986  63.5519669  13.5111505  28.2136566
  58.4643084  19.4390235  27.0496753  58.3496599  18.5375492  27.3503852
  57.6087601  19.6853932  26.6981570  65.5434921  27.3807975  28.6484254
  65.0998776  26.5944354  28.3305158  66.2052135  27.5687126  27.9828145
  60.3022043  28.9103777  23.1744932  60.8529468  28.7820840  22.4021926
  59.4633519  29.2098666  22.8239825  67.6416160  27.6610775  26.6765655
  67.6234635  28.4819656  26.1845924  68.5636080  27.5364850  26.9015796
  64.0989214  25.1754904  27.5189163  64.6317550  24.4143193  27.2888471
  63.5703295  24.8828556  28.2613318  67.2658909  10.2814970  23.0482805
  66.9223178  11.1716612  22.9721916  67.6337871  10.0916628  22.1852390
  55.3344759  22.6048501  15.8671407  56.1719981  23.0145509  15.6505115
  55.5123027  21.6647943  15.8371601  67.2309191  20.2723582  11.5555240
  66.7155815  21.0428186  11.7943628  66.9586500  19.5988718  12.1788302
  64.8156302  15.1173282  16.6140479  63.9597899  14.7280133  16.4346117
  65.2283254  15.1965243  15.7540264  66.3455449  12.6519626  21.0132038
  65.8420245  12.6149761  20.1999844  66.6386056  13.5612368  21.0728695
  62.5898335  12.7358355  20.0198220  63.4551332  12.5401164  19.6604110
  62.6575844  12.5068707  20.9467577  72.2043466  23.0255936  13.4908414
  71.4272908  22.6867096  13.0463576  72.8834946  23.0308559  12.8163379
  67.0195495  18.1450674  13.3815022  66.7145630  18.4596823  14.2325165
  67.9725937  18.2232094  13.4242355  65.4641926  24.3040897  15.0307976
  64.9363288  23.5693657  14.7181213  64.9629429  25.0815573  14.7847944
  70.4434772  22.4989917  20.1475022  69.7858447  23.1889179  20.2355150
  71.2475172  22.8886349  20.4909008  60.1960654  14.9660563  17.3914587
  60.7704406  14.7435745  16.6587780  60.7831636  15.0349258  18.1443188
  69.2540231  20.8534290  18.1978964  69.7672113  21.4864282  18.7000673
  69.9041455  20.2535486  17.8322324  62.4983322  11.8401812  16.1189656
  61.8447734  11.5250829  15.4946271  62.4563796  11.2177553  16.8449479
  63.6094527  22.1221107   8.0342949  62.7021588  21.8910361   8.2334098
  64.1065559  21.3258726   8.2216930  66.5162605  30.8318614  10.9539635
  65.8424304  31.1350311  11.5624593  66.9028427  31.6347695  10.6045092
  65.7321062  18.3283746  20.4437304  64.8143623  18.5498693  20.2858992
  66.1481206  18.4030056  19.5849011  66.5156110  19.7275161  15.5739984
  67.2627929  20.2396559  15.2647106  66.7847699  19.4059214  16.4344378
  64.7882760  22.2233702  12.5566939  63.8793979  21.9392735  12.6539408
  64.8177844  22.6432781  11.6970245  70.0202027  25.8340292  16.3258106
  69.5664355  24.9931201  16.3823297  69.3895994  26.4701690  16.6632886
  68.9634947  16.7632278  17.5558774  68.2257704  16.2509664  17.8869016
  69.2161721  16.3232659  16.7442051  68.4634967  27.6716788  17.2607924
  68.7557941  28.2321845  16.5420290  68.9733587  27.9645349  18.0161083
  69.0646574   9.5408530  18.1500543  69.3705451   8.6805893  17.8626458
  69.7899179  10.1326150  17.9499537  55.3570930  19.9439216  16.5382141
  55.1595330  19.3508577  15.8133207  54.8017594  19.6391426  17.2558080
  63.3367654  19.8362323  18.6576734  63.3916264  18.8836159  18.5819211
  62.5258856  19.9921762  19.1418032  64.4858848  23.7642446   9.8955017
  64.0478278  23.0478305   9.4360655  65.2269289  23.9918561   9.3340109
  61.2760014  18.4539382  16.4167113  60.4627880  18.7533553  16.8232305
  61.7719008  18.0595071  17.1341595  63.4268592  28.4497139  18.3501378
  63.3844771  28.6757986  17.4209910  64.3431291  28.2160514  18.4987179
  66.8734226  18.9181207  25.2482007  67.2283613  19.1452680  26.1076473
  67.5206357  19.2499584  24.6259262  72.6031963  22.0399643  15.9531336
  72.4649861  22.2301239  15.0252525  72.2468181  22.8019026  16.4099387
  60.7674089  16.0257738  22.0328348  61.4073468  15.8846497  21.3351311
  59.9351619  15.7392251  21.6566950  72.6301342  24.1076170  20.9642607
  73.0637849  24.0151459  21.8125661  73.3432923  24.0833670  20.3262623
  61.5434393  25.3260168  18.1463340  62.3374991  24.8310489  17.9445915
  60.8326085  24.7978032  17.7831046  66.3629237  27.7078264  22.4975708
  66.4166259  28.2769200  23.2653424  65.4944018  27.8780149  22.1329745
  57.8517156  19.4703250  14.2223093  56.9214744  19.4087706  14.4393055
  57.9474628  18.9479203  13.4259734  57.7702705  15.9958063  16.8101335
  58.0309522  16.9103396  16.7010495  58.5919877  15.5282506  16.9597947
  59.2427630  17.4095820  23.9800159  59.9150684  17.2013182  23.3312808
  58.4157417  17.2117906  23.5405391  73.4916892  24.1499870  23.4975493
  73.6852782  25.0545681  23.7434768  73.3917510  23.6907290  24.3314078
  65.1453202  14.0357761  25.9965820  64.4981118  14.7347711  25.9030296
  65.9154218  14.4693905  26.3642068  68.5532000  24.3006613  29.0716373
  68.4017507  24.0717165  28.1546457  68.5436680  25.2577215  29.0847718
  65.3217337  21.8738526  24.0562640  66.2509397  22.0249686  23.8831607
  64.9008367  21.9622547  23.2011286  64.1205669  25.8989190  21.8261177
  63.9816754  25.5307975  22.6987115  63.3320265  26.4136830  21.6545135
  64.7153821  30.9998287  13.1686714  64.8905576  30.5286330  13.9832337
  64.0286609  31.6264053  13.3967975  65.6710884  25.2770793  19.2150015
  65.3360716  25.2371563  20.1107665  65.1714829  24.6115509  18.7420425
  59.6455128  20.6838423  24.7402596  59.5074926  19.9518662  25.3414135
  60.5560051  20.5947323  24.4586784  68.6070075  22.6226827   9.4887075
  67.9899246  21.8973656   9.3920127  68.1386564  23.3836188   9.1454149
  62.2737428  20.3958382  24.2286276  62.9837047  19.7551575  24.1872894
  62.2306737  20.6471277  25.1512457  70.2624207  27.3325736  27.1492855
  70.2036753  26.6484956  26.4823438  70.6643725  28.0744726  26.6973481
  60.9866362  17.3823600  26.0481915  60.4503719  16.9314339  26.7003512
  60.3983071  17.5169509  25.3052380  59.2814906  34.1487650  19.9426574
  59.5211504  34.7806174  20.6205593  58.4384102  33.7975690  20.2291933
  70.2641614  25.2965320  25.3806835  69.3768393  24.9591241  25.5033234
  70.8340165  24.5648351  25.6175600  51.9170761  21.6289411  18.7049886
  52.6041801  21.3151141  18.1170902  51.7618890  22.5330776  18.4317138
  56.7205484  16.5179608  23.1334910  56.6363672  15.9105278  22.3985320
  55.8988190  17.0088626  23.1344406  63.7942768  29.9566772  22.3468078
  63.7212939  30.7621744  22.8587383  63.3520161  30.1558738  21.5216099
  63.5832547  29.1938542  15.8570900  62.8000069  29.7360222  15.9509124
  64.2825293  29.7112522  16.2565141  66.8929197  15.0033172  18.5005105
  67.3897897  14.2503134  18.1806175  66.1216179  15.0397488  17.9348314
  74.7458955  20.7073537  20.1423396  74.7348831  21.5898252  19.7717330
  73.8776334  20.3545088  19.9477934  66.2541451  29.8553606  24.5026237
  66.9669423  30.4901071  24.4302138  65.7631480  29.9517472  23.6866239
  67.9758978  23.7604859  16.0743528  67.0415257  23.8806321  15.9048233
  68.1535647  22.8577326  15.8103538  63.4764166  17.1450555  18.2276790
  63.1061954  16.5921595  18.9157695  63.9723259  16.5408688  17.6751790
  71.3631530  19.6022178  16.6093563  71.8291982  20.4350170  16.5353865
  71.8139030  19.1367160  17.3138821  61.3053365  27.6048050  25.3231808
  62.0062824  28.2384532  25.4761202  60.8348480  27.9462781  24.5627447
  69.4307761  25.9465999  13.6079715  69.7067605  25.8322594  14.5173589
  68.5612259  25.5483484  13.5691888  69.3348192  11.9702765  20.6484464
  68.4211272  12.2006992  20.8166671  69.7641294  12.0541209  21.4998496
  69.1054651  20.1592657  23.1484358  68.4526101  20.4068564  22.4936811
  69.4835031  19.3456795  22.8146835  66.0661825  30.1952350  17.2512528
  66.2484219  29.3774006  17.7140281  66.8894811  30.4120042  16.8137418
  66.4003990  29.1220535  14.5127577  66.9291757  28.6112990  13.8997739
  66.6632210  28.8063066  15.3773110  65.1542224  20.9012468  29.6350395
  64.4782861  20.8006597  30.3052770  65.9769858  20.7451682  30.0986392
  56.9021083  27.1384405  22.2562910  57.4874520  26.3928092  22.3890814
  56.7045921  27.4488361  23.1399574  59.7559738  30.1735652  17.2725353
  59.0870113  30.6581780  16.7889393  59.6172608  30.4204872  18.1868731
  51.4938738  19.7090005  20.9767353  51.5322837  19.1753595  21.7704471
  50.9879030  19.1825210  20.3578331  63.8965007  32.2079395  23.8708011
  64.4483315  32.3711017  24.6357096  64.2371200  32.7983833  23.1988036
  58.8729500  14.5554545  24.4729896  58.9370826  15.4169376  24.0607293
  58.8096620  13.9428547  23.7402254  58.3481772  16.6277678  28.1202930
  58.9753811  16.2454755  28.7340454  57.4909691  16.4091880  28.4858622
  68.7475881  27.0340653  29.7256665  69.2915785  27.6470611  29.2311620
  68.1662726  27.5920231  30.2423678  55.1247315  18.4354107  14.0521285
  55.4200756  17.5264785  13.9988338  54.2235351  18.4141846  13.7302287
  67.0333394  30.1561371  20.8571693  66.9084533  29.3551111  20.3482639
  67.6912485  30.6507564  20.3685663  58.6541562  16.5110104  20.0348833
  57.9328148  17.1246071  19.8956307  59.4434818  17.0467868  19.9565479
  69.0968302  27.9570391  22.4851243  68.1498638  27.8375742  22.4129570
  69.4451075  27.0692889  22.5677505  61.4567876  13.8464530  26.3089485
  61.9802278  14.0926827  27.0715794  61.2380209  14.6784565  25.8892622
  56.8535157  16.1168205  14.1760610  56.5247863  15.2365584  13.9935716
  57.2074527  16.0615873  15.0636999  66.1014736  27.7523107  18.6855595
  65.9539698  26.8239815  18.8663165  66.9268229  27.7743198  18.2012671
  59.9676980  16.4041174  14.5436088  60.3073052  16.9327096  13.8214696
  60.4149100  16.7421581  15.3194654  69.7048857  28.5751666  19.7720468
  70.6295405  28.3694527  19.6344919  69.5364161  28.3268067  20.6809810
  62.6620421  14.7878225  23.9939156  62.3217241  13.9886038  24.3959836
  61.9559427  15.0879936  23.4215989  63.3136893  11.8727538  22.4466479
  64.1362962  11.3988016  22.3245369  63.5574956  12.6518021  22.9465165
  61.9545127  14.9015796  12.7429380  62.6753490  15.2797049  12.2393097
  61.3310431  15.6204673  12.8464358  66.0976250  15.6060945  13.6787713
  66.3139864  16.4885583  13.3776541  65.6170317  15.2147158  12.9493355
  60.8375471  18.5646658  20.2558457  60.6920052  18.8786961  21.1482739
  60.3600675  19.1831559  19.7029356  62.6971854  15.5549206  20.3039347
  62.6833423  14.6590299  19.9671645  63.4144282  15.5619870  20.9377633
  64.5497985  15.9886546  22.3492474  64.2915763  16.9103617  22.3476805
  64.0183025  15.5916981  23.0392938  69.4944174  29.0937333  15.1282560
  69.6681051  28.5283756  14.3756412  69.9873065  29.8938228  14.9462050
  55.3121133  21.1052003  23.1946118  54.7674602  21.8811811  23.3266393
  56.1900483  21.4522807  23.0365240  62.1008750  14.4363586  15.5726917
  62.2224661  13.5080233  15.7717804  61.8110793  14.4502272  14.6605232
  64.9699941  12.1218497  18.7093637  64.9921637  12.1857830  17.7545616
  65.3868000  11.2823006  18.9034143  75.3483565  21.8573756  16.7472859
  75.7914711  21.1081082  16.3491983  74.4710075  21.8483893  16.3646591
  70.4819346  28.4104098  12.2279458  71.1770251  29.0310791  12.4466773
  70.8242496  27.5599449  12.5031836  56.0987155  20.2321899  26.0876275
  55.3568891  20.3804534  26.6740906  55.7779900  20.4930164  25.2243025
  72.3810769  25.8603803  13.7566789  72.9062093  26.1991076  13.0316109
  72.2933122  24.9250819  13.5729923  64.0430818  29.7737877  25.8856665
  64.3517944  29.5287024  26.7579365  64.8406300  29.9784516  25.3975536
  64.0651430  31.9275787  18.1162042  63.6256420  31.4352165  18.8094899
  64.8159547  31.3848754  17.8754117  56.5443769  28.1187328  18.1186670
  57.3701789  27.8191099  17.7385313  56.1937821  27.3494950  18.5676459
  61.5125302  27.4713796  20.1884344  60.8905311  26.8084501  19.8886571
  62.1830169  27.4974928  19.5057991  54.7452374  26.0373654  19.0775604
  53.9084282  25.6095828  18.8959605  54.7176020  26.2306097  20.0146395
  61.5849830  15.9495584  29.7816850  61.6337985  16.8257707  29.3994619
  62.1272344  15.4072977  29.2088493  72.0704675  26.4936707  29.0617987
  71.2800219  26.4760846  28.5222486  71.8338030  27.0325001  29.8167023
  72.1902550  23.3429173  26.3750715  72.2400555  23.1779181  27.3166238
  72.0816474  22.4756432  25.9848596  61.0738809  26.0217719  13.6642804
  61.2226929  26.7053184  13.0109477  61.8805253  26.0022809  14.1792260
  69.4806313  19.3260101  27.6910022  70.3816176  19.1866566  27.3994020
  69.5554287  19.4914556  28.6308199  63.8149118  16.7026956  26.5363208
  62.9452428  16.9960522  26.2645797  64.0508598  17.2867401  27.2570472
  73.6920747  25.7626115  26.6192737  73.4005556  26.1256096  27.4556198
  73.0792879  25.0493123  26.4406069  74.8916430  23.3278995  19.1395307
  75.7263321  23.7668799  19.3032867  75.0275558  22.8517648  18.3203553
  71.9407935  20.8858730  25.0872795  72.4162057  21.0786376  24.2791646
  71.0173501  20.9417915  24.8416178  58.8291442  22.0482897  14.6703873
  58.5837484  21.1445227  14.8684083  58.9987357  22.0500047  13.7283351
  66.5188152  12.9206573  24.0528629  67.0370096  13.6567600  23.7275117
  66.1643285  13.2270566  24.8875388  66.7700746   9.3406856  19.5729525
  67.0502500   8.6730045  20.1989952  67.5551353   9.5335951  19.0604189
  64.5734215  28.5165850  11.1354552  64.0008182  29.1356037  10.6825023
  65.1467008  29.0665211  11.6694473  70.6409604  17.7624490  23.3201100
  71.5927027  17.8622587  23.3413324  70.4713055  16.9702758  23.8299185
  68.6623984  14.8480073  23.5060501  68.0673916  15.1285086  22.8106990
  68.3773681  15.3373974  24.2777242  67.7931474  28.8003000  12.2663134
  68.7262148  28.7348561  12.4696009  67.7054687  29.6359267  11.8077666
  70.4219491  28.1168870   9.2267081  70.3433123  27.7828734  10.1202839
  71.2429158  28.6090638   9.2258554  73.1197682  20.9830609  22.4343400
  73.0874002  20.0446610  22.6203084  73.7298306  21.0614646  21.7009225
  64.9581013  19.8526662   8.4770604  65.9040118  19.7232870   8.5459022
  64.5795258  19.1141324   8.9540032  73.2692171  17.7741653  22.4801683
  72.7531219  16.9900109  22.2931612  74.1532119  17.4460369  22.6448203
  70.9302898  11.5182668  18.4397496  70.7327719  11.2097757  19.3240828
  71.5402603  12.2444307  18.5695426  78.9374232  22.0446616  21.5749437
  79.6677621  21.7831904  22.1357140  78.3281178  21.3075338  21.6151505
  77.0189529  20.1854479  22.1723888  76.2922693  20.0510444  21.5640380
  76.6036816  20.4931307  22.9780606  64.8419706  23.9044408  29.9371261
  65.7622715  24.0823007  30.1311308  64.8069289  22.9600454  29.7850960
  54.0601871  19.0983002  18.8624536  53.7404655  18.2448310  18.5698910
  53.5135299  19.3131580  19.6182503  57.8381778  21.8145443  22.5794042
  58.0567788  22.7462551  22.5982076  58.2507552  21.4553418  23.3648846
  64.7585996  12.3213528  14.5669731  63.9486724  11.9760613  14.9424977
  65.4470413  12.0121072  15.1557342  66.6876544  11.3991575  16.1894027
  67.2407583  11.8187029  16.8484050  66.9246631  10.4727323  16.2316983
  62.7109644  17.3878649  31.9696791  62.6106370  18.3373006  31.9008882
  62.4931186  17.0596888  31.0972861  53.9290131  22.7185914  20.8317657
  53.2353602  22.3039866  20.3187612  54.6763122  22.7606450  20.2351076
  70.0655351  13.5092100  15.6972691  69.4854020  14.1676904  15.3150744
  69.7991284  12.6869445  15.2860109  68.5158918  12.9097158  17.8994012
  69.0158696  13.0213693  17.0908331  69.1594526  12.6058211  18.5394820
  62.5740914  20.8175788  30.7861853  62.0907995  21.6176148  30.9925742
  62.6601853  20.8283733  29.8329297  55.8426873  22.6504167  18.7083672
  55.8197561  22.7491855  17.7565555  56.1527510  23.4969318  19.0300838
  58.5014251  24.7080322  22.8230287  59.4557505  24.6764265  22.7560218
  58.3026775  24.2470946  23.6380512  59.0913633  23.2781438  25.3901084
  59.9106522  23.7725517  25.4135921  59.3650441  22.3613407  25.3618652
  68.8480229  15.6692191  14.7529040  67.9606084  15.9541841  14.5349234
  69.2634218  15.5085954  13.9056317  72.1994766  15.6938712  18.4683379
  72.9755156  16.1835164  18.7407996  71.4742900  16.1196766  18.9255248
  74.6367324  16.4066331  19.5257320  75.2311815  16.1662067  18.8150628
  74.7093908  15.6873462  20.1530856  56.8564480  30.2499942  19.8400484
  56.7218948  29.4900343  19.2738482  56.4396542  30.9740842  19.3729273
  67.9923443  25.4336865   8.8477060  68.6959293  25.6386868   9.4634715
  67.2686092  26.0013627   9.1126143  68.8221253  21.1846727  14.9679330
  68.7656455  21.6415278  14.1286962  69.3749596  20.4237411  14.7902173
  72.6326059  16.9736459  15.7929449  72.3762993  16.5733094  16.6237657
  72.0078927  17.6880253  15.6679589  76.9438397  19.7132532  18.3000741
  76.3837955  19.7825721  19.0732303  76.3381900  19.5373516  17.5800237
  60.0133606  31.1469259  20.0518927  59.8965990  32.0914691  19.9497617
  59.1926052  30.8442820  20.4404726  69.9010140  25.8719395  10.8975520
  70.7355744  25.4400593  10.7152995  69.7394483  25.7001408  11.8252414
  69.5556032  22.3751508  12.2631859  69.5004836  22.2095779  11.3220303
  68.9302088  23.0827541  12.4194049  54.3448547  17.6119572  26.0893281
  54.9907411  17.1018526  26.5780506  54.1365699  18.3488254  26.6636706
  66.8701940  24.6800420  31.5885422  67.7393099  24.8541072  31.2272057
  66.3908691  25.4994837  31.4661151  61.0388120  31.7997521  23.2674855
  61.9415367  31.8321131  23.5841350  60.8125490  30.8697972  23.2821191
  62.7941722  30.5528507  19.9284934  61.8437353  30.5530369  19.8149306
  63.0974208  29.8061242  19.4120969  66.6804277   8.4702394  16.0963114
  65.9136673   7.9160880  16.2419797  67.0914982   8.5424262  16.9577266
  58.6846038  14.7587189  30.1868295  59.5477500  14.4023994  30.3971620
  58.1111449  14.4201084  30.8743700  78.5294415  36.3889046  20.9930696
  79.1672825  36.2695793  20.2894037  78.4115258  37.3369890  21.0518649
  75.3384122  36.3416474  20.9292221  75.0002633  36.2257539  20.0412756
  76.2073890  35.9407639  20.9093227  71.1970937  38.1951950  16.9189112
  70.6335802  38.1041887  16.1505400  71.0823332  37.3751855  17.3991605
  75.8203905  37.4951326  26.8878427  75.8092545  37.1004124  26.0158930
  75.9824544  36.7617398  27.4812198  68.7435369  39.6903142  19.7573333
  69.5356661  39.3493967  19.3419632  68.9832019  39.7998117  20.6775486
  76.7770496  41.8622918  12.2303577  76.1258476  42.4476998  11.8437591
  77.5714859  42.3929113  12.2898614  70.7026123  38.9512055  12.6290711
  71.4756999  38.4041042  12.4903587  71.0551522  39.8156304  12.8405173
  72.5411166  40.2788437  25.8357611  72.2501032  41.1834068  25.7204277
  73.1768150  40.3204965  26.5501680  73.4667373  37.6565286  22.4258970
  74.0630945  37.4321308  21.7115933  73.5242344  36.9150031  23.0284418
  73.0392401  35.1104721  10.2609161  73.2917922  34.5886243   9.4992624
  72.1016960  34.9470867  10.3635845  78.0835684  34.1140500  18.0683905
  78.8698773  33.6959923  17.7174322  78.3474388  35.0186592  18.2365553
  78.2545761  39.5513350  12.7672561  77.6191594  39.6247976  13.4793466
  77.9243168  40.1406949  12.0891641  83.4844111  34.0515733  18.9716883
  84.2169283  33.4814950  19.2054713  82.7283467  33.6637333  19.4123389
  72.7588690  37.0132827  12.4633536  72.6424948  36.3377731  13.1314621
  72.8690950  36.5265201  11.6465689  75.1020231  36.4742974  16.1680225
  74.7378438  35.9473595  16.8793147  75.9587347  36.0841443  15.9946711
  81.0069531  27.7637307  23.4311492  80.6752856  28.6332718  23.2072707
  80.4115145  27.4473591  24.1105522  74.7425718  31.5032874  11.1641574
  74.9100120  32.3713110  11.5312045  74.5522887  31.6660156  10.2402863
  77.5001051  39.9649853  22.8307404  77.2001774  40.8674892  22.7223212
  77.1552110  39.6982036  23.6828557  70.9513532  36.4163650  18.8644109
  70.0264029  36.2839864  19.0721801  71.1997946  37.1957869  19.3614051
  80.8998195  32.4832393  20.5104842  79.9915072  32.4147802  20.2163603
  80.8485790  32.9604338  21.3386667  74.7214939  33.9590532  12.1488241
  74.6014564  34.4047582  12.9873721  74.0267527  34.3075849  11.5901779
  68.3122343  36.0596923  19.6987898  68.4414725  36.3131402  20.6127310
  67.6319795  36.6524631  19.3792553  72.4821831  46.7294173  15.7978372
  72.4045860  47.6801998  15.8766853  71.8783474  46.3840046  16.4553298
  74.9739060  33.9022039  28.4539739  74.1972394  34.4615959  28.4442604
  75.6129623  34.3878822  28.9754609  82.7659841  30.6848832  22.2882716
  82.1234221  30.9781365  21.6422510  82.2614770  30.5701752  23.0935912
  80.4200005  34.4312005  12.9768575  81.3317861  34.6639391  12.8016272
  79.9109652  35.0149049  12.4143653  73.2285433  36.7107492  28.0157706
  73.9700117  37.2492536  27.7392530  72.5222418  37.3373781  28.1729258
  78.7040772  38.8536633  26.6129867  79.1124128  38.4119043  25.8684500
  77.9818034  38.2789260  26.8664060  75.0571842  33.7909239  23.9863424
  75.9033038  34.2148653  24.1298073  74.9970480  33.1342864  24.6801988
  79.0269587  39.4137823  20.3682156  78.3978449  39.5783537  19.6658224
  78.6395249  39.8279433  21.1393120  82.9058819  40.3492261  17.7226520
  82.2209857  40.7291162  17.1723553  82.9902668  40.9587588  18.4558468
  78.2071288  31.4513608  25.6444598  77.9632220  32.2055668  25.1078874
  78.4831218  31.8298955  26.4791845  80.1609751  37.9952220  24.3221864
  80.3726646  38.6383980  23.6456245  80.1139499  37.1614537  23.8543794
  77.7635979  30.6070041  21.2258436  76.9020459  30.9051294  21.5175173
  77.7898414  30.8240440  20.2939468  74.5797549  39.1512231  17.6332241
  75.0435894  39.4299934  16.8436864  74.3154347  38.2495676  17.4505332
  71.4721630  38.6983713  20.5712005  72.0422987  39.1270981  19.9329489
  72.0629742  38.4166297  21.2696190  73.5166435  35.2735384  14.4421807
  74.2190478  35.7256427  14.9095733  73.1847063  34.6319202  15.0701700
  71.9646796  33.8647140  28.8173016  71.3345457  34.5463421  29.0508413
  71.8582884  33.7530222  27.8726154  67.2591769  33.5318936  19.7438940
  66.4690823  33.7876465  19.2679051  67.7503016  34.3467274  19.8490981
  81.2755578  40.8724175  22.4944221  82.0973022  40.4704363  22.2126903
  81.2717981  40.7692410  23.4460337  69.2106514  33.8963516  16.7022417
  68.4137678  34.0082210  17.2205913  68.9832106  34.2350168  15.8363307
  75.0412182  40.4208219  24.6504931  75.1056614  40.8828626  25.4863103
  74.3323106  39.7905584  24.7787241  65.5429472  33.7849427  22.1753931
  65.7937510  34.6696437  22.4411507  66.0789020  33.6054028  21.4029023
  89.3661572  37.2162924  18.8429192  88.6125280  36.6470322  18.6873197
  89.5009113  37.1825588  19.7899827  74.7560200  42.0876326  14.5183912
  74.6205874  42.9327862  14.9468760  75.2970012  42.2895604  13.7549846
  71.2427539  28.1667906  31.1798267  70.8494485  27.6134105  31.8545911
  72.0593680  28.4778485  31.5704785  68.2089597  39.6051764  15.0911837
  68.7214118  40.3995015  15.2417402  68.8612310  38.9078055  15.0245438
  70.0184482  42.7217521  17.1734590  70.1951110  43.6435485  16.9855574
  70.8141315  42.4075940  17.6028970  74.1595500  29.5825785  28.7718524
  74.9005214  30.1832938  28.6922986  74.3913423  28.8403423  28.2136566
  69.3036838  34.7682152  27.0496753  69.1890353  33.8667410  27.3503852
  68.4481356  35.0145849  26.6981570  76.3828676  42.7099893  28.6484254
  75.9392530  41.9236271  28.3305158  77.0445890  42.8979043  27.9828145
  71.1415797  44.2395694  23.1744932  71.6923222  44.1112758  22.4021926
  70.3027273  44.5390583  22.8239825  78.4809914  42.9902693  26.6765655
  78.4628389  43.8111574  26.1845924  79.4029834  42.8656768  26.9015796
  74.9382968  40.5046822  27.5189163  75.4711305  39.7435110  27.2888471
  74.4097049  40.2120474  28.2613318  78.1052663  25.6106888  23.0482805
  77.7616933  26.5008530  22.9721916  78.4731626  25.4208546  22.1852390
  66.1738514  37.9340419  15.8671407  67.0113736  38.3437427  15.6505115
  66.3516781  36.9939861  15.8371601  78.0702946  35.6015499  11.5555240
  77.5549569  36.3720104  11.7943628  77.7980254  34.9280635  12.1788302
  75.6550057  30.4465200  16.6140479  74.7991653  30.0572050  16.4346117
  76.0677009  30.5257161  15.7540264  77.1849204  27.9811543  21.0132038
  76.6813999  27.9441678  20.1999844  77.4779810  28.8904286  21.0728695
  73.4292089  28.0650273  20.0198220  74.2945086  27.8693082  19.6604110
  73.4969598  27.8360625  20.9467577  83.0437220  38.3547854  13.4908414
  82.2666663  38.0159013  13.0463576  83.7228701  38.3600477  12.8163379
  77.8589249  33.4742591  13.3815022  77.5539385  33.7888740  14.2325165
  78.8119691  33.5524011  13.4242355  76.3035681  39.6332815  15.0307976
  75.7757042  38.8985574  14.7181213  75.8023184  40.4107491  14.7847944
  81.2828527  37.8281835  20.1475022  80.6252201  38.5181097  20.2355150
  82.0868926  38.2178267  20.4909008  71.0354408  30.2952481  17.3914587
  71.6098160  30.0727662  16.6587780  71.6225391  30.3641175  18.1443188
  80.0933986  36.1826208  18.1978964  80.6065867  36.8156200  18.7000673
  80.7435210  35.5827403  17.8322324  71.3623996  32.3256942  11.4110472
  70.5261308  32.6631628  11.7319747  71.2228765  32.1905922  10.4737609
  73.3377076  27.1693730  16.1189656  72.6841489  26.8542747  15.4946271
  73.2957550  26.5469470  16.8449479  74.4488281  37.4513025   8.0342949
  73.5415343  37.2202278   8.2334098  74.9459313  36.6550644   8.2216930
  77.3556360  46.1610532  10.9539635  76.6818059  46.4642229  11.5624593
  77.7422182  46.9639612  10.6045092  76.5714817  33.6575663  20.4437304
  75.6537378  33.8790610  20.2858992  76.9874960  33.7321974  19.5849011
  77.3549864  35.0567079  15.5739984  78.1021683  35.5688476  15.2647106
  77.6241454  34.7351132  16.4344378  75.6276515  37.5525620  12.5566939
  74.7187734  37.2684653  12.6539408  75.6571598  37.9724698  11.6970245
  80.8595782  41.1632209  16.3258106  80.4058109  40.3223119  16.3823297
  80.2289749  41.7993608  16.6632886  79.8028701  32.0924195  17.5558774
  79.0651458  31.5801581  17.8869016  80.0555475  31.6524577  16.7442051
  79.3028721  43.0008706  17.2607924  79.5951696  43.5613763  16.5420290
  79.8127342  43.2937267  18.0161083  79.9040329  24.8700447  18.1500543
  80.2099206  24.0097811  17.8626458  80.6292934  25.4618067  17.9499537
  66.1964685  35.2731134  16.5382141  65.9989085  34.6800495  15.8133207
  65.6411349  34.9683344  17.2558080  74.1761409  35.1654240  18.6576734
  74.2310018  34.2128077  18.5819211  73.3652611  35.3213679  19.1418032
  75.3252602  39.0934363   9.8955017  74.8872032  38.3770222   9.4360655
  76.0663043  39.3210478   9.3340109  72.1153768  33.7831300  16.4167113
  71.3021634  34.0825471  16.8232305  72.6112763  33.3886989  17.1341595
  74.2662346  43.7789057  18.3501378  74.2238525  44.0049903  17.4209910
  75.1825045  43.5452432  18.4987179  77.7127980  34.2473125  25.2482007
  78.0677368  34.4744598  26.1076473  78.3600111  34.5791501  24.6259262
  83.4425717  37.3691560  15.9531336  83.3043616  37.5593156  15.0252525
  83.0861936  38.1310943  16.4099387  71.6067843  31.3549656  22.0328348
  72.2467223  31.2138415  21.3351311  70.7745374  31.0684169  21.6566950
  83.4695097  39.4368087  20.9642607  83.9031603  39.3443377  21.8125661
  84.1826677  39.4125588  20.3262623  72.3828147  40.6552086  18.1463340
  73.1768746  40.1602406  17.9445915  71.6719840  40.1269949  17.7831046
  77.2022992  43.0370182  22.4975708  77.2560014  43.6061118  23.2653424
  76.3337773  43.2072067  22.1329745  68.6910911  34.7995168  14.2223093
  67.7608499  34.7379623  14.4393055  68.7868383  34.2771121  13.4259734
  68.6096460  31.3249981  16.8101335  68.8703277  32.2395314  16.7010495
  69.4313632  30.8574423  16.9597947  70.0821385  32.7387738  23.9800159
  70.7544438  32.5305100  23.3312808  69.2551172  32.5409824  23.5405391
  84.3310646  39.4791788  23.4975493  84.5246536  40.3837599  23.7434768
  84.2311264  39.0199207  24.3314078  75.9846957  29.3649679  25.9965820
  75.3374872  30.0639628  25.9030296  76.7547972  29.7985823  26.3642068
  79.3925755  39.6298531  29.0716373  79.2411261  39.4009083  28.1546457
  79.3830434  40.5869132  29.0847718  76.1611091  37.2030444  24.0562640
  77.0903151  37.3541603  23.8831607  75.7402121  37.2914464  23.2011286
  74.9599423  41.2281108  21.8261177  74.8210509  40.8599892  22.6987115
  74.1714019  41.7428747  21.6545135  75.5547575  46.3290205  13.1686714
  75.7299331  45.8578248  13.9832337  74.8680363  46.9555971  13.3967975
  76.5104638  40.6062711  19.2150015  76.1754471  40.5663481  20.1107665
  76.0108584  39.9407427  18.7420425  70.4848882  36.0130341  24.7402596
  70.3468680  35.2810580  25.3414135  71.3953806  35.9239241  24.4586784
  79.4463830  37.9518745   9.4887075  78.8293001  37.2265573   9.3920127
  78.9780318  38.7128105   9.1454149  73.1131183  35.7250300  24.2286276
  73.8230801  35.0843492  24.1872894  73.0700491  35.9763195  25.1512457
  81.1017962  42.6617653  27.1492855  81.0430508  41.9776874  26.4823438
  81.5037480  43.4036643  26.6973481  71.8260117  32.7115518  26.0481915
  71.2897474  32.2606256  26.7003512  71.2376825  32.8461427  25.3052380
  70.1208660  49.4779567  19.9426574  70.3605259  50.1098091  20.6205593
  69.2777857  49.1267607  20.2291933  71.2362376  32.1704169   8.6108379
  70.3591842  32.0492970   8.2470626  71.7120129  31.3790248   8.3587268
  81.1035369  40.6257237  25.3806835  80.2162148  40.2883159  25.5033234
  81.6733920  39.8940269  25.6175600  62.7564516  36.9581329  18.7049886
  63.4435556  36.6443059  18.1170902  62.6012645  37.8622694  18.4317138
  67.5599238  31.8471526  23.1334910  67.4757427  31.2397195  22.3985320
  66.7381945  32.3380544  23.1344406  74.6336522  45.2858690  22.3468078
  74.5606694  46.0913661  22.8587383  74.1913915  45.4850656  21.5216099
  74.4226302  44.5230460  15.8570900  73.6393824  45.0652140  15.9509124
  75.1219047  45.0404439  16.2565141  77.7322952  30.3325089  18.5005105
  78.2291652  29.5795052  18.1806175  76.9609933  30.3689406  17.9348314
  85.5852709  36.0365455  20.1423396  85.5742586  36.9190170  19.7717330
  84.7170089  35.6837006  19.9477934  77.0935206  45.1845524  24.5026237
  77.8063178  45.8192989  24.4302138  76.6025234  45.2809390  23.6866239
  78.8152733  39.0896776  16.0743528  77.8809011  39.2098239  15.9048233
  78.9929401  38.1869243  15.8103538  74.3157921  32.4742472  18.2276790
  73.9455708  31.9213513  18.9157695  74.8117013  31.8700606  17.6751790
  82.2025284  34.9314096  16.6093563  82.6685736  35.7642087  16.5353865
  82.6532785  34.4659077  17.3138821  72.1447119  42.9339967  25.3231808
  72.8456579  43.5676450  25.4761202  71.6742234  43.2754699  24.5627447
  80.2701515  41.2757917  13.6079715  80.5461359  41.1614512  14.5173589
  79.4006014  40.8775402  13.5691888  80.1741947  27.2994683  20.6484464
  79.2605027  27.5298910  20.8166671  80.6035048  27.3833127  21.4998496
  79.9448405  35.4884575  23.1484358  79.2919855  35.7360482  22.4936811
  80.3228785  34.6748713  22.8146835  76.9055579  45.5244268  17.2512528
  77.0877974  44.7065924  17.7140281  77.7288565  45.7411960  16.8137418
  77.2397745  44.4512453  14.5127577  77.7685511  43.9404908  13.8997739
  77.5025964  44.1354983  15.3773110  75.9935978  36.2304386  29.6350395
  75.3176615  36.1298515  30.3052770  76.8163612  36.0743599  30.0986392
  67.7414837  42.4676322  22.2562910  68.3268274  41.7220010  22.3890814
  67.5439676  42.7780279  23.1399574  70.5953493  45.5027570  17.2725353
  69.9263868  45.9873697  16.7889393  70.4566362  45.7496790  18.1868731
  62.3332492  35.0381922  20.9767353  62.3716592  34.5045513  21.7704471
  61.8272785  34.5117128  20.3578331  74.7358761  47.5371313  23.8708011
  75.2877069  47.7002935  24.6357096  75.0764955  48.1275751  23.1988036
  69.7123254  29.8846463  24.4729896  69.7764581  30.7461294  24.0607293
  69.6490375  29.2720465  23.7402254  69.1875527  31.9569596  28.1202930
  69.8147566  31.5746673  28.7340454  68.3303446  31.7383797  28.4858622
  79.5869635  42.3632571  29.7256665  80.1309539  42.9762529  29.2311620
  79.0056480  42.9212149  30.2423678  65.9641070  33.7646025  14.0521285
  66.2594511  32.8556703  13.9988338  65.0629105  33.7433764  13.7302287
  77.8727148  45.4853289  20.8571693  77.7478288  44.6843029  20.3482639
  78.5306240  45.9799482  20.3685663  69.4935317  31.8402021  20.0348833
  68.7721902  32.4537989  19.8956307  70.2828572  32.3759786  19.9565479
  79.9362057  43.2862309  22.4851243  78.9892392  43.1667660  22.4129570
  80.2844830  42.3984807  22.5677505  72.2961630  29.1756448  26.3089485
  72.8196032  29.4218744  27.0715794  72.0773963  30.0076483  25.8892622
  67.6928911  31.4460122  14.1760610  67.3641617  30.5657501  13.9935716
  68.0468282  31.3907791  15.0636999  76.9408490  43.0815025  18.6855595
  76.7933453  42.1531732  18.8663165  77.7661984  43.1035116  18.2012671
  70.8070734  31.7333092  14.5436088  71.1466807  32.2619013  13.8214696
  71.2542855  32.0713498  15.3194654  80.5442612  43.9043584  19.7720468
  81.4689159  43.6986445  19.6344919  80.3757915  43.6559985  20.6809810
  73.5014175  30.1170143  23.9939156  73.1610996  29.3177956  24.3959836
  72.7953182  30.4171854  23.4215989  74.1530647  27.2019455  22.4466479
  74.9756716  26.7279933  22.3245369  74.3968711  27.9809939  22.9465165
  72.7938882  30.2307714  12.7429380  73.5147244  30.6088966  12.2393097
  72.1704186  30.9496590  12.8464358  76.9370004  30.9352863  13.6787713
  77.1533619  31.8177501  13.3776541  76.4564072  30.5439076  12.9493355
  71.6769226  33.8938576  20.2558457  71.5313807  34.2078879  21.1482739
  71.1994429  34.5123476  19.7029356  73.5365609  30.8841124  20.3039347
  73.5227177  29.9882217  19.9671645  74.2538037  30.8911788  20.9377633
  75.3891739  31.3178464  22.3492474  75.1309517  32.2395535  22.3476805
  74.8576780  30.9208899  23.0392938  80.3337928  44.4229251  15.1282560
  80.5074806  43.8575674  14.3756412  80.8266819  45.2230146  14.9462050
  66.1514888  36.4343920  23.1946118  65.6068356  37.2103728  23.3266393
  67.0294238  36.7814725  23.0365240  72.9402505  29.7655504  15.5726917
  73.0618416  28.8372150  15.7717804  72.6504547  29.7794190  14.6605232
  75.8093695  27.4510415  18.7093637  75.8315392  27.5149748  17.7545616
  76.2261754  26.6114923  18.9034143  86.1877319  37.1865674  16.7472859
  86.6308465  36.4372999  16.3491983  85.3103830  37.1775810  16.3646591
  81.3213101  43.7396016  12.2279458  82.0164005  44.3602708  12.4466773
  81.6636251  42.8891367  12.5031836  66.9380910  35.5613817  26.0876275
  66.1962646  35.7096452  26.6740906  66.6173654  35.8222082  25.2243025
  83.2204524  41.1895721  13.7566789  83.7455848  41.5282994  13.0316109
  83.1326876  40.2542736  13.5729923  74.8824572  45.1029795  25.8856665
  75.1911699  44.8578942  26.7579365  75.6800055  45.3076433  25.3975536
  74.9045185  47.2567704  18.1162042  74.4650175  46.7644083  18.8094899
  75.6553301  46.7140672  17.8754117  67.3837524  43.4479245  18.1186670
  68.2095543  43.1483017  17.7385313  67.0331576  42.6786868  18.5676459
  72.3519057  42.8005713  20.1884344  71.7299066  42.1376418  19.8886571
  73.0223924  42.8266845  19.5057991  65.5846129  41.3665572  19.0775604
  64.7478037  40.9387746  18.8959605  65.5569774  41.5598015  20.0146395
  72.4243584  31.2787501  29.7816850  72.4731740  32.1549624  29.3994619
  72.9666098  30.7364895  29.2088493  82.9098430  41.8228625  29.0617987
  82.1193974  41.8052764  28.5222486  82.6731784  42.3616918  29.8167023
  83.0296305  38.6721091  26.3750715  83.0794310  38.5071099  27.3166238
  82.9210228  37.8048350  25.9848596  71.9132564  41.3509637  13.6642804
  72.0620684  42.0345101  13.0109477  72.7199007  41.3314727  14.1792260
  80.3200067  34.6552019  27.6910022  81.2209930  34.5158484  27.3994020
  80.3948042  34.8206474  28.6308199  74.6542873  32.0318874  26.5363208
  73.7846182  32.3252440  26.2645797  74.8902353  32.6159319  27.2570472
  84.5314502  41.0918033  26.6192737  84.2399310  41.4548013  27.4556198
  83.9186633  40.3785041  26.4406069  85.7310184  38.6570912  19.1395307
  86.5657075  39.0960716  19.3032867  85.8669313  38.1809566  18.3203553
  82.7801690  36.2150647  25.0872795  83.2555812  36.4078294  24.2791646
  81.8567255  36.2709833  24.8416178  69.6685197  37.3774814  14.6703873
  69.4231239  36.4737144  14.8684083  69.8381111  37.3791965  13.7283351
  77.3581906  28.2498491  24.0528629  77.8763850  28.9859518  23.7275117
  77.0037039  28.5562484  24.8875388  68.9380844  33.1103172  12.1690034
  68.2450089  33.1847527  11.5130070  68.6932596  32.3463516  12.6911551
  77.6094501  24.6698773  19.5729525  77.8896254  24.0021962  20.1989952
  78.3945108  24.8627869  19.0604189  75.4127969  43.8457767  11.1354552
  74.8401936  44.4647954  10.6825023  75.9860763  44.3957129  11.6694473
  81.4803359  33.0916407  23.3201100  82.4320782  33.1914505  23.3413324
  81.3106809  32.2994676  23.8299185  79.5017738  30.1771991  23.5060501
  78.9067671  30.4577003  22.8106990  79.2167435  30.6665891  24.2777242
  78.6325229  44.1294917  12.2663134  79.5655902  44.0640479  12.4696009
  78.5448442  44.9651184  11.8077666  81.2613246  43.4460788   9.2267081
  81.1826877  43.1120651  10.1202839  82.0822912  43.9382556   9.2258554
  83.9591437  36.3122527  22.4343400  83.9267757  35.3738528  22.6203084
  84.5692060  36.3906564  21.7009225  75.7974768  35.1818580   8.4770604
  76.7433872  35.0524788   8.5459022  75.4189013  34.4433242   8.9540032
  84.1085925  33.1033570  22.4801683  83.5924974  32.3192027  22.2931612
  84.9925874  32.7752287  22.6448203  81.7696652  26.8474586  18.4397496
  81.5721473  26.5389674  19.3240828  82.3796358  27.5736225  18.5695426
  89.7767987  37.3738534  21.5749437  90.5071375  37.1123822  22.1357140
  89.1674932  36.6367256  21.6151505  87.8583284  35.5146396  22.1723888
  87.1316447  35.3802361  21.5640380  87.4430571  35.8223225  22.9780606
  75.6813460  39.2336326  29.9371261  76.6016470  39.4114925  30.1311308
  75.6463043  38.2892372  29.7850960  73.9817685  33.1068556   8.4125489
  73.0749140  32.8101669   8.4888203  74.2593666  32.8098374   7.5459775
  64.8995625  34.4274920  18.8624536  64.5798409  33.5740228  18.5698910
  64.3529053  34.6423498  19.6182503  68.6775533  37.1437361  22.5794042
  68.8961542  38.0754469  22.5982076  69.0901307  36.7845335  23.3648846
  75.5979750  27.6505446  14.5669731  74.7880479  27.3052531  14.9424977
  76.2864167  27.3412990  15.1557342  77.5270299  26.7283493  16.1894027
  78.0801337  27.1478946  16.8484050  77.7640385  25.8019241  16.2316983
  73.5503398  32.7170567  31.9696791  73.4500125  33.6664924  31.9008882
  73.3324940  32.3888805  31.0972861  72.7516469  29.9655492   8.5537468
  73.6135633  30.2910390   8.8133286  72.9366814  29.1786988   8.0410534
  64.7683885  38.0477831  20.8317657  64.0747357  37.6331784  20.3187612
  65.5156876  38.0898368  20.2351076  80.9049106  28.8384018  15.6972691
  80.3247775  29.4968822  15.3150744  80.6385039  28.0161363  15.2860109
  79.3552672  28.2389076  17.8994012  79.8552451  28.3505610  17.0908331
  79.9988280  27.9350129  18.5394820  73.4134668  36.1467705  30.7861853
  72.9301750  36.9468066  30.9925742  73.4995607  36.1575650  29.8329297
  66.6820628  37.9796085  18.7083672  66.6591316  38.0783772  17.7565555
  66.9921264  38.8261236  19.0300838  69.3408006  40.0372240  22.8230287
  70.2951259  40.0056182  22.7560218  69.1420529  39.5762864  23.6380512
  69.9307388  38.6073356  25.3901084  70.7500277  39.1017435  25.4135921
  70.2044195  37.6905324  25.3618652  79.6873984  30.9984108  14.7529040
  78.7999839  31.2833759  14.5349234  80.1027973  30.8377872  13.9056317
  83.0388520  31.0230629  18.4683379  83.8148910  31.5127082  18.7407996
  82.3136654  31.4488684  18.9255248  85.4761079  31.7358249  19.5257320
  86.0705569  31.4953985  18.8150628  85.5487662  31.0165379  20.1530856
  67.6958234  45.5791860  19.8400484  67.5612702  44.8192260  19.2738482
  67.2790297  46.3032759  19.3729273  78.8317197  40.7628783   8.8477060
  79.5353047  40.9678786   9.4634715  78.1079846  41.3305545   9.1126143
  79.6615008  36.5138644  14.9679330  79.6050209  36.9707196  14.1286962
  80.2143350  35.7529329  14.7902173  83.4719814  32.3028376  15.7929449
  83.2156748  31.9025012  16.6237657  82.8472682  33.0172170  15.6679589
  87.7832151  35.0424450  18.3000741  87.2231709  35.1117639  19.0732303
  87.1775655  34.8665434  17.5800237  70.8527360  46.4761177  20.0518927
  70.7359744  47.4206609  19.9497617  70.0319806  46.1734738  20.4404726
  80.7403895  41.2011312  10.8975520  81.5749499  40.7692511  10.7152995
  80.5788238  41.0293326  11.8252414  80.3949787  37.7043426  12.2631859
  80.3398591  37.5387697  11.3220303  79.7695842  38.4119459  12.4194049
  65.1842302  32.9411490  26.0893281  65.8301166  32.4310444  26.5780506
  64.9759453  33.6780172  26.6636706  77.7095694  40.0092338  31.5885422
  78.5786854  40.1832990  31.2272057  77.2302446  40.8286754  31.4661151
  73.7045912  27.2051535  11.8417177  73.6924582  28.1493375  11.9985448
  74.5969334  27.0221680  11.5476639  71.8781874  47.1289439  23.2674855
  72.7809121  47.1613049  23.5841350  71.6519244  46.1989889  23.2821191
  73.6335476  45.8820425  19.9284934  72.6831107  45.8822287  19.8149306
  73.9367963  45.1353160  19.4120969  77.5198032  23.7994311  16.0963114
  76.7530428  23.2452798  16.2419797  77.9308737  23.8716180  16.9577266
  69.5239793  30.0879107  30.1868295  70.3871254  29.7315912  30.3971620
  68.9505204  29.7493002  30.8743700  89.3688170  51.7180963  20.9930696
  90.0066580  51.5987711  20.2894037  89.2509013  52.6661807  21.0518649
  86.1777876  51.6708392  20.9292221  85.8396388  51.5549456  20.0412756
  87.0467644  51.2699557  20.9093227  82.0364692  53.5243868  16.9189112
  81.4729557  53.4333805  16.1505400  81.9217087  52.7043772  17.3991605
  86.6597659  52.8243243  26.8878427  86.6486300  52.4296042  26.0158930
  86.8218299  52.0909316  27.4812198  79.5829124  55.0195060  19.7573333
  80.3750416  54.6785884  19.3419632  79.8225774  55.1290035  20.6775486
  87.6164251  57.1914836  12.2303577  86.9652230  57.7768916  11.8437591
  88.4108613  57.7221031  12.2898614  81.5419878  54.2803973  12.6290711
  82.3150754  53.7332960  12.4903587  81.8945277  55.1448222  12.8405173
  83.3804920  55.6080355  25.8357611  83.0894786  56.5125986  25.7204277
  84.0161905  55.6496883  26.5501680  84.3061127  52.9857204  22.4258970
  84.9024699  52.7613226  21.7115933  84.3636099  52.2441949  23.0284418
  83.8786156  50.4396639  10.2609161  84.1311676  49.9178160   9.4992624
  82.9410715  50.2762784  10.3635845  88.9229438  49.4432417  18.0683905
  89.7092528  49.0251840  17.7174322  89.1868143  50.3478509  18.2365553
  89.0939516  54.8805268  12.7672561  88.4585349  54.9539894  13.4793466
  88.7636922  55.4698866  12.0891641  94.3237865  49.3807651  18.9716883
  95.0563037  48.8106867  19.2054713  93.5677221  48.9929251  19.4123389
  83.5982444  52.3424745  12.4633536  83.4818702  51.6669648  13.1314621
  83.7084704  51.8557119  11.6465689  85.9413985  51.8034892  16.1680225
  85.5772192  51.2765513  16.8793147  86.7981101  51.4133361  15.9946711
  91.8463286  43.0929225  23.4311492  91.5146611  43.9624636  23.2072707
  91.2508899  42.7765509  24.1105522  85.5819472  46.8324792  11.1641574
  85.7493875  47.7005028  11.5312045  85.3916641  46.9952073  10.2402863
  88.3394805  55.2941771  22.8307404  88.0395528  56.1966809  22.7223212
  87.9945865  55.0273954  23.6828557  81.7907287  51.7455567  18.8644109
  80.8657783  51.6131782  19.0721801  82.0391700  52.5249787  19.3614051
  91.7391949  47.8124311  20.5104842  90.8308826  47.7439719  20.2163603
  91.6879545  48.2896256  21.3386667  85.5608693  49.2882449  12.1488241
  85.4408318  49.7339500  12.9873721  84.8661281  49.6367767  11.5901779
  79.1516098  51.3888841  19.6987898  79.2808479  51.6423320  20.6127310
  78.4713549  51.9816549  19.3792553  83.3215585  62.0586091  15.7978372
  83.2439615  63.0093916  15.8766853  82.7177229  61.7131963  16.4553298
  85.8132815  49.2313956  28.4539739  85.0366149  49.7907877  28.4442604
  86.4523378  49.7170739  28.9754609  93.6053596  46.0140749  22.2882716
  92.9627976  46.3073282  21.6422510  93.1008524  45.8993670  23.0935912
  91.2593759  49.7603922  12.9768575  92.1711615  49.9931309  12.8016272
  90.7503406  50.3440967  12.4143653  84.0679187  52.0399410  28.0157706
  84.8093872  52.5784454  27.7392530  83.3616173  52.6665698  28.1729258
  89.5434527  54.1828550  26.6129867  89.9517883  53.7410961  25.8684500
  88.8211788  53.6081178  26.8664060  85.8965597  49.1201157  23.9863424
  86.7426792  49.5440571  24.1298073  85.8364235  48.4634781  24.6801988
  89.8663342  54.7429741  20.3682156  89.2372204  54.9075455  19.6658224
  89.4789004  55.1571350  21.1393120  93.7452573  55.6784179  17.7226520
  93.0603612  56.0583080  17.1723553  93.8296423  56.2879505  18.4558468
  89.0465042  46.7805525  25.6444598  88.8025974  47.5347586  25.1078874
  89.3224973  47.1590873  26.4791845  91.0003505  53.3244138  24.3221864
  91.2120400  53.9675898  23.6456245  90.9533253  52.4906454  23.8543794
  88.6029734  45.9361958  21.2258436  87.7414213  46.2343212  21.5175173
  88.6292169  46.1532357  20.2939468  85.4191303  54.4804149  17.6332241
  85.8829649  54.7591852  16.8436864  85.1548101  53.5787593  17.4505332
  82.3115384  54.0275630  20.5712005  82.8816742  54.4562899  19.9329489
  82.9023496  53.7458215  21.2696190  84.3560189  50.6027301  14.4421807
  85.0584233  51.0548345  14.9095733  84.0240818  49.9611120  15.0701700
  82.8040551  49.1939058  28.8173016  82.1739212  49.8755339  29.0508413
  82.6976639  49.0822140  27.8726154  78.0985523  48.8610854  19.7438940
  77.3084577  49.1168382  19.2679051  78.5896771  49.6759192  19.8490981
  92.1149333  56.2016093  22.4944221  92.9366777  55.7996280  22.2126903
  92.1111736  56.0984327  23.4460337  80.0500269  49.2255433  16.7022417
  79.2531432  49.3374127  17.2205913  79.8225861  49.5642085  15.8363307
  85.8805936  55.7500136  24.6504931  85.9450369  56.2120544  25.4863103
  85.1716860  55.1197501  24.7787241  76.3823226  49.1141344  22.1753931
  76.6331265  49.9988354  22.4411507  76.9182775  48.9345946  21.4029023
 100.2055326  52.5454842  18.8429192  99.4519034  51.9762240  18.6873197
 100.3402867  52.5117506  19.7899827  85.5953954  57.4168244  14.5183912
  85.4599629  58.2619780  14.9468760  86.1363767  57.6187522  13.7549846
  82.0821294  43.4959824  31.1798267  81.6888239  42.9426022  31.8545911
  82.8987434  43.8070402  31.5704785  79.0483351  54.9343682  15.0911837
  79.5607872  55.7286932  15.2417402  79.7006064  54.2369972  15.0245438
  80.8578236  58.0509438  17.1734590  81.0344864  58.9727403  16.9855574
  81.6535070  57.7367857  17.6028970  84.9989255  44.9117703  28.7718524
  85.7398968  45.5124856  28.6922986  85.2307178  44.1695341  28.2136566
  80.1430593  50.0974070  27.0496753  80.0284108  49.1959327  27.3503852
  79.2875110  50.3437767  26.6981570  87.2222430  58.0391810  28.6484254
  86.7786285  57.2528189  28.3305158  87.8839644  58.2270961  27.9828145
  81.9809552  59.5687612  23.1744932  82.5316977  59.4404675  22.4021926
  81.1421028  59.8682501  22.8239825  89.3203669  58.3194610  26.6765655
  89.3022144  59.1403491  26.1845924  90.2423589  58.1948686  26.9015796
  85.7776723  55.8338740  27.5189163  86.3105059  55.0727028  27.2888471
  85.2490804  55.5412392  28.2613318  88.9446418  40.9398806  23.0482805
  88.6010687  41.8300447  22.9721916  89.3125380  40.7500463  22.1852390
  77.0132268  53.2632336  15.8671407  77.8507490  53.6729345  15.6505115
  77.1910536  52.3231778  15.8371601  88.9096700  50.9307417  11.5555240
  88.3943324  51.7012022  11.7943628  88.6374009  50.2572553  12.1788302
  86.4943811  45.7757118  16.6140479  85.6385408  45.3863968  16.4346117
  86.9070763  45.8549078  15.7540264  88.0242958  43.3103461  21.0132038
  87.5207754  43.2733596  20.1999844  88.3173565  44.2196204  21.0728695
  84.2685844  43.3942191  20.0198220  85.1338841  43.1984999  19.6604110
  84.3363353  43.1652542  20.9467577  93.8830974  53.6839772  13.4908414
  93.1060417  53.3450931  13.0463576  94.5622455  53.6892395  12.8163379
  88.6983004  48.8034509  13.3815022  88.3933139  49.1180658  14.2325165
  89.6513446  48.8815929  13.4242355  87.1429435  54.9624732  15.0307976
  86.6150797  54.2277492  14.7181213  86.6416938  55.7399409  14.7847944
  92.1222281  53.1573753  20.1475022  91.4645956  53.8473014  20.2355150
  92.9262681  53.5470185  20.4909008  81.8748163  45.6244399  17.3914587
  82.4491915  45.4019580  16.6587780  82.4619145  45.6933093  18.1443188
  90.9327740  51.5118125  18.1978964  91.4459622  52.1448117  18.7000673
  91.5828964  50.9119321  17.8322324  82.2017750  47.6548860  11.4110472
  81.3655062  47.9923546  11.7319747  82.0622520  47.5197839  10.4737609
  84.1770831  42.4985647  16.1189656  83.5235243  42.1834665  15.4946271
  84.1351305  41.8761388  16.8449479  85.2882036  52.7804943   8.0342949
  84.3809097  52.5494196   8.2334098  85.7853068  51.9842562   8.2216930
  88.1950114  61.4902450  10.9539635  87.5211813  61.7934147  11.5624593
  88.5815936  62.2931530  10.6045092  87.4108571  48.9867581  20.4437304
  86.4931132  49.2082528  20.2858992  87.8268715  49.0613892  19.5849011
  88.1943619  50.3858997  15.5739984  88.9415438  50.8980394  15.2647106
  88.4635208  50.0643049  16.4344378  86.4670269  52.8817537  12.5566939
  85.5581488  52.5976570  12.6539408  86.4965353  53.3016616  11.6970245
  91.6989536  56.4924127  16.3258106  91.2451864  55.6515037  16.3823297
  91.0683503  57.1285525  16.6632886  90.6422456  47.4216113  17.5558774
  89.9045213  46.9093499  17.8869016  90.8949230  46.9816495  16.7442051
  90.1422476  58.3300624  17.2607924  90.4345450  58.8905681  16.5420290
  90.6521096  58.6229185  18.0161083  90.7434083  40.1992365  18.1500543
  91.0492960  39.3389728  17.8626458  91.4686688  40.7909985  17.9499537
  77.0358439  50.6023052  16.5382141  76.8382839  50.0092412  15.8133207
  76.4805103  50.2975262  17.2558080  85.0155163  50.4946158  18.6576734
  85.0703773  49.5419994  18.5819211  84.2046365  50.6505597  19.1418032
  86.1646357  54.4226281   9.8955017  85.7265787  53.7062140   9.4360655
  86.9056798  54.6502396   9.3340109  82.9547523  49.1123218  16.4167113
  82.1415388  49.4117388  16.8232305  83.4506517  48.7178907  17.1341595
  85.1056101  59.1080975  18.3501378  85.0632280  59.3341821  17.4209910
  86.0218800  58.8744349  18.4987179  88.5521735  49.5765042  25.2482007
  88.9071122  49.8036515  26.1076473  89.1993866  49.9083419  24.6259262
  94.2819472  52.6983478  15.9531336  94.1437370  52.8885074  15.0252525
  93.9255690  53.4602861  16.4099387  82.4461598  46.6841573  22.0328348
  83.0860977  46.5430332  21.3351311  81.6139128  46.3976087  21.6566950
  94.3088851  54.7660005  20.9642607  94.7425358  54.6735294  21.8125661
  95.0220432  54.7417506  20.3262623  83.2221902  55.9844004  18.1463340
  84.0162500  55.4894324  17.9445915  82.5113594  55.4561867  17.7831046
  88.0416746  58.3662099  22.4975708  88.0953768  58.9353036  23.2653424
  87.1731527  58.5363984  22.1329745  79.5304665  50.1287085  14.2223093
  78.6002253  50.0671541  14.4393055  79.6262137  49.6063038  13.4259734
  79.4490214  46.6541898  16.8101335  79.7097031  47.5687232  16.7010495
  80.2707386  46.1866341  16.9597947  80.9215139  48.0679655  23.9800159
  81.5938193  47.8597018  23.3312808  80.0944926  47.8701741  23.5405391
  95.1704401  54.8083706  23.4975493  95.3640291  55.7129516  23.7434768
  95.0705019  54.3491125  24.3314078  86.8240711  44.6941596  25.9965820
  86.1768627  45.3931546  25.9030296  87.5941727  45.1277740  26.3642068
  90.2319509  54.9590449  29.0716373  90.0805016  54.7301000  28.1546457
  90.2224189  55.9161050  29.0847718  87.0004846  52.5322361  24.0562640
  87.9296906  52.6833521  23.8831607  86.5795876  52.6206382  23.2011286
  85.7993178  56.5573026  21.8261177  85.6604263  56.1891810  22.6987115
  85.0107774  57.0720665  21.6545135  86.3941330  61.6582122  13.1686714
  86.5693085  61.1870165  13.9832337  85.7074118  62.2847888  13.3967975
  87.3498393  55.9354628  19.2150015  87.0148225  55.8955398  20.1107665
  86.8502338  55.2699344  18.7420425  81.3242637  51.3422258  24.7402596
  81.1862435  50.6102497  25.3414135  82.2347560  51.2531159  24.4586784
  90.2857584  53.2810663   9.4887075  89.6686755  52.5557491   9.3920127
  89.8174073  54.0420023   9.1454149  83.9524937  51.0542218  24.2286276
  84.6624556  50.4135410  24.1872894  83.9094246  51.3055113  25.1512457
  91.9411716  57.9909571  27.1492855  91.8824262  57.3068791  26.4823438
  92.3431234  58.7328561  26.6973481  82.6653871  48.0407436  26.0481915
  82.1291228  47.5898174  26.7003512  82.0770580  48.1753344  25.3052380
  80.9602415  64.8071485  19.9426574  81.1999013  65.4390009  20.6205593
  80.1171611  64.4559525  20.2291933  82.0756130  47.4996087   8.6108379
  81.1985597  47.3784888   8.2470626  82.5513883  46.7082165   8.3587268
  91.9429123  55.9549155  25.3806835  91.0555902  55.6175077  25.5033234
  92.5127674  55.2232186  25.6175600  73.5958270  52.2873247  18.7049886
  74.2829310  51.9734977  18.1170902  73.4406399  53.1914611  18.4317138
  78.3992993  47.1763443  23.1334910  78.3151181  46.5689113  22.3985320
  77.5775699  47.6672462  23.1344406  85.4730277  60.6150607  22.3468078
  85.4000448  61.4205579  22.8587383  85.0307670  60.8142573  21.5216099
  85.2620056  59.8522377  15.8570900  84.4787578  60.3944058  15.9509124
  85.9612802  60.3696357  16.2565141  88.5716706  45.6617007  18.5005105
  89.0685406  44.9086969  18.1806175  87.8003688  45.6981324  17.9348314
  96.4246464  51.3657372  20.1423396  96.4136340  52.2482088  19.7717330
  95.5563843  51.0128923  19.9477934  87.9328960  60.5137441  24.5026237
  88.6456932  61.1484906  24.4302138  87.4418989  60.6101307  23.6866239
  89.6546487  54.4188694  16.0743528  88.7202766  54.5390157  15.9048233
  89.8323156  53.5161161  15.8103538  85.1551675  47.8034390  18.2276790
  84.7849463  47.2505430  18.9157695  85.6510768  47.1992523  17.6751790
  93.0419039  50.2606013  16.6093563  93.5079491  51.0934005  16.5353865
  93.4926539  49.7950995  17.3138821  82.9840874  58.2631885  25.3231808
  83.6850333  58.8968368  25.4761202  82.5135989  58.6046616  24.5627447
  91.1095270  56.6049835  13.6079715  91.3855114  56.4906429  14.5173589
  90.2399768  56.2067320  13.5691888  91.0135701  42.6286600  20.6484464
  90.0998781  42.8590827  20.8166671  91.4428803  42.7125044  21.4998496
  90.7842160  50.8176492  23.1484358  90.1313610  51.0652400  22.4936811
  91.1622540  50.0040631  22.8146835  87.7449334  60.8536186  17.2512528
  87.9271728  60.0357841  17.7140281  88.5682320  61.0703878  16.8137418
  88.0791499  59.7804371  14.5127577  88.6079266  59.2696825  13.8997739
  88.3419719  59.4646901  15.3773110  86.8329733  51.5596303  29.6350395
  86.1570370  51.4590433  30.3052770  87.6557367  51.4035517  30.0986392
  78.5808592  57.7968240  22.2562910  79.1662029  57.0511928  22.3890814
  78.3833430  58.1072197  23.1399574  81.4347247  60.8319487  17.2725353
  80.7657622  61.3165615  16.7889393  81.2960117  61.0788708  18.1868731
  73.1726247  50.3673840  20.9767353  73.2110346  49.8337431  21.7704471
  72.6666539  49.8409046  20.3578331  85.5752516  62.8663231  23.8708011
  86.1270824  63.0294852  24.6357096  85.9158709  63.4567669  23.1988036
  80.5517009  45.2138381  24.4729896  80.6158335  46.0753212  24.0607293
  80.4884129  44.6012382  23.7402254  80.0269281  47.2861513  28.1202930
  80.6541320  46.9038591  28.7340454  79.1697200  47.0675715  28.4858622
  90.4263390  57.6924488  29.7256665  90.9703294  58.3054447  29.2311620
  89.8450235  58.2504067  30.2423678  76.8034824  49.0937942  14.0521285
  77.0988265  48.1848621  13.9988338  75.9022860  49.0725682  13.7302287
  88.7120903  60.8145206  20.8571693  88.5872042  60.0134946  20.3482639
  89.3699994  61.3091400  20.3685663  80.3329071  47.1693939  20.0348833
  79.6115657  47.7829907  19.8956307  81.1222327  47.7051704  19.9565479
  90.7755811  58.6154226  22.4851243  89.8286147  58.4959578  22.4129570
  91.1238584  57.7276724  22.5677505  83.1355385  44.5048365  26.3089485
  83.6589786  44.7510662  27.0715794  82.9167718  45.3368400  25.8892622
  78.5322666  46.7752040  14.1760610  78.2035372  45.8949419  13.9935716
  78.8862036  46.7199709  15.0636999  87.7802245  58.4106943  18.6855595
  87.6327207  57.4823650  18.8663165  88.6055738  58.4327033  18.2012671
  81.6464489  47.0625010  14.5436088  81.9860561  47.5910931  13.8214696
  82.0936609  47.4005416  15.3194654  91.3836366  59.2335501  19.7720468
  92.3082914  59.0278363  19.6344919  91.2151670  58.9851903  20.6809810
  84.3407930  45.4462060  23.9939156  84.0004750  44.6469874  24.3959836
  83.6346936  45.7463771  23.4215989  84.9924402  42.5311373  22.4466479
  85.8150471  42.0571851  22.3245369  85.2362465  43.3101857  22.9465165
  83.6332636  45.5599631  12.7429380  84.3540999  45.9380884  12.2393097
  83.0097940  46.2788508  12.8464358  87.7763759  46.2644780  13.6787713
  87.9927373  47.1469418  13.3776541  87.2957826  45.8730994  12.9493355
  82.5162980  49.2230494  20.2558457  82.3707561  49.5370797  21.1482739
  82.0388184  49.8415394  19.7029356  84.3759363  46.2133042  20.3039347
  84.3620932  45.3174135  19.9671645  85.0931791  46.2203705  20.9377633
  86.2285494  46.6470382  22.3492474  85.9703272  47.5687452  22.3476805
  85.6970534  46.2500816  23.0392938  91.1731683  59.7521169  15.1282560
  91.3468560  59.1867591  14.3756412  91.6660574  60.5522064  14.9462050
  76.9908642  51.7635838  23.1946118  76.4462111  52.5395646  23.3266393
  77.8687992  52.1106642  23.0365240  83.7796259  45.0947422  15.5726917
  83.9012170  44.1664068  15.7717804  83.4898301  45.1086108  14.6605232
  86.6487450  42.7802332  18.7093637  86.6709146  42.8441665  17.7545616
  87.0655509  41.9406841  18.9034143  97.0271074  52.5157592  16.7472859
  97.4702220  51.7664917  16.3491983  96.1497584  52.5067728  16.3646591
  92.1606855  59.0687933  12.2279458  92.8557760  59.6894626  12.4466773
  92.5030005  58.2183284  12.5031836  77.7774664  50.8905734  26.0876275
  77.0356400  51.0388370  26.6740906  77.4567409  51.1514000  25.2243025
  94.0598278  56.5187639  13.7566789  94.5849602  56.8574912  13.0316109
  93.9720631  55.5834654  13.5729923  85.7218327  60.4321712  25.8856665
  86.0305453  60.1870859  26.7579365  86.5193809  60.6368351  25.3975536
  85.7438939  62.5859622  18.1162042  85.3043929  62.0936001  18.8094899
  86.4947056  62.0432590  17.8754117  78.2231278  58.7771163  18.1186670
  79.0489298  58.4774935  17.7385313  77.8725330  58.0078785  18.5676459
  83.1912811  58.1297631  20.1884344  82.5692820  57.4668336  19.8886571
  83.8617678  58.1558763  19.5057991  76.4239883  56.6957489  19.0775604
  75.5871791  56.2679664  18.8959605  76.3963528  56.8889933  20.0146395
  83.2637339  46.6079419  29.7816850  83.3125494  47.4841542  29.3994619
  83.8059853  46.0656812  29.2088493  93.7492184  57.1520542  29.0617987
  92.9587728  57.1344681  28.5222486  93.5125539  57.6908836  29.8167023
  93.8690059  54.0013009  26.3750715  93.9188064  53.8363016  27.3166238
  93.7603983  53.1340268  25.9848596  82.7526318  56.6801554  13.6642804
  82.9014438  57.3637019  13.0109477  83.5592762  56.6606645  14.1792260
  91.1593822  49.9843937  27.6910022  92.0603685  49.8450402  27.3994020
  91.2341796  50.1498392  28.6308199  85.4936627  47.3610792  26.5363208
  84.6239937  47.6544358  26.2645797  85.7296107  47.9451237  27.2570472
  95.3708256  56.4209950  26.6192737  95.0793065  56.7839931  27.4556198
  94.7580388  55.7076959  26.4406069  96.5703939  53.9862830  19.1395307
  97.4050830  54.4252634  19.3032867  96.7063067  53.5101483  18.3203553
  93.6195444  51.5442565  25.0872795  94.0949566  51.7370211  24.2791646
  92.6961010  51.6001751  24.8416178  80.5078951  52.7066732  14.6703873
  80.2624993  51.8029062  14.8684083  80.6774866  52.7083883  13.7283351
  88.1975661  43.5790409  24.0528629  88.7157605  44.3151435  23.7275117
  87.8430794  43.8854402  24.8875388  79.7774599  48.4395090  12.1690034
  79.0843844  48.5139445  11.5130070  79.5326350  47.6755433  12.6911551
  88.4488255  39.9990691  19.5729525  88.7290009  39.3313880  20.1989952
  89.2338862  40.1919787  19.0604189  86.2521724  59.1749685  11.1354552
  85.6795691  59.7939872  10.6825023  86.8254517  59.7249047  11.6694473
  92.3197113  48.4208325  23.3201100  93.2714536  48.5206423  23.3413324
  92.1500564  47.6286594  23.8299185  90.3411493  45.5063908  23.5060501
  89.7461425  45.7868921  22.8106990  90.0561190  45.9957809  24.2777242
  89.4718983  59.4586835  12.2663134  90.4049657  59.3932397  12.4696009
  89.3842196  60.2943102  11.8077666  92.1007000  58.7752705   9.2267081
  92.0220632  58.4412569  10.1202839  92.9216667  59.2674473   9.2258554
  94.7985191  51.6414445  22.4343400  94.7661511  50.7030445  22.6203084
  95.4085815  51.7198481  21.7009225  86.6368522  50.5110498   8.4770604
  87.5827627  50.3816706   8.5459022  86.2582767  49.7725160   8.9540032
  94.9479680  48.4325488  22.4801683  94.4318728  47.6483945  22.2931612
  95.8319628  48.1044205  22.6448203  92.6090407  42.1766504  18.4397496
  92.4115228  41.8681592  19.3240828  93.2190112  42.9028143  18.5695426
 100.6161741  52.7030452  21.5749437 101.3465130  52.4415740  22.1357140
 100.0068687  51.9659174  21.6151505  98.6977038  50.8438314  22.1723888
  97.9710202  50.7094279  21.5640380  98.2824325  51.1515143  22.9780606
  86.5207215  54.5628244  29.9371261  87.4410224  54.7406843  30.1311308
  86.4856798  53.6184289  29.7850960  84.8211439  48.4360474   8.4125489
  83.9142895  48.1393587   8.4888203  85.0987420  48.1390292   7.5459775
  75.7389380  49.7566837  18.8624536  75.4192164  48.9032146  18.5698910
  75.1922808  49.9715416  19.6182503  79.5169287  52.4729278  22.5794042
  79.7355297  53.4046386  22.5982076  79.9295061  52.1137253  23.3648846
  86.4373505  42.9797364  14.5669731  85.6274233  42.6344449  14.9424977
  87.1257922  42.6704908  15.1557342  88.3664053  42.0575411  16.1894027
  88.9195092  42.4770864  16.8484050  88.6034140  41.1311159  16.2316983
  84.3897153  48.0462484  31.9696791  84.2893879  48.9956841  31.9008882
  84.1718695  47.7180723  31.0972861  83.5910224  45.2947409   8.5537468
  84.4529388  45.6202308   8.8133286  83.7760568  44.5078905   8.0410534
  75.6077640  53.3769749  20.8317657  74.9141111  52.9623702  20.3187612
  76.3550631  53.4190285  20.2351076  91.7442860  44.1675936  15.6972691
  91.1641529  44.8260740  15.3150744  91.4778793  43.3453280  15.2860109
  90.1946427  43.5680993  17.8994012  90.6946205  43.6797528  17.0908331
  90.8382035  43.2642046  18.5394820  84.2528423  51.4759623  30.7861853
  83.7695504  52.2759983  30.9925742  84.3389362  51.4867568  29.8329297
  77.5214382  53.3088003  18.7083672  77.4985070  53.4075690  17.7565555
  77.8315019  54.1553154  19.0300838  80.1801760  55.3664158  22.8230287
  81.1345014  55.3348100  22.7560218  79.9814284  54.9054782  23.6380512
  80.7701142  53.9365274  25.3901084  81.5894031  54.4309353  25.4135921
  81.0437950  53.0197242  25.3618652  90.5267738  46.3276026  14.7529040
  89.6393593  46.6125677  14.5349234  90.9421727  46.1669790  13.9056317
  93.8782275  46.3522547  18.4683379  94.6542665  46.8419000  18.7407996
  93.1530409  46.7780601  18.9255248  96.3154833  47.0650166  19.5257320
  96.9099324  46.8245902  18.8150628  96.3881417  46.3457297  20.1530856
  78.5351989  60.9083777  19.8400484  78.4006457  60.1484178  19.2738482
  78.1184051  61.6324677  19.3729273  89.6710952  56.0920701   8.8477060
  90.3746802  56.2970703   9.4634715  88.9473601  56.6597463   9.1126143
  90.5008762  51.8430562  14.9679330  90.4443964  52.2999114  14.1286962
  91.0537105  51.0821247  14.7902173  94.3113568  47.6320294  15.7929449
  94.0550502  47.2316930  16.6237657  93.6866436  48.3464088  15.6679589
  98.6225906  50.3716367  18.3000741  98.0625464  50.4409557  19.0732303
  98.0169409  50.1957352  17.5800237  81.6921115  61.8053094  20.0518927
  81.5753499  62.7498527  19.9497617  80.8713561  61.5026656  20.4404726
  91.5797649  56.5303230  10.8975520  92.4143253  56.0984428  10.7152995
  91.4181992  56.3585244  11.8252414  91.2343541  53.0335343  12.2631859
  91.1792345  52.8679615  11.3220303  90.6089597  53.7411376  12.4194049
  76.0236056  48.2703408  26.0893281  76.6694920  47.7602362  26.5780506
  75.8153208  49.0072089  26.6636706  88.5489449  55.3384255  31.5885422
  89.4180608  55.5124907  31.2272057  88.0696200  56.1578672  31.4661151
  84.5439667  42.5343452  11.8417177  84.5318337  43.4785292  11.9985448
  85.4363089  42.3513598  11.5476639  82.7175629  62.4581356  23.2674855
  83.6202876  62.4904966  23.5841350  82.4912999  61.5281807  23.2821191
  84.4729231  61.2112343  19.9284934  83.5224862  61.2114204  19.8149306
  84.7761717  60.4645077  19.4120969  88.3591786  39.1286229  16.0963114
  87.5924182  38.5744716  16.2419797  88.7702491  39.2008098  16.9577266
  80.3633547  45.4171025  30.1868295  81.2265009  45.0607830  30.3971620
  79.7898958  45.0784920  30.8743700 100.2081924  67.0472881  20.9930696
 100.8460334  66.9279628  20.2894037 100.0902767  67.9953725  21.0518649
  97.0171631  67.0000309  20.9292221  96.6790142  66.8841374  20.0412756
  97.8861399  66.5991474  20.9093227  92.8758446  68.8535786  16.9189112
  92.3123311  68.7625723  16.1505400  92.7610841  68.0335690  17.3991605
  97.4991414  68.1535161  26.8878427  97.4880054  67.7587959  26.0158930
  97.6612053  67.4201234  27.4812198  90.4222878  70.3486977  19.7573333
  91.2144170  70.0077802  19.3419632  90.6619528  70.4581952  20.6775486
  98.4558005  72.5206753  12.2303577  97.8045985  73.1060834  11.8437591
  99.2502368  73.0512948  12.2898614  92.3813632  69.6095890  12.6290711
  93.1544508  69.0624878  12.4903587  92.7339031  70.4740140  12.8405173
  94.2198675  70.9372273  25.8357611  93.9288541  71.8417904  25.7204277
  94.8555659  70.9788800  26.5501680  95.1454882  68.3149121  22.4258970
  95.7418454  68.0905144  21.7115933  95.2029853  67.5733867  23.0284418
  94.7179910  65.7688557  10.2609161  94.9705431  65.2470078   9.4992624
  93.7804469  65.6054702  10.3635845  99.7623193  64.7724335  18.0683905
 100.5486282  64.3543758  17.7174322 100.0261897  65.6770427  18.2365553
  99.9333270  70.2097185  12.7672561  99.2979103  70.2831812  13.4793466
  99.6030677  70.7990784  12.0891641 105.1631620  64.7099568  18.9716883
 105.8956792  64.1398785  19.2054713 104.4070976  64.3221169  19.4123389
  94.4376199  67.6716663  12.4633536  94.3212457  66.9961566  13.1314621
  94.5478459  67.1849037  11.6465689  96.7807740  67.1326810  16.1680225
  96.4165947  66.6057431  16.8793147  97.6374856  66.7425279  15.9946711
 102.6857040  58.4221142  23.4311492 102.3540365  59.2916553  23.2072707
 102.0902654  58.1057426  24.1105522  96.4213227  62.1616709  11.1641574
  96.5887629  63.0296946  11.5312045  96.2310396  62.3243991  10.2402863
  99.1788560  70.6233688  22.8307404  98.8789283  71.5258727  22.7223212
  98.8339619  70.3565871  23.6828557  92.6301041  67.0747485  18.8644109
  91.7051538  66.9423699  19.0721801  92.8785455  67.8541704  19.3614051
 102.5785704  63.1416228  20.5104842 101.6702581  63.0731637  20.2163603
 102.5273299  63.6188173  21.3386667  96.4002448  64.6174367  12.1488241
  96.2802073  65.0631418  12.9873721  95.7055036  64.9659685  11.5901779
  89.9909852  66.7180759  19.6987898  90.1202234  66.9715238  20.6127310
  89.3107304  67.3108467  19.3792553  94.1609340  77.3878009  15.7978372
  94.0833369  78.3385834  15.8766853  93.5570983  77.0423881  16.4553298
  96.6526569  64.5605874  28.4539739  95.8759903  65.1199794  28.4442604
  97.2917132  65.0462657  28.9754609 104.4447350  61.3432667  22.2882716
 103.8021730  61.6365200  21.6422510 103.9402279  61.2285587  23.0935912
 102.0987514  65.0895840  12.9768575 103.0105370  65.3223227  12.8016272
 101.5897161  65.6732884  12.4143653  94.9072942  67.3691327  28.0157706
  95.6487626  67.9076371  27.7392530  94.2009927  67.9957616  28.1729258
 100.3828281  69.5120468  26.6129867 100.7911637  69.0702878  25.8684500
  99.6605543  68.9373095  26.8664060  96.7359351  64.4493075  23.9863424
  97.5820547  64.8732488  24.1298073  96.6757989  63.7926699  24.6801988
 100.7057096  70.0721658  20.3682156 100.0765958  70.2367373  19.6658224
 100.3182758  70.4863268  21.1393120 104.5846328  71.0076096  17.7226520
 103.8997366  71.3874998  17.1723553 104.6690177  71.6171423  18.4558468
  99.8858797  62.1097443  25.6444598  99.6419729  62.8639504  25.1078874
 100.1618727  62.4882791  26.4791845 101.8397260  68.6536055  24.3221864
 102.0514155  69.2967815  23.6456245 101.7927008  67.8198372  23.8543794
  99.4423488  61.2653876  21.2258436  98.5807967  61.5635130  21.5175173
  99.4685923  61.4824275  20.2939468  96.2585058  69.8096067  17.6332241
  96.7223403  70.0883770  16.8436864  95.9941856  68.9079511  17.4505332
  93.1509139  69.3567548  20.5712005  93.7210496  69.7854816  19.9329489
  93.7417251  69.0750133  21.2696190  95.1953944  65.9319219  14.4421807
  95.8977987  66.3840263  14.9095733  94.8634572  65.2903038  15.0701700
  93.6434305  64.5230976  28.8173016  93.0132966  65.2047256  29.0508413
  93.5370393  64.4114057  27.8726154  88.9379278  64.1902772  19.7438940
  88.1478332  64.4460300  19.2679051  89.4290525  65.0051109  19.8490981
 102.9543087  71.5308011  22.4944221 103.7760531  71.1288198  22.2126903
 102.9505490  71.4276245  23.4460337  90.8894023  64.5547351  16.7022417
  90.0925187  64.6666045  17.2205913  90.6619615  64.8934003  15.8363307
  96.7199691  71.0792054  24.6504931  96.7844123  71.5412461  25.4863103
  96.0110615  70.4489419  24.7787241  87.2216981  64.4433262  22.1753931
  87.4725019  65.3280272  22.4411507  87.7576529  64.2637864  21.4029023
 111.0449081  67.8746759  18.8429192 110.2912789  67.3054157  18.6873197
 111.1796622  67.8409424  19.7899827  96.4347709  72.7460162  14.5183912
  96.2993383  73.5911697  14.9468760  96.9757521  72.9479439  13.7549846
  92.9215048  58.8251741  31.1798267  92.5281994  58.2717940  31.8545911
  93.7381189  59.1362320  31.5704785  89.8877106  70.2635600  15.0911837
  90.4001627  71.0578850  15.2417402  90.5399819  69.5661890  15.0245438
  91.6971991  73.3801356  17.1734590  91.8738619  74.3019321  16.9855574
  92.4928824  73.0659775  17.6028970  95.8383009  60.2409621  28.7718524
  96.5792723  60.8416774  28.6922986  96.0700932  59.4987258  28.2136566
  90.9824347  65.4265988  27.0496753  90.8677862  64.5251245  27.3503852
  90.1268865  65.6729685  26.6981570  98.0616185  73.3683728  28.6484254
  97.6180039  72.5820107  28.3305158  98.7233399  73.5562879  27.9828145
  92.8203306  74.8979530  23.1744932  93.3710731  74.7696593  22.4021926
  91.9814782  75.1974419  22.8239825 100.1597423  73.6486528  26.6765655
 100.1415898  74.4695409  26.1845924 101.0817343  73.5240603  26.9015796
  96.6170477  71.1630658  27.5189163  97.1498814  70.4018946  27.2888471
  96.0884558  70.8704309  28.2613318  99.7840172  56.2690723  23.0482805
  99.4404442  57.1592365  22.9721916 100.1519135  56.0792381  22.1852390
  87.8526023  68.5924254  15.8671407  88.6901245  69.0021262  15.6505115
  88.0304290  67.6523696  15.8371601  99.7490455  66.2599335  11.5555240
  99.2337078  67.0303939  11.7943628  99.4767763  65.5864471  12.1788302
  97.3337566  61.1049035  16.6140479  96.4779162  60.7155886  16.4346117
  97.7464518  61.1840996  15.7540264  98.8636713  58.6395379  21.0132038
  98.3601508  58.6025514  20.1999844  99.1567319  59.5488121  21.0728695
  95.1079598  58.7234108  20.0198220  95.9732595  58.5276917  19.6604110
  95.1757107  58.4944460  20.9467577 104.7224729  69.0131689  13.4908414
 103.9454172  68.6742849  13.0463576 105.4016210  69.0184312  12.8163379
  99.5376758  64.1326427  13.3815022  99.2326894  64.4472576  14.2325165
 100.4907200  64.2107847  13.4242355  97.9823190  70.2916650  15.0307976
  97.4544551  69.5569410  14.7181213  97.4810693  71.0691326  14.7847944
 102.9616036  68.4865670  20.1475022 102.3039710  69.1764932  20.2355150
 103.7656435  68.8762102  20.4909008  92.7141917  60.9536316  17.3914587
  93.2885669  60.7311498  16.6587780  93.3012900  61.0225011  18.1443188
 101.7721495  66.8410043  18.1978964 102.2853376  67.4740035  18.7000673
 102.4222719  66.2411239  17.8322324  93.0411505  62.9840777  11.4110472
  92.2048817  63.3215464  11.7319747  92.9016274  62.8489757  10.4737609
  95.0164585  57.8277565  16.1189656  94.3628998  57.5126582  15.4946271
  94.9745059  57.2053306  16.8449479  96.1275790  68.1096860   8.0342949
  95.2202852  67.8786114   8.2334098  96.6246822  67.3134479   8.2216930
  98.2502326  64.3159499  20.4437304  97.3324887  64.5374446  20.2858992
  98.6662469  64.3905809  19.5849011  99.0337373  65.7150914  15.5739984
  99.7809192  66.2272312  15.2647106  99.3028963  65.3934967  16.4344378
  97.3064023  68.2109455  12.5566939  96.3975243  67.9268488  12.6539408
  97.3359107  68.6308534  11.6970245 102.5383291  71.8216045  16.3258106
 102.0845618  70.9806954  16.3823297 101.9077258  72.4577443  16.6632886
 101.4816210  62.7508031  17.5558774 100.7438967  62.2385417  17.8869016
 101.7342984  62.3108412  16.7442051 100.9816230  73.6592541  17.2607924
 101.2739205  74.2197598  16.5420290 101.4914851  73.9521102  18.0161083
 101.5827838  55.5284283  18.1500543 101.8886715  54.6681646  17.8626458
 102.3080443  56.1201903  17.9499537  87.8752194  65.9314969  16.5382141
  87.6776594  65.3384330  15.8133207  87.3198858  65.6267179  17.2558080
  95.8548918  65.8238076  18.6576734  95.9097527  64.8711912  18.5819211
  95.0440120  65.9797515  19.1418032  97.0040111  69.7518199   9.8955017
  96.5659541  69.0354058   9.4360655  97.7450552  69.9794314   9.3340109
  93.7941277  64.4415135  16.4167113  92.9809143  64.7409306  16.8232305
  94.2900272  64.0470824  17.1341595  95.9449855  74.4372892  18.3501378
  95.9026034  74.6633739  17.4209910  96.8612554  74.2036267  18.4987179
  99.3915489  64.9056960  25.2482007  99.7464877  65.1328433  26.1076473
 100.0387620  65.2375337  24.6259262 105.1213226  68.0275396  15.9531336
 104.9831125  68.2176992  15.0252525 104.7649445  68.7894779  16.4099387
  93.2855352  62.0133491  22.0328348  93.9254732  61.8722250  21.3351311
  92.4532883  61.7268004  21.6566950 105.1482606  70.0951923  20.9642607
 105.5819112  70.0027212  21.8125661 105.8614186  70.0709423  20.3262623
  94.0615656  71.3135921  18.1463340  94.8556255  70.8186242  17.9445915
  93.3507348  70.7853785  17.7831046  98.8810501  73.6954017  22.4975708
  98.9347523  74.2644953  23.2653424  98.0125282  73.8655902  22.1329745
  90.3698420  65.4579003  14.2223093  89.4396008  65.3963459  14.4393055
  90.4655892  64.9354956  13.4259734  90.2883969  61.9833816  16.8101335
  90.5490786  62.8979149  16.7010495  91.1101141  61.5158259  16.9597947
  91.7608894  63.3971573  23.9800159  92.4331947  63.1888935  23.3312808
  90.9338680  63.1993659  23.5405391 106.0098155  70.1375623  23.4975493
 106.2034045  71.0421434  23.7434768 105.9098773  69.6783043  24.3314078
  97.6634466  60.0233514  25.9965820  97.0162381  60.7223464  25.9030296
  98.4335481  60.4569658  26.3642068 101.0713264  70.2882366  29.0716373
 100.9198770  70.0592918  28.1546457 101.0617943  71.2452968  29.0847718
  97.8398600  67.8614279  24.0562640  98.7690660  68.0125439  23.8831607
  97.4189630  67.9498300  23.2011286  96.6386932  71.8864943  21.8261177
  96.4998018  71.5183728  22.6987115  95.8501528  72.4012583  21.6545135
  97.2335084  76.9874040  13.1686714  97.4086840  76.5162083  13.9832337
  96.5467872  77.6139806  13.3967975  98.1892147  71.2646546  19.2150015
  97.8541980  71.2247316  20.1107665  97.6896093  70.5991262  18.7420425
  92.1636391  66.6714176  24.7402596  92.0256189  65.9394415  25.3414135
  93.0741315  66.5823076  24.4586784  94.7918692  66.3834135  24.2286276
  95.5018310  65.7427328  24.1872894  94.7488000  66.6347030  25.1512457
 102.7805471  73.3201489  27.1492855 102.7218017  72.6360709  26.4823438
 103.1824989  74.0620479  26.6973481  93.5047626  63.3699353  26.0481915
  92.9684983  62.9190092  26.7003512  92.9164334  63.5045262  25.3052380
  91.7996169  80.1363403  19.9426574  92.0392768  80.7681927  20.6205593
  90.9565366  79.7851443  20.2291933  92.9149885  62.8288005   8.6108379
  92.0379351  62.7076806   8.2470626  93.3907638  62.0374083   8.3587268
 102.7822878  71.2841073  25.3806835 101.8949657  70.9466995  25.5033234
 103.3521429  70.5524104  25.6175600  84.4352025  67.6165164  18.7049886
  85.1223065  67.3026894  18.1170902  84.2800154  68.5206529  18.4317138
  89.2386747  62.5055361  23.1334910  89.1544936  61.8981031  22.3985320
  88.4169453  62.9964379  23.1344406  96.3124031  75.9442525  22.3468078
  96.2394203  76.7497497  22.8587383  95.8701424  76.1434491  21.5216099
  96.1013811  75.1814295  15.8570900  95.3181333  75.7235975  15.9509124
  96.8006556  75.6988275  16.2565141  99.4110461  60.9908925  18.5005105
  99.9079160  60.2378887  18.1806175  98.6397442  61.0273241  17.9348314
 107.2640218  66.6949290  20.1423396 107.2530095  67.5774006  19.7717330
 106.3957598  66.3420841  19.9477934  98.7722715  75.8429359  24.5026237
  99.4850687  76.4776824  24.4302138  98.2812743  75.9393225  23.6866239
 100.4940242  69.7480612  16.0743528  99.5596520  69.8682074  15.9048233
 100.6716910  68.8453079  15.8103538  95.9945430  63.1326308  18.2276790
  95.6243217  62.5797348  18.9157695  96.4904522  62.5284441  17.6751790
 103.8812793  65.5897931  16.6093563 104.3473245  66.4225923  16.5353865
 104.3320293  65.1242913  17.3138821  93.8234628  73.5923803  25.3231808
  94.5244088  74.2260286  25.4761202  93.3529743  73.9338534  24.5627447
 101.9489024  71.9341752  13.6079715 102.2248868  71.8198347  14.5173589
 101.0793523  71.5359237  13.5691888 101.8529456  57.9578518  20.6484464
 100.9392536  58.1882745  20.8166671 102.2822557  58.0416962  21.4998496
 101.6235914  66.1468410  23.1484358 100.9707364  66.3944317  22.4936811
 102.0016294  65.3332548  22.8146835  98.5843088  76.1828103  17.2512528
  98.7665483  75.3649759  17.7140281  99.4076074  76.3995795  16.8137418
  98.9185254  75.1096288  14.5127577  99.4473020  74.5988743  13.8997739
  99.1813473  74.7938819  15.3773110  97.6723487  66.8888221  29.6350395
  96.9964124  66.7882350  30.3052770  98.4951121  66.7327435  30.0986392
  89.4202346  73.1260158  22.2562910  90.0055783  72.3803846  22.3890814
  89.2227185  73.4364114  23.1399574  92.2741002  76.1611405  17.2725353
  91.6051377  76.6457533  16.7889393  92.1353871  76.4080625  18.1868731
  84.0120001  65.6965758  20.9767353  84.0504101  65.1629349  21.7704471
  83.5060294  65.1700963  20.3578331  96.4146270  78.1955149  23.8708011
  96.9664578  78.3586770  24.6357096  96.7552464  78.7859586  23.1988036
  91.3910763  60.5430298  24.4729896  91.4552090  61.4045129  24.0607293
  91.3277884  59.9304300  23.7402254  90.8663036  62.6153431  28.1202930
  91.4935075  62.2330508  28.7340454  90.0090955  62.3967633  28.4858622
 101.2657144  73.0216406  29.7256665 101.8097048  73.6346364  29.2311620
 100.6843989  73.5795984  30.2423678  87.6428579  64.4229860  14.0521285
  87.9382020  63.5140538  13.9988338  86.7416614  64.4017599  13.7302287
  99.5514657  76.1437124  20.8571693  99.4265797  75.3426864  20.3482639
 100.2093749  76.6383317  20.3685663  91.1722826  62.4985857  20.0348833
  90.4509411  63.1121824  19.8956307  91.9616081  63.0343621  19.9565479
 101.6149566  73.9446144  22.4851243 100.6679901  73.8251495  22.4129570
 101.9632339  73.0568642  22.5677505  93.9749139  59.8340283  26.3089485
  94.4983541  60.0802580  27.0715794  93.7561472  60.6660318  25.8892622
  89.3716420  62.1043958  14.1760610  89.0429126  61.2241337  13.9935716
  89.7255791  62.0491626  15.0636999  98.6195999  73.7398860  18.6855595
  98.4720962  72.8115568  18.8663165  99.4449493  73.7618951  18.2012671
  92.4858243  62.3916927  14.5436088  92.8254316  62.9202849  13.8214696
  92.9330364  62.7297334  15.3194654 102.2230121  74.5627419  19.7720468
 103.1476668  74.3570280  19.6344919 102.0545424  74.3143820  20.6809810
  95.1801684  60.7753978  23.9939156  94.8398505  59.9761791  24.3959836
  94.4740690  61.0755689  23.4215989  95.8318156  57.8603291  22.4466479
  96.6544225  57.3863769  22.3245369  96.0756220  58.6393774  22.9465165
  94.4726391  60.8891549  12.7429380  95.1934753  61.2672802  12.2393097
  93.8491695  61.6080426  12.8464358  98.6157513  61.5936698  13.6787713
  98.8321128  62.4761336  13.3776541  98.1351581  61.2022911  12.9493355
  93.3556735  64.5522411  20.2558457  93.2101316  64.8662714  21.1482739
  92.8781938  65.1707312  19.7029356  95.2153118  61.5424959  20.3039347
  95.2014686  60.6466053  19.9671645  95.9325546  61.5495623  20.9377633
  97.0679248  61.9762299  22.3492474  96.8097026  62.8979370  22.3476805
  96.5364289  61.5792734  23.0392938 102.0125437  75.0813087  15.1282560
 102.1862315  74.5159509  14.3756412 102.5054328  75.8813981  14.9462050
  87.8302397  67.0927756  23.1946118  87.2855865  67.8687564  23.3266393
  88.7081747  67.4398560  23.0365240  94.6190014  60.4239339  15.5726917
  94.7405925  59.4955986  15.7717804  94.3292056  60.4378025  14.6605232
  97.4881204  58.1094250  18.7093637  97.5102901  58.1733583  17.7545616
  97.9049263  57.2698759  18.9034143 107.8664828  67.8449509  16.7472859
 108.3095974  67.0956835  16.3491983 106.9891339  67.8359646  16.3646591
  88.6168419  66.2197652  26.0876275  87.8750155  66.3680287  26.6740906
  88.2961163  66.4805917  25.2243025  96.5612081  75.7613630  25.8856665
  96.8699208  75.5162777  26.7579365  97.3587563  75.9660269  25.3975536
  96.5832694  77.9151540  18.1162042  96.1437684  77.4227918  18.8094899
  97.3340810  77.3724507  17.8754117  89.0625032  74.1063081  18.1186670
  89.8883052  73.8066852  17.7385313  88.7119084  73.3370703  18.5676459
  94.0306566  73.4589549  20.1884344  93.4086575  72.7960254  19.8886571
  94.7011433  73.4850681  19.5057991  87.2633638  72.0249407  19.0775604
  86.4265546  71.5971581  18.8959605  87.2357283  72.2181850  20.0146395
  94.1031093  61.9371337  29.7816850  94.1519249  62.8133460  29.3994619
  94.6453607  61.3948730  29.2088493 104.5885939  72.4812460  29.0617987
 103.7981483  72.4636599  28.5222486 104.3519293  73.0200754  29.8167023
 104.7083814  69.3304926  26.3750715 104.7581819  69.1654934  27.3166238
 104.5997737  68.4632185  25.9848596  93.5920073  72.0093472  13.6642804
  93.7408193  72.6928937  13.0109477  94.3986516  71.9898562  14.1792260
 101.9987576  65.3135854  27.6910022 102.8997439  65.1742319  27.3994020
 102.0735551  65.4790309  28.6308199  96.3330382  62.6902709  26.5363208
  95.4633691  62.9836275  26.2645797  96.5689862  63.2743154  27.2570472
 106.2102011  71.7501868  26.6192737 105.9186819  72.1131849  27.4556198
 105.5974142  71.0368876  26.4406069 107.4097693  69.3154748  19.1395307
 108.2444584  69.7544552  19.3032867 107.5456822  68.8393401  18.3203553
 104.4589199  66.8734483  25.0872795 104.9343321  67.0662129  24.2791646
 103.5354764  66.9293668  24.8416178  91.3472706  68.0358650  14.6703873
  91.1018747  67.1320980  14.8684083  91.5168620  68.0375800  13.7283351
  99.0369415  58.9082326  24.0528629  99.5551359  59.6443353  23.7275117
  98.6824548  59.2146319  24.8875388  90.6168353  63.7687007  12.1690034
  89.9237598  63.8431362  11.5130070  90.3720105  63.0047351  12.6911551
  99.2882010  55.3282609  19.5729525  99.5683763  54.6605798  20.1989952
 100.0732617  55.5211704  19.0604189 103.1590868  63.7500243  23.3201100
 104.1108291  63.8498340  23.3413324 102.9894318  62.9578511  23.8299185
 101.1805247  60.8355826  23.5060501 100.5855180  61.1160839  22.8106990
 100.8954944  61.3249727  24.2777242 105.6378946  66.9706362  22.4343400
 105.6055266  66.0322363  22.6203084 106.2479569  67.0490399  21.7009225
  97.4762277  65.8402415   8.4770604  98.4221381  65.7108623   8.5459022
  97.0976522  65.1017077   8.9540032 105.7873434  63.7617406  22.4801683
 105.2712483  62.9775862  22.2931612 106.6713383  63.4336122  22.6448203
 103.4484161  57.5058421  18.4397496 103.2508982  57.1973510  19.3240828
 104.0583867  58.2320060  18.5695426 111.4555496  68.0322369  21.5749437
 112.1858884  67.7707657  22.1357140 110.8462441  67.2951091  21.6151505
 109.5370793  66.1730232  22.1723888 108.8103956  66.0386197  21.5640380
 109.1218080  66.4807060  22.9780606  97.3600969  69.8920161  29.9371261
  98.2803979  70.0698761  30.1311308  97.3250552  68.9476207  29.7850960
  95.6605194  63.7652392   8.4125489  94.7536649  63.4685504   8.4888203
  95.9381175  63.4682210   7.5459775  86.5783134  65.0858755  18.8624536
  86.2585918  64.2324063  18.5698910  86.0316562  65.3007333  19.6182503
  90.3563042  67.8021196  22.5794042  90.5749051  68.7338304  22.5982076
  90.7688816  67.4429171  23.3648846  97.2767259  58.3089281  14.5669731
  96.4667988  57.9636366  14.9424977  97.9651676  57.9996825  15.1557342
  99.2057808  57.3867328  16.1894027  99.7588846  57.8062782  16.8484050
  99.4427894  56.4603076  16.2316983  95.2290907  63.3754402  31.9696791
  95.1287634  64.3248759  31.9008882  95.0112449  63.0472641  31.0972861
  94.4303978  60.6239327   8.5537468  95.2923142  60.9494225   8.8133286
  94.6154323  59.8370823   8.0410534  86.4471394  68.7061667  20.8317657
  85.7534866  68.2915619  20.3187612  87.1944385  68.7482203  20.2351076
 102.5836615  59.4967853  15.6972691 102.0035284  60.1552657  15.3150744
 102.3172548  58.6745198  15.2860109 101.0340181  58.8972911  17.8994012
 101.5339960  59.0089446  17.0908331 101.6775789  58.5933964  18.5394820
  95.0922177  66.8051541  30.7861853  94.6089259  67.6051901  30.9925742
  95.1783116  66.8159486  29.8329297  88.3608137  68.6379920  18.7083672
  88.3378825  68.7367608  17.7565555  88.6708773  69.4845071  19.0300838
  91.0195515  70.6956075  22.8230287  91.9738768  70.6640018  22.7560218
  90.8208038  70.2346699  23.6380512  91.6094897  69.2657192  25.3901084
  92.4287786  69.7601270  25.4135921  91.8831704  68.3489160  25.3618652
 101.3661493  61.6567944  14.7529040 100.4787348  61.9417594  14.5349234
 101.7815482  61.4961707  13.9056317 104.7176029  61.6814465  18.4683379
 105.4936419  62.1710917  18.7407996 103.9924163  62.1072519  18.9255248
 107.1548588  62.3942084  19.5257320 107.7493078  62.1537820  18.8150628
 107.2275171  61.6749215  20.1530856  89.3745743  76.2375695  19.8400484
  89.2400211  75.4776096  19.2738482  88.9577806  76.9616595  19.3729273
 101.3402517  67.1722480  14.9679330 101.2837718  67.6291031  14.1286962
 101.8930859  66.4113164  14.7902173 105.1507323  62.9612212  15.7929449
 104.8944257  62.5608847  16.6237657 104.5260191  63.6756006  15.6679589
 109.4619660  65.7008285  18.3000741 108.9019218  65.7701474  19.0732303
 108.8563164  65.5249269  17.5800237  92.5314869  77.1345012  20.0518927
  92.4147253  78.0790444  19.9497617  91.7107315  76.8318574  20.4404726
 102.0737296  68.3627261  12.2631859 102.0186100  68.1971532  11.3220303
 101.4483351  69.0703294  12.4194049  86.8629811  63.5995325  26.0893281
  87.5088675  63.0894279  26.5780506  86.6546962  64.3364007  26.6636706
  99.3883203  70.6676173  31.5885422 100.2574363  70.8416825  31.2272057
  98.9089955  71.4870590  31.4661151  95.3833421  57.8635370  11.8417177
  95.3712091  58.8077210  11.9985448  96.2756843  57.6805515  11.5476639
  93.5569383  77.7873274  23.2674855  94.4596630  77.8196884  23.5841350
  93.3306753  76.8573725  23.2821191  95.3122985  76.5404260  19.9284934
  94.3618616  76.5406122  19.8149306  95.6155471  75.7936995  19.4120969
  99.1985541  54.4578147  16.0963114  98.4317937  53.9036633  16.2419797
  99.6096246  54.5300015  16.9577266  91.2027302  60.7462942  30.1868295
  92.0658763  60.3899747  30.3971620  90.6292713  60.4076837  30.8743700
 107.8565385  82.3292227  20.9292221 107.5183897  82.2133292  20.0412756
 108.7255153  81.9283392  20.9093227 108.3385168  83.4827079  26.8878427
 108.3273809  83.0879877  26.0158930 108.5005808  82.7493151  27.4812198
 105.0592429  86.2664190  25.8357611 104.7682295  87.1709821  25.7204277
 105.6949414  86.3080718  26.5501680 105.9848636  83.6441039  22.4258970
 106.5812208  83.4197061  21.7115933 106.0423608  82.9025784  23.0284418
 113.5250795  73.7513060  23.4311492 113.1934120  74.6208471  23.2072707
 112.9296408  73.4349344  24.1105522 103.4694796  82.4039403  18.8644109
 102.5445292  82.2715617  19.0721801 103.7179209  83.1833622  19.3614051
 113.4179458  78.4708146  20.5104842 112.5096335  78.4023555  20.2163603
 113.3667054  78.9480091  21.3386667 100.8303607  82.0472676  19.6987898
 100.9595988  82.3007155  20.6127310 100.1501058  82.6400384  19.3792553
 107.4920324  79.8897792  28.4539739 106.7153658  80.4491712  28.4442604
 108.1310887  80.3754575  28.9754609 115.2841105  76.6724585  22.2882716
 114.6415485  76.9657118  21.6422510 114.7796033  76.5577505  23.0935912
 105.7466696  82.6983245  28.0157706 106.4881381  83.2368289  27.7392530
 105.0403682  83.3249534  28.1729258 111.2222036  84.8412386  26.6129867
 111.6305392  84.3994796  25.8684500 110.4999297  84.2665013  26.8664060
 107.5753106  79.7784992  23.9863424 108.4214301  80.2024406  24.1298073
 107.5151744  79.1218617  24.6801988 110.7252551  77.4389361  25.6444598
 110.4813483  78.1931421  25.1078874 111.0012482  77.8174708  26.4791845
 112.6791014  83.9827973  24.3221864 112.8907909  84.6259733  23.6456245
 112.6320762  83.1490290  23.8543794 110.2817243  76.5945794  21.2258436
 109.4201722  76.8927047  21.5175173 110.3079678  76.8116193  20.2939468
 104.4828060  79.8522893  28.8173016 103.8526721  80.5339174  29.0508413
 104.3764148  79.7405975  27.8726154  99.7773032  79.5194689  19.7438940
  98.9872086  79.7752218  19.2679051 100.2684280  80.3343027  19.8490981
 107.5593445  86.4083972  24.6504931 107.6237878  86.8704379  25.4863103
 106.8504369  85.7781337  24.7787241  98.0610735  79.7725180  22.1753931
  98.3118774  80.6572190  22.4411507  98.5970284  79.5929781  21.4029023
 103.7608803  74.1543659  31.1798267 103.3675748  73.6009858  31.8545911
 104.5774943  74.4654238  31.5704785 106.6776764  75.5701538  28.7718524
 107.4186477  76.1708691  28.6922986 106.9094686  74.8279176  28.2136566
 101.8218102  80.7557905  27.0496753 101.7071617  79.8543163  27.3503852
 100.9662619  81.0021602  26.6981570 108.9009939  88.6975646  28.6484254
 108.4573794  87.9112024  28.3305158 109.5627153  88.8854796  27.9828145
 110.9991177  88.9778446  26.6765655 110.9809653  89.7987327  26.1845924
 111.9211098  88.8532521  26.9015796 107.4564232  86.4922575  27.5189163
 107.9892568  85.7310863  27.2888471 106.9278313  86.1996227  28.2613318
 110.6233927  71.5982641  23.0482805 110.2798196  72.4884283  22.9721916
 110.9912889  71.4084299  22.1852390 109.7030467  73.9687296  21.0132038
 109.1995263  73.9317431  20.1999844 109.9961074  74.8780039  21.0728695
 105.9473353  74.0526026  20.0198220 106.8126350  73.8568835  19.6604110
 106.0150862  73.8236378  20.9467577 103.5535672  76.2828234  17.3914587
 104.1279424  76.0603415  16.6587780 104.1406654  76.3516928  18.1443188
 105.8558340  73.1569483  16.1189656 105.2022752  72.8418500  15.4946271
 105.8138814  72.5345223  16.8449479 109.0896080  79.6451416  20.4437304
 108.1718641  79.8666363  20.2858992 109.5056224  79.7197727  19.5849011
 112.4221592  70.8576200  18.1500543 112.7280469  69.9973564  17.8626458
 113.1474197  71.4493821  17.9499537  98.7145948  81.2606887  16.5382141
  98.5170348  80.6676248  15.8133207  98.1592612  80.9559097  17.2558080
 110.2309244  80.2348878  25.2482007 110.5858631  80.4620351  26.1076473
 110.8781375  80.5667254  24.6259262 104.1249107  77.3425409  22.0328348
 104.7648486  77.2014168  21.3351311 103.2926637  77.0559922  21.6566950
 101.1277723  77.3125734  16.8101335 101.3884540  78.2271067  16.7010495
 101.9494895  76.8450176  16.9597947 102.6002648  78.7263491  23.9800159
 103.2725702  78.5180853  23.3312808 101.7732435  78.5285577  23.5405391
 108.5028220  75.3525432  25.9965820 107.8556135  76.0515381  25.9030296
 109.2729236  75.7861576  26.3642068 111.9107018  85.6174284  29.0716373
 111.7592525  85.3884836  28.1546457 111.9011698  86.5744885  29.0847718
 108.6792355  83.1906197  24.0562640 109.6084415  83.3417356  23.8831607
 108.2583385  83.2790217  23.2011286 103.0030146  82.0006094  24.7402596
 102.8649944  81.2686333  25.3414135 103.9135069  81.9114994  24.4586784
 105.6312446  81.7126053  24.2286276 106.3412065  81.0719245  24.1872894
 105.5881755  81.9638948  25.1512457 104.3441380  78.6991271  26.0481915
 103.8078737  78.2482009  26.7003512 103.7558089  78.8337180  25.3052380
 113.6216632  86.6132990  25.3806835 112.7343411  86.2758912  25.5033234
 114.1915183  85.8816022  25.6175600  95.2745779  82.9457082  18.7049886
  95.9616819  82.6318812  18.1170902  95.1193908  83.8498447  18.4317138
 100.0780502  77.8347279  23.1334910  99.9938690  77.2272948  22.3985320
  99.2563208  78.3256297  23.1344406 110.2504215  76.3200842  18.5005105
 110.7472915  75.5670805  18.1806175 109.4791197  76.3565159  17.9348314
 106.8339184  78.4618225  18.2276790 106.4636972  77.9089266  18.9157695
 107.3298277  77.8576359  17.6751790 104.6628383  88.9215720  25.3231808
 105.3637842  89.5552203  25.4761202 104.1923498  89.2630452  24.5627447
 112.6923210  73.2870436  20.6484464 111.7786290  73.5174663  20.8166671
 113.1216312  73.3708880  21.4998496 112.4629669  81.4760328  23.1484358
 111.8101119  81.7236235  22.4936811 112.8410049  80.6624466  22.8146835
 108.5117242  82.2180139  29.6350395 107.8357879  82.1174268  30.3052770
 109.3344876  82.0619352  30.0986392 100.2596101  88.4552075  22.2562910
 100.8449538  87.7095763  22.3890814 100.0620939  88.7656032  23.1399574
  94.8513756  81.0257675  20.9767353  94.8897855  80.4921266  21.7704471
  94.3454048  80.4992881  20.3578331 102.2304518  75.8722216  24.4729896
 102.2945844  76.7337047  24.0607293 102.1671638  75.2596218  23.7402254
 101.7056790  77.9445349  28.1202930 102.3328829  77.5622426  28.7340454
 100.8484709  77.7259550  28.4858622 112.1050899  88.3508324  29.7256665
 112.6490803  88.9638282  29.2311620 111.5237744  88.9087902  30.2423678
 102.0116580  77.8277774  20.0348833 101.2903166  78.4413742  19.8956307
 102.8009836  78.3635539  19.9565479 104.8142894  75.1632201  26.3089485
 105.3377295  75.4094497  27.0715794 104.5955227  75.9952236  25.8892622
 106.0195439  76.1045896  23.9939156 105.6792259  75.3053709  24.3959836
 105.3134445  76.4047607  23.4215989 106.6711911  73.1895208  22.4466479
 107.4937980  72.7155686  22.3245369 106.9149974  73.9685692  22.9465165
 104.1950489  79.8814329  20.2558457 104.0495070  80.1954632  21.1482739
 103.7175693  80.4999229  19.7029356 106.0546872  76.8716877  20.3039347
 106.0408441  75.9757970  19.9671645 106.7719300  76.8787541  20.9377633
 107.9073003  77.3054217  22.3492474 107.6490781  78.2271288  22.3476805
 107.3758043  76.9084652  23.0392938  98.6696151  82.4219673  23.1946118
  98.1249620  83.1979481  23.3266393  99.5475501  82.7690478  23.0365240
 108.3274958  73.4386168  18.7093637 108.3496655  73.5025501  17.7545616
 108.7443017  72.5990676  18.9034143  99.4562173  81.5489570  26.0876275
  98.7143909  81.6972205  26.6740906  99.1354918  81.8097835  25.2243025
 104.9424848  77.2663255  29.7816850 104.9913003  78.1425377  29.3994619
 105.4847362  76.7240648  29.2088493 115.4279693  87.8104378  29.0617987
 114.6375237  87.7928517  28.5222486 115.1913048  88.3492671  29.8167023
 115.5477568  84.6596844  26.3750715 115.5975573  84.4946852  27.3166238
 115.4391492  83.7924103  25.9848596 112.8381331  80.6427772  27.6910022
 113.7391194  80.5034237  27.3994020 112.9129305  80.8082227  28.6308199
 107.1724136  78.0194627  26.5363208 106.3027445  78.3128193  26.2645797
 107.4083616  78.6035072  27.2570472 115.2982953  82.2026400  25.0872795
 115.7737075  82.3954047  24.2791646 114.3748519  82.2585586  24.8416178
 109.8763170  74.2374244  24.0528629 110.3945114  74.9735271  23.7275117
 109.5218303  74.5438237  24.8875388 110.1275764  70.6574526  19.5729525
 110.4077518  69.9897715  20.1989952 110.9126371  70.8503622  19.0604189
 113.9984622  79.0792160  23.3201100 114.9502045  79.1790258  23.3413324
 113.8288073  78.2870429  23.8299185 112.0199002  76.1647744  23.5060501
 111.4248934  76.4452756  22.8106990 111.7348699  76.6541645  24.2777242
 116.6267189  79.0909323  22.4801683 116.1106237  78.3067780  22.2931612
 117.5107137  78.7628040  22.6448203 114.2877916  72.8350339  18.4397496
 114.0902737  72.5265427  19.3240828 114.8977621  73.5611978  18.5695426
 108.1994724  85.2212079  29.9371261 109.1197733  85.3990678  30.1311308
 108.1644307  84.2768125  29.7850960  97.4176889  80.4150673  18.8624536
  97.0979673  79.5615981  18.5698910  96.8710317  80.6299251  19.6182503
 101.1956796  83.1313114  22.5794042 101.4142806  84.0630222  22.5982076
 101.6082570  82.7721088  23.3648846 110.0451562  72.7159246  16.1894027
 110.5982601  73.1354699  16.8484050 110.2821649  71.7894994  16.2316983
 106.0684661  78.7046320  31.9696791 105.9681388  79.6540677  31.9008882
 105.8506204  78.3764558  31.0972861  97.2865149  84.0353584  20.8317657
  96.5928620  83.6207537  20.3187612  98.0338140  84.0774121  20.2351076
 105.9315932  82.1343458  30.7861853 105.4483013  82.9343819  30.9925742
 106.0176871  82.1451403  29.8329297  99.2001891  83.9671838  18.7083672
  99.1772579  84.0659525  17.7565555  99.5102528  84.8136989  19.0300838
 101.8589269  86.0247993  22.8230287 102.8132523  85.9931935  22.7560218
 101.6601793  85.5638617  23.6380512 102.4488651  84.5949109  25.3901084
 103.2681540  85.0893188  25.4135921 102.7225459  83.6781077  25.3618652
  97.7023565  78.9287243  26.0893281  98.3482429  78.4186197  26.5780506
  97.4940717  79.6655925  26.6636706 110.2276958  85.9968091  31.5885422
 111.0968117  86.1708743  31.2272057 109.7483709  86.8162507  31.4661151
 110.0379295  69.7870064  16.0963114 109.2711691  69.2328551  16.2419797
 110.4490000  69.8591933  16.9577266 102.0421056  76.0754860  30.1868295
 102.9052518  75.7191665  30.3971620 101.4686467  75.7368755  30.8743700
 114.6002557  89.4835577  31.1798267 114.2069503  88.9301775  31.8545911
 115.4168697  89.7946155  31.5704785 116.9078416  94.0338237  31.9696791
 116.8075143  94.9832594  31.9008882 116.6899958  93.7056476  31.0972861
 112.8814811  91.4046778  30.1868295 113.7446272  91.0483583  30.3971620
 112.3080222  91.0660673  30.8743700  68.7475882   4.0402776  16.4501972
  69.2915786   4.6532734  15.9556927  68.1662727   4.5982354  16.9668985
  72.0704677   3.4998830  15.7863293  71.2800220   3.4822969  15.2467793
  71.8338031   4.0387123  16.5412330  66.8701941   1.6862542  18.3130728
  67.7393101   1.8603195  17.9517363  66.3908692   2.5056959  18.1906458
  78.5294417  13.3951168   7.7176003  79.1672827  13.2757916   7.0139343
  78.4115260  14.3432012   7.7763955  75.8203906  14.5013448  13.6123733
  75.8092547  14.1066246  12.7404237  75.9824545  13.7679521  14.2057505
  72.5411167  17.2850560  12.5602917  72.2501033  18.1896191  12.4449584
  73.1768151  17.3267088  13.2746987  73.4667374  14.6627409   9.1504277
  74.0630946  14.4383431   8.4361240  73.5242345  13.9212154   9.7529725
  77.5001052  16.9711976   9.5552711  77.2001775  17.8737014   9.4468518
  77.1552112  16.7044159  10.4073864  72.4821832  23.7356296   2.5223679
  72.4045862  24.6864121   2.6012159  71.8783476  23.3902168   3.1798605
  74.9739062  10.9084161  15.1785046  74.1972396  11.4678081  15.1687910
  75.6129625  11.3940944  15.6999916  73.2285434  13.7169615  14.7403013
  73.9700118  14.2554659  14.4637836  72.5222419  14.3435903  14.8974564
  78.7040774  15.8598755  13.3375174  79.1124130  15.4181166  12.5929806
  77.9818035  15.2851383  13.5909367  75.0571844  10.7971362  10.7108731
  75.9033039  11.2210775  10.8543380  74.9970481  10.1404986  11.4047294
  79.0269588  16.4199946   7.0927463  78.3978451  16.5845660   6.3903531
  78.6395250  16.8341555   7.8638427  78.2071289   8.4575730  12.3689905
  77.9632221   9.2117791  11.8324180  78.4831220   8.8361078  13.2037152
  80.1609752  15.0014343  11.0467170  80.3726647  15.6446103  10.3701551
  80.1139500  14.1676659  10.5789100  71.9646798  10.8709263  15.5418323
  71.3345458  11.5525544  15.7753719  71.8582886  10.7592344  14.5971461
  81.2755580  17.8786298   9.2189528  82.0973023  17.4766485   8.9372209
  81.2717983  17.7754532  10.1705643  75.0412183  17.4270341  11.3750238
  75.1056616  17.8890749  12.2108410  74.3323107  16.7967706  11.5032548
  71.2427540   5.1730029  17.9043574  70.8494486   4.6196227  18.5791218
  72.0593681   5.4840607  18.2950091  74.1595501   6.5887908  15.4963830
  74.9005215   7.1895061  15.4168293  74.3913424   5.8465546  14.9381873
  69.3036839  11.7744275  13.7742060  69.1890355  10.8729532  14.0749159
  68.4481357  12.0207972  13.4226876  76.3828677  19.7162015  15.3729561
  75.9392531  18.9298394  15.0550465  77.0445891  19.9041166  14.7073451
  71.1415798  21.2457817   9.8990239  71.6923224  21.1174880   9.1267233
  70.3027274  21.5452706   9.5485132  78.4809915  19.9964815  13.4010962
  78.4628391  20.8173696  12.9091231  79.4029835  19.8718890  13.6261103
  74.9382969  17.5108945  14.2434470  75.4711306  16.7497233  14.0133778
  74.4097051  17.2182597  14.9858625  79.3028722  20.0070829   3.9853231
  79.5951697  20.5675886   3.2665597  79.8127343  20.2999390   4.7406390
  74.2662348  20.7851180   5.0746684  74.2238526  21.0112026   4.1455216
  75.1825046  20.5514554   5.2232485  77.7127981  11.2535247  11.9727313
  78.0677369  11.4806720  12.8321779  78.3600113  11.5853624  11.3504569
  77.2022993  20.0432304   9.2221015  77.2560015  20.6123240   9.9898730
  76.3337774  20.2134189   8.8575052  84.3310648  16.4853911  10.2220799
  84.5246538  17.3899721  10.4680074  84.2311266  16.0261330  11.0559384
  75.9846958   6.3711801  12.7211127  75.3374873   7.0701751  12.6275603
  76.7547974   6.8047945  13.0887375  79.3925756  16.6360653  15.7961680
  79.2411263  16.4071205  14.8791764  79.3830436  17.5931255  15.8093025
  76.1611093  14.2092566  10.7807946  77.0903153  14.3603726  10.6076914
  75.7402123  14.2976587   9.9256593  74.9599424  18.2343231   8.5506484
  74.8210510  17.8662015   9.4232422  74.1714021  18.7490870   8.3790442
  76.5104640  17.6124833   5.9395322  76.1754472  17.5725603   6.8352972
  76.0108585  16.9469549   5.4665732  70.4848883  13.0192463  11.4647903
  70.3468681  12.2872702  12.0659442  71.3953807  12.9301363  11.1832091
  73.1131184  12.7312423  10.9531583  73.8230803  12.0905615  10.9118201
  73.0700492  12.9825318  11.8757763  81.1017963  19.6679776  13.8738162
  81.0430509  18.9838996  13.2068745  81.5037481  20.4098766  13.4218788
  71.8260118   9.7177641  12.7727222  71.2897475   9.2668379  13.4248818
  71.2376827   9.8523549  12.0297686  70.1208662  26.4841690   6.6671881
  70.3605260  27.1160214   7.3450899  69.2777858  26.1329730   6.9537240
  81.1035370  17.6319360  12.1052141  80.2162149  17.2945282  12.2278540
  81.6733921  16.9002391  12.3420907  74.6336524  22.2920812   9.0713385
  74.5606695  23.0975784   9.5832689  74.1913917  22.4912778   8.2461406
  77.0935207  22.1907646  11.2271543  77.8063179  22.8255111  11.1547445
  76.6025236  22.2871512  10.4111545  72.1447121  19.9402090  12.0477114
  72.8456580  20.5738573  12.2006508  71.6742236  20.2816821  11.2872753
  79.9448407  12.4946697   9.8729665  79.2919857  12.7422605   9.2182117
  80.3228786  11.6810835   9.5392142  76.9055580  22.5306390   3.9757835
  77.0877975  21.7128046   4.4385587  77.7288566  22.7474083   3.5382725
  75.9935980  13.2366508  16.3595702  75.3176617  13.1360638  17.0298077
  76.8163613  13.0805722  16.8231699  67.7414839  19.4738445   8.9808217
  68.3268275  18.7282133   9.1136121  67.5439677  19.7842402   9.8644881
  74.7358762  24.5433436  10.5953318  75.2877070  24.7065057  11.3602403
  75.0764956  25.1337874   9.9233342  69.1875528   8.9631718  14.8448237
  69.8147567   8.5808795  15.4585761  68.3303447   8.7445920  15.2103929
  79.5869637  19.3694693  16.4501972  80.1309541  19.9824652  15.9556927
  79.0056482  19.9274272  16.9668985  77.8727150  22.4915411   7.5817000
  77.7478289  21.6905151   7.0727945  78.5306241  22.9861605   7.0930970
  79.9362058  20.2924431   9.2096550  78.9892394  20.1729783   9.1374877
  80.2844831  19.4046929   9.2922811  72.2961631   6.1818570  13.0334792
  72.8196033   6.4280867  13.7961101  72.0773965   7.0138605  12.6137929
  76.9408491  20.0877148   5.4100902  76.7933454  19.1593855   5.5908472
  77.7661985  20.1097238   4.9257977  80.5442613  20.9105706   6.4965775
  81.4689161  20.7048568   6.3590226  80.3757917  20.6622107   7.4055116
  66.9380911  12.5675939  12.8121582  66.1962647  12.7158574  13.3986212
  66.6173655  12.8284205  11.9488331  74.8824574  22.1091917  12.6101972
  75.1911700  21.8641064  13.4824672  75.6800056  22.3138556  12.1220842
  74.9045186  24.2629827   4.8407349  74.4650176  23.7706206   5.5340205
  75.6553303  23.7202795   4.5999424  72.3519058  19.8067836   6.9129650
  71.7299067  19.1438541   6.6131878  73.0223925  19.8328968   6.2303298
  72.4243585   8.2849624  16.5062156  72.4731741   9.1611747  16.1239926
  72.9666100   7.7427017  15.9333799  82.9098431  18.8290747  15.7863293
  82.1193975  18.8114886  15.2467793  82.6731786  19.3679041  16.5412330
  83.0296306  15.6783214  13.0996022  83.0794311  15.5133221  14.0411545
  82.9210230  14.8110473  12.7093903  80.3200069  11.6614142  14.4155329
  81.2209931  11.5220607  14.1239326  80.3948043  11.8268597  15.3553506
  74.6542874   9.0380997  13.2608515  73.7846183   9.3314563  12.9891103
  74.8902354   9.6221441  13.9815778  84.5314503  18.0980155  13.3438043
  84.2399311  18.4610136  14.1801504  83.9186634  17.3847164  13.1651375
  82.7801691  13.2212770  11.8118101  83.2555813  13.4140416  11.0036953
  81.8567257  13.2771956  11.5661485  79.5017740   7.1834113  10.2305808
  78.9067672   7.4639126   9.5352296  79.2167436   7.6728014  11.0022549
  75.6813461  16.2398449  16.6616568  76.6016471  16.4177048  16.8556614
  75.6463044  15.2954494  16.5096267  73.5503399   9.7232689  18.6942098
  73.4500126  10.6727046  18.6254189  73.3324941   9.3950928  17.8218168
  73.4134669  13.1529828  17.5107159  72.9301751  13.9530188  17.7171048
  73.4995608  13.1637773  16.5574603  69.3408007  17.0434363   9.5475593
  70.2951260  17.0118305   9.4805525  69.1420530  16.5824986  10.3625819
  69.9307389  15.6135479  12.1146391  70.7500278  16.1079557  12.1381228
  70.2044197  14.6967447  12.0863958  67.6958236  22.5853982   6.5645791
  67.5612704  21.8254383   5.9983789  67.2790298  23.3094882   6.0974580
  70.8527361  23.4823299   6.7764234  70.7359746  24.4268732   6.6742924
  70.0319808  23.1796861   7.1650033  77.7095695  17.0154460  18.3130728
  78.5786855  17.1895112  17.9517363  77.2302447  17.8348877  18.1906458
  71.8781876  24.1351561   9.9920162  72.7809122  24.1675171  10.3086657
  71.6519246  23.2052012  10.0066498  73.6335478  22.8882548   6.6530241
  72.6831109  22.8884409   6.5394613  73.9367964  22.1415282   6.1366275
  69.5239794   7.0941230  16.9113602  70.3871256   6.7378035  17.1216927
  68.9505205   6.7555125  17.5989006  89.3688171  28.7243086   7.7176003
  90.0066581  28.6049833   7.0139343  89.2509014  29.6723930   7.7763955
  86.1777877  28.6770514   7.6537528  85.8396389  28.5611579   6.7658063
  87.0467646  28.2761679   7.6338534  82.0364693  30.5305991   3.6434419
  81.4729558  30.4395928   2.8750707  81.9217088  29.7105895   4.1236911
  86.6597660  29.8305366  13.6123733  86.6486301  29.4358164  12.7404237
  86.8218300  29.0971438  14.2057505  79.5829125  32.0257182   6.4818639
  80.3750417  31.6848007   6.0664939  79.8225775  32.1352157   7.4020793
  81.5419879  31.2866095  -0.6463982  82.3150755  30.7395083  -0.7851106
  81.8945278  32.1510345  -0.4349521  83.3804922  32.6142478  12.5602917
  83.0894788  33.5188109  12.4449584  84.0161906  32.6559005  13.2746987
  84.3061128  29.9919326   9.1504277  84.9024701  29.7675349   8.4361240
  84.3636100  29.2504072   9.7529725  88.3394807  32.3003893   9.5552711
  88.0395530  33.2028932   9.4468518  87.9945866  32.0336076  10.4073864
  81.7907288  28.7517690   5.5889415  80.8657785  28.6193904   5.7967107
  82.0391701  29.5311909   6.0859358  79.1516099  28.3950964   6.4233204
  79.2808480  28.6485443   7.3372616  78.4713550  28.9878672   6.1037860
  83.3215586  39.0648214   2.5223679  83.2439616  40.0156039   2.6012159
  82.7177230  38.7194086   3.1798605  85.8132816  26.2376079  15.1785046
  85.0366150  26.7969999  15.1687910  86.4523379  26.7232862  15.6999916
  84.0679188  29.0461532  14.7403013  84.8093873  29.5846576  14.4637836
  83.3616174  29.6727821  14.8974564  89.5434528  31.1890673  13.3375174
  89.9517884  30.7473083  12.5929806  88.8211790  30.6143300  13.5909367
  85.8965598  26.1263280  10.7108731  86.7426793  26.5502693  10.8543380
  85.8364236  25.4696904  11.4047294  89.8663343  31.7491863   7.0927463
  89.2372205  31.9137578   6.3903531  89.4789005  32.1633473   7.8638427
  89.0465044  23.7867648  12.3689905  88.8025975  24.5409708  11.8324180
  89.3224974  24.1652996  13.2037152  91.0003506  30.3306260  11.0467170
  91.2120402  30.9738020  10.3701551  90.9533255  29.4968577  10.5789100
  85.4191305  31.4866272   4.3577548  85.8829650  31.7653974   3.5682171
  85.1548103  30.5849716   4.1750639  82.3115386  31.0337753   7.2957311
  82.8816743  31.4625021   6.6574796  82.9023498  30.7520338   7.9941497
  82.8040552  26.2001181  15.5418323  82.1739213  26.8817461  15.7753719
  82.6976640  26.0884262  14.5971461  78.0985525  25.8672977   6.4684247
  77.3084579  26.1230505   5.9924357  78.5896772  26.6821314   6.5736287
  92.1149334  33.2078216   9.2189528  92.9366778  32.8058403   8.9372209
  92.1111737  33.1046450  10.1705643  80.0500270  26.2317556   3.4267723
  79.2531433  26.3436250   3.9451219  79.8225862  26.5704208   2.5608614
  85.8805938  32.7562259  11.3750238  85.9450370  33.2182666  12.2108410
  85.1716862  32.1259624  11.5032548  76.3823228  26.1203467   8.8999238
  76.6331266  27.0050477   9.1656814  76.9182776  25.9408069   8.1274329
  85.5953955  34.4230367   1.2429218  85.4599630  35.2681902   1.6714066
  86.1363768  34.6249644   0.4795152  82.0821295  20.5021946  17.9043574
  81.6888241  19.9488145  18.5791218  82.8987435  20.8132525  18.2950091
  79.0483353  31.9405805   1.8157144  79.5607873  32.7349055   1.9662708
  79.7006066  31.2432095   1.7490745  80.8578237  35.0571561   3.8979897
  81.0344866  35.9789526   3.7100881  81.6535071  34.7429980   4.3274276
  84.9989256  21.9179825  15.4963830  85.7398969  22.5186979  15.4168293
  85.2307179  21.1757463  14.9381873  80.1430594  27.1036193  13.7742060
  80.0284109  26.2021450  14.0749159  79.2875112  27.3499889  13.4226876
  87.2222432  35.0453933  15.3729561  86.7786286  34.2590312  15.0550465
  87.8839645  35.2333084  14.7073451  81.9809553  36.5749735   9.8990239
  82.5316978  36.4466798   9.1267233  81.1421029  36.8744624   9.5485132
  89.3203670  35.3256733  13.4010962  89.3022145  36.1465614  12.9091231
  90.2423590  35.2010808  13.6261103  85.7776724  32.8400862  14.2434470
  86.3105061  32.0789151  14.0133778  85.2490805  32.5474514  14.9858625
  77.0132269  30.2694459   2.5916714  77.8507492  30.6791467   2.3750422
  77.1910537  29.3293901   2.5616908  87.4108572  25.9929704   7.1682611
  86.4931134  26.2144651   7.0104299  87.8268716  26.0676014   6.3094318
  90.1422477  35.3362746   3.9853231  90.4345451  35.8967803   3.2665597
  90.6521097  35.6291307   4.7406390  77.0358441  27.6085174   3.2627447
  76.8382840  27.0154535   2.5378514  76.4805105  27.3037384   3.9803386
  85.0155164  27.5008281   5.3822041  85.0703774  26.5482117   5.3064517
  84.2046366  27.6567720   5.8663339  82.9547524  26.1185340   3.1412419
  82.1415390  26.4179511   3.5477612  83.4506518  25.7241029   3.8586902
  85.1056102  36.1143097   5.0746684  85.0632281  36.3403944   4.1455216
  86.0218801  35.8806472   5.2232485  88.5521736  26.5827165  11.9727313
  88.9071124  26.8098638  12.8321779  89.1993867  26.9145542  11.3504569
  82.4461599  23.6903696   8.7573654  83.0860978  23.5492455   8.0596618
  81.6139130  23.4038209   8.3812256  83.2221903  32.9906126   4.8708647
  84.0162501  32.4956446   4.6691222  82.5113595  32.4623989   4.5076352
  88.0416747  35.3724222   9.2221015  88.0953770  35.9415158   9.9898730
  87.1731529  35.5426107   8.8575052  79.5304666  27.1349208   0.9468400
  78.6002254  27.0733664   1.1638362  79.6262138  26.6125161   0.1505041
  79.4490215  23.6604021   3.5346641  79.7097033  24.5749354   3.4255802
  80.2707388  23.1928463   3.6843254  80.9215141  25.0741778  10.7045466
  81.5938194  24.8659140  10.0558115  80.0944927  24.8763864  10.2650698
  95.1704402  31.8145828  10.2220799  95.3640292  32.7191639  10.4680074
  95.0705020  31.3553247  11.0559384  86.8240713  21.7003719  12.7211127
  86.1768628  22.3993669  12.6275603  87.5941728  22.1339863  13.0887375
  90.2319511  31.9652571  15.7961680  90.0805017  31.7363123  14.8791764
  90.2224190  32.9223173  15.8093025  87.0004847  29.5384484  10.7807946
  87.9296907  29.6895644  10.6076914  86.5795877  29.6268505   9.9256593
  85.7993179  33.5635148   8.5506484  85.6604265  33.1953933   9.4232422
  85.0107775  34.0782788   8.3790442  86.3941331  38.6644245  -0.1067979
  86.5693087  38.1932288   0.7077643  85.7074119  39.2910011   0.1213281
  87.3498394  32.9416751   5.9395322  87.0148227  32.9017521   6.8352972
  86.8502340  32.2761467   5.4665732  81.3242638  28.3484381  11.4647903
  81.1862436  27.6164620  12.0659442  82.2347561  28.2593281  11.1832091
  83.9524939  28.0604340  10.9531583  84.6624557  27.4197533  10.9118201
  83.9094247  28.3117235  11.8757763  91.9411717  34.9971694  13.8738162
  91.8824263  34.3130914  13.2068745  92.3431236  35.7390684  13.4218788
  82.6653873  25.0469558  12.7727222  82.1291230  24.5960297  13.4248818
  82.0770581  25.1815467  12.0297686  80.9602416  41.8133608   6.6671881
  81.1999014  42.4452132   7.3450899  80.1171613  41.4621648   6.9537240
  91.9429125  32.9611278  12.1052141  91.0555903  32.6237199  12.2278540
  92.5127676  32.2294309  12.3420907  73.5958272  29.2935369   5.4295193
  74.2829312  28.9797099   4.8416208  73.4406400  30.1976734   5.1562444
  78.3992994  24.1825566   9.8580217  78.3151183  23.5751235   9.1230626
  77.5775700  24.6734584   9.8589713  85.4730278  37.6212730   9.0713385
  85.4000449  38.4267701   9.5832689  85.0307671  37.8204696   8.2461406
  85.2620058  36.8584500   2.5816206  84.4787580  37.4006180   2.6754431
  85.9612803  37.3758480   2.9810447  87.9328962  37.5199564  11.2271543
  88.6456934  38.1547029  11.1547445  87.4418990  37.6163430  10.4111545
  82.9840875  35.2694007  12.0477114  83.6850335  35.9030490  12.2006508
  82.5135990  35.6108739  11.2872753  90.7842161  27.8238615   9.8729665
  90.1313611  28.0714522   9.2182117  91.1622541  27.0102753   9.5392142
  87.7449335  37.8598308   3.9757835  87.9271729  37.0419964   4.4385587
  88.5682321  38.0766000   3.5382725  88.0791500  36.7866493   1.2372883
  88.6079267  36.2758948   0.6243045  88.3419720  36.4709023   2.1018416
  86.8329734  28.5658426  16.3595702  86.1570371  28.4652555  17.0298077
  87.6557368  28.4097640  16.8231699  78.5808593  34.8030363   8.9808217
  79.1662030  34.0574050   9.1136121  78.3833432  35.1134319   9.8644881
  81.4347248  37.8381610   3.9970659  80.7657624  38.3227738   3.5134699
  81.2960118  38.0850830   4.9114038  73.1726248  27.3735963   7.7012660
  73.2110347  26.8399553   8.4949778  72.6666541  26.8471168   7.0823637
  85.5752517  39.8725353  10.5953318  86.1270825  40.0356975  11.3602403
  85.9158710  40.4629791   9.9233342  80.5517010  22.2200503  11.1975202
  80.6158337  23.0815334  10.7852600  80.4884130  21.6074505  10.4647561
  80.0269283  24.2923636  14.8448237  80.6541321  23.9100713  15.4585761
  79.1697202  24.0737838  15.2103929  90.4263391  34.6986611  16.4501972
  90.9703295  35.3116569  15.9556927  89.8450236  35.2566189  16.9668985
  76.8034825  26.1000065   0.7766591  77.0988267  25.1910743   0.7233645
  75.9022861  26.0787804   0.4547594  88.7120904  37.8207329   7.5817000
  88.5872044  37.0197069   7.0727945  89.3699995  38.3153522   7.0930970
  80.3329072  24.1756061   6.7594140  79.6115658  24.7892029   6.6201613
  81.1222328  24.7113826   6.6810786  90.7755813  35.6216349   9.2096550
  89.8286148  35.5021700   9.1374877  91.1238586  34.7338847   9.2922811
  83.1355386  21.5110488  13.0334792  83.6589788  21.7572785  13.7961101
  82.9167719  22.3430523  12.6137929  78.5322667  23.7814163   0.9005917
  78.2035373  22.9011541   0.7181022  78.8862038  23.7261831   1.7882306
  87.7802246  35.4169065   5.4100902  87.6327208  34.4885773   5.5908472
  88.6055739  35.4389156   4.9257977  91.3836368  36.2397624   6.4965775
  92.3082915  36.0340485   6.3590226  91.2151671  35.9914025   7.4055116
  84.3407931  22.4524183  10.7184462  84.0004751  21.6531996  11.1205142
  83.6346937  22.7525894  10.1461295  84.9924403  19.5373495   9.1711785
  85.8150472  19.0633974   9.0490676  85.2362466  20.3163979   9.6710472
  82.5162982  26.2292616   6.9803764  82.3707562  26.5432919   7.8728045
  82.0388185  26.8477516   6.4274663  84.3759364  23.2195164   7.0284653
  84.3620933  22.3236257   6.6916951  85.0931793  23.2265828   7.6622940
  86.2285495  23.6532504   9.0737781  85.9703273  24.5749575   9.0722111
  85.6970536  23.2562939   9.7638245  76.9908644  28.7697961   9.9191425
  76.4462112  29.5457768  10.0511699  77.8687994  29.1168765   9.7610547
  77.7774666  27.8967857  12.8121582  77.0356402  28.0450492  13.3986212
  77.4567410  28.1576122  11.9488331  85.7218328  37.4383835  12.6101972
  86.0305455  37.1932982  13.4824672  86.5193810  37.6430473  12.1220842
  85.7438940  39.5921745   4.8407349  85.3043931  39.0998123   5.5340205
  86.4947057  39.0494712   4.5999424  78.2231279  35.7833286   4.8431977
  79.0489299  35.4837057   4.4630620  77.8725331  35.0140908   5.2921765
  83.1912812  35.1359754   6.9129650  82.5692822  34.4730459   6.6131878
  83.8617679  35.1620886   6.2303298  76.4239884  33.7019612   5.8020910
  75.5871793  33.2741786   5.6204911  76.3963530  33.8952055   6.7391701
  83.2637340  23.6141542  16.5062156  83.3125495  24.4903665  16.1239926
  83.8059854  23.0718935  15.9333799  93.7492186  34.1582665  15.7863293
  92.9587729  34.1406804  15.2467793  93.5125540  34.6970959  16.5412330
  93.8690061  31.0075131  13.0996022  93.9188066  30.8425139  14.0411545
  93.7603984  30.1402390  12.7093903  82.7526319  33.6863677   0.3888111
  82.9014440  34.3699141  -0.2645217  83.5592763  33.6668767   0.9037566
  91.1593823  26.9906059  14.4155329  92.0603686  26.8512524  14.1239326
  91.2341798  27.1560514  15.3553506  85.4936628  24.3672914  13.2608515
  84.6239938  24.6606480  12.9891103  85.7296109  24.9513359  13.9815778
  95.3708257  33.4272073  13.3438043  95.0793066  33.7902053  14.1801504
  94.7580389  32.7139081  13.1651375  93.6195446  28.5504688  11.8118101
  94.0949567  28.7432334  11.0036953  92.6961011  28.6063873  11.5661485
  80.5078952  29.7128855   1.3949180  80.2624994  28.8091185   1.5929390
  80.6774867  29.7146005   0.4528658  88.1975662  20.5852531  10.7773935
  88.7157606  21.3213558  10.4520424  87.8430795  20.8916524  11.6120694
  90.3411494  22.5126031  10.2305808  89.7461426  22.7931044   9.5352296
  90.0561191  23.0019932  11.0022549  86.5207216  31.5690366  16.6616568
  87.4410225  31.7468965  16.8556614  86.4856799  30.6246412  16.5096267
  75.7389381  26.7628960   5.5869842  75.4192165  25.9094268   5.2944216
  75.1922809  26.9777538   6.3427810  79.5169288  29.4791401   9.3039349
  79.7355298  30.4108509   9.3227383  79.9295062  29.1199375  10.0894153
  84.3897154  25.0524607  18.6942098  84.2893881  26.0018964  18.6254189
  84.1718696  24.7242846  17.8218168  75.6077641  30.3831872   7.5562964
  74.9141112  29.9685824   7.0432918  76.3550632  30.4252408   6.9596383
  84.2528424  28.4821746  17.5107159  83.7695506  29.2822106  17.7171048
  84.3389363  28.4929691  16.5574603  77.5214383  30.3150125   5.4328979
  77.4985072  30.4137813   4.4810862  77.8315020  31.1615276   5.7546145
  80.1801761  32.3726280   9.5475593  81.1345015  32.3410223   9.4805525
  79.9814285  31.9116904  10.3625819  80.7701143  30.9427396  12.1146391
  81.5894032  31.4371475  12.1381228  81.0437951  30.0259365  12.0863958
  78.5351990  37.9145900   6.5645791  78.4006458  37.1546301   5.9983789
  78.1184052  38.6386800   6.0974580  81.6921116  38.8115217   6.7764234
  81.5753500  39.7560649   6.6742924  80.8713562  38.5088778   7.1650033
  76.0236058  25.2765530  12.8138588  76.6694921  24.7664484  13.3025813
  75.8153209  26.0134212  13.3882013  88.5489450  32.3446378  18.3130728
  89.4180610  32.5187030  17.9517363  88.0696201  33.1640795  18.1906458
  82.7175630  39.4643479   9.9920162  83.6202877  39.4967089  10.3086657
  82.4913000  38.5343930  10.0066498  84.4729232  38.2174465   6.6530241
  83.5224863  38.2176327   6.5394613  84.7761718  37.4707200   6.1366275
  80.3633549  22.4233147  16.9113602  81.2265010  22.0669952  17.1216927
  79.7898959  22.0847042  17.5989006 100.2081926  44.0535004   7.7176003
 100.8460336  43.9341751   7.0139343 100.0902768  45.0015848   7.7763955
  97.0171632  44.0062432   7.6537528  96.6790143  43.8903497   6.7658063
  97.8861400  43.6053597   7.6338534  92.8758448  45.8597908   3.6434419
  92.3123313  45.7687845   2.8750707  92.7610843  45.0397813   4.1236911
  97.4991415  45.1597284  13.6123733  97.4880056  44.7650082  12.7404237
  97.6612054  44.4263356  14.2057505  90.4222880  47.3549100   6.4818639
  91.2144171  47.0139924   6.0664939  90.6619530  47.4644075   7.4020793
  92.3813633  46.6158013  -0.6463982  93.1544509  46.0687000  -0.7851106
  92.7339032  47.4802262  -0.4349521  94.2198676  47.9434395  12.5602917
  93.9288542  48.8480026  12.4449584  94.8555660  47.9850923  13.2746987
  95.1454883  45.3211244   9.1504277  95.7418455  45.0967266   8.4361240
  95.2029854  44.5795989   9.7529725  99.1788561  47.6295811   9.5552711
  98.8789284  48.5320850   9.4468518  98.8339621  47.3627994  10.4073864
  92.6301043  44.0809608   5.5889415  91.7051539  43.9485822   5.7967107
  92.8785456  44.8603827   6.0859358  89.9909854  43.7242881   6.4233204
  90.1202235  43.9777360   7.3372616  89.3107305  44.3170589   6.1037860
  94.1609341  54.3940131   2.5223679  94.0833371  55.3447956   2.6012159
  93.5570984  54.0486004   3.1798605  96.6526571  41.5667997  15.1785046
  95.8759905  42.1261917  15.1687910  97.2917134  42.0524780  15.6999916
  94.9072943  44.3753450  14.7403013  95.6487627  44.9138494  14.4637836
  94.2009928  45.0019739  14.8974564 100.3828283  46.5182590  13.3375174
 100.7911639  46.0765001  12.5929806  99.6605544  45.9435218  13.5909367
  96.7359353  41.4555197  10.7108731  97.5820548  41.8794611  10.8543380
  96.6757990  40.7988822  11.4047294 100.7057097  47.0783781   7.0927463
 100.0765960  47.2429495   6.3903531 100.3182759  47.4925391   7.8638427
  99.8858798  39.1159566  12.3689905  99.6419730  39.8701626  11.8324180
 100.1618729  39.4944913  13.2037152 101.8397261  45.6598178  11.0467170
 102.0514156  46.3029938  10.3701551 101.7927009  44.8260495  10.5789100
  96.2585059  46.8158189   4.3577548  96.7223405  47.0945892   3.5682171
  95.9941857  45.9141634   4.1750639  93.1509140  46.3629671   7.2957311
  93.7210497  46.7916939   6.6574796  93.7417252  46.0812255   7.9941497
  93.6434307  41.5293098  15.5418323  93.0132967  42.2109379  15.7753719
  93.5370395  41.4176180  14.5971461  88.9379279  41.1964894   6.4684247
  88.1478333  41.4522423   5.9924357  89.4290527  42.0113232   6.5736287
 102.9543089  48.5370133   9.2189528 103.7760532  48.1350321   8.9372209
 102.9505492  48.4338368  10.1705643  90.8894025  41.5609473   3.4267723
  90.0925188  41.6728168   3.9451219  90.6619617  41.8996126   2.5608614
  96.7199692  48.0854177  11.3750238  96.7844125  48.5474584  12.2108410
  96.0110616  47.4551542  11.5032548  87.2216982  41.4495385   8.8999238
  87.4725021  42.3342395   9.1656814  87.7576531  41.2699986   8.1274329
  96.4347710  49.7522284   1.2429218  96.2993385  50.5973820   1.6714066
  96.9757522  49.9541562   0.4795152  92.9215049  35.8313864  17.9043574
  92.5281995  35.2780063  18.5791218  93.7381190  36.1424443  18.2950091
  89.8877107  47.2697722   1.8157144  90.4001628  48.0640972   1.9662708
  90.5399820  46.5724013   1.7490745  91.6971992  50.3863478   3.8979897
  91.8738620  51.3081443   3.7100881  92.4928825  50.0721898   4.3274276
  95.8383010  37.2471743  15.4963830  96.5792724  37.8478896  15.4168293
  96.0700933  36.5049381  14.9381873  90.9824348  42.4328110  13.7742060
  90.8677864  41.5313368  14.0749159  90.1268866  42.6791807  13.4226876
  98.0616186  50.3745851  15.3729561  97.6180040  49.5882229  15.0550465
  98.7233400  50.5625001  14.7073451  92.8203307  51.9041652   9.8990239
  93.3710732  51.7758716   9.1267233  91.9814783  52.2036541   9.5485132
 100.1597424  50.6548651  13.4010962 100.1415900  51.4757532  12.9091231
 101.0817344  50.5302726  13.6261103  96.6170478  48.1692780  14.2434470
  97.1498815  47.4081068  14.0133778  96.0884560  47.8766432  14.9858625
  87.8526024  45.5986377   2.5916714  88.6901246  46.0083385   2.3750422
  88.0304292  44.6585819   2.5616908  98.2502327  41.3221621   7.1682611
  97.3324888  41.5436568   7.0104299  98.6662470  41.3967932   6.3094318
 100.9816231  50.6654664   3.9853231 101.2739206  51.2259721   3.2665597
 101.4914852  50.9583225   4.7406390  87.8752195  42.9377092   3.2627447
  87.6776595  42.3446453   2.5378514  87.3198859  42.6329302   3.9803386
  95.8548919  42.8300198   5.3822041  95.9097529  41.8774035   5.3064517
  95.0440121  42.9859637   5.8663339  93.7941279  41.4477258   3.1412419
  92.9809144  41.7471429   3.5477612  94.2900273  41.0532947   3.8586902
  95.9449857  51.4435015   5.0746684  95.9026035  51.6695861   4.1455216
  96.8612555  51.2098390   5.2232485  99.3915490  41.9119083  11.9727313
  99.7464878  42.1390556  12.8321779 100.0387622  42.2437459  11.3504569
  93.2855353  39.0195614   8.7573654  93.9254733  38.8784373   8.0596618
  92.4532884  38.7330127   8.3812256  94.0615657  48.3198044   4.8708647
  94.8556256  47.8248364   4.6691222  93.3507350  47.7915907   4.5076352
  98.8810502  50.7016140   9.2221015  98.9347524  51.2707076   9.9898730
  98.0125283  50.8718025   8.8575052  90.3698421  42.4641126   0.9468400
  89.4396009  42.4025581   1.1638362  90.4655893  41.9417078   0.1505041
  90.2883970  38.9895939   3.5346641  90.5490787  39.9041272   3.4255802
  91.1101142  38.5220381   3.6843254  91.7608895  40.4033696  10.7045466
  92.4331949  40.1951058  10.0558115  90.9338682  40.2055782  10.2650698
 106.0098157  47.1437746  10.2220799 106.2034047  48.0483557  10.4680074
 105.9098775  46.6845165  11.0559384  97.6634467  37.0295637  12.7211127
  97.0162382  37.7285586  12.6275603  98.4335483  37.4631781  13.0887375
 101.0713265  47.2944489  15.7961680 100.9198772  47.0655041  14.8791764
 101.0617945  48.2515090  15.8093025  97.8398602  44.8676402  10.7807946
  98.7690662  45.0187561  10.6076914  97.4189632  44.9560422   9.9256593
  96.6386933  48.8927066   8.5506484  96.4998019  48.5245850   9.4232422
  95.8501530  49.4074705   8.3790442  97.2335085  53.9936162  -0.1067979
  97.4086841  53.5224206   0.7077643  96.5467873  54.6201929   0.1213281
  98.1892149  48.2708669   5.9395322  97.8541981  48.2309439   6.8352972
  97.6896094  47.6053385   5.4665732  92.1636392  43.6776299  11.4647903
  92.0256190  42.9456538  12.0659442  93.0741316  43.5885199  11.1832091
  94.7918693  43.3896258  10.9531583  95.5018312  42.7489450  10.9118201
  94.7488001  43.6409153  11.8757763 102.7805472  50.3263611  13.8738162
 102.7218018  49.6422832  13.2068745 103.1824990  51.0682601  13.4218788
  93.5047627  40.3761476  12.7727222  92.9684984  39.9252214  13.4248818
  92.9164336  40.5107385  12.0297686  91.7996171  57.1425525   6.6671881
  92.0392769  57.7744049   7.3450899  90.9565367  56.7913565   6.9537240
 102.7822879  48.2903195  12.1052141 101.8949658  47.9529117  12.2278540
 103.3521430  47.5586227  12.3420907  84.4352026  44.6227287   5.4295193
  85.1223066  44.3089017   4.8416208  84.2800155  45.5268652   5.1562444
  89.2386748  39.5117484   9.8580217  89.1544937  38.9043153   9.1230626
  88.4169455  40.0026502   9.8589713  96.3124032  52.9504648   9.0713385
  96.2394204  53.7559619   9.5832689  95.8701426  53.1496613   8.2461406
  96.1013812  52.1876418   2.5816206  95.3181334  52.7298098   2.6754431
  96.8006557  52.7050397   2.9810447  98.7722716  52.8491482  11.2271543
  99.4850688  53.4838947  11.1547445  98.2812745  52.9455348  10.4111545
  93.8234630  50.5985925  12.0477114  94.5244089  51.2322408  12.2006508
  93.3529745  50.9400657  11.2872753 101.6235916  43.1530533   9.8729665
 100.9707366  43.4006440   9.2182117 102.0016295  42.3394671   9.5392142
  98.5843089  53.1890226   3.9757835  98.7665484  52.3711882   4.4385587
  99.4076075  53.4057918   3.5382725  98.9185255  52.1158411   1.2372883
  99.4473021  51.6050866   0.6243045  99.1813474  51.8000941   2.1018416
  97.6723489  43.8950344  16.3595702  96.9964126  43.7944473  17.0298077
  98.4951122  43.7389557  16.8231699  89.4202348  50.1322280   8.9808217
  90.0055784  49.3865968   9.1136121  89.2227186  50.4426237   9.8644881
  92.2741003  53.1673528   3.9970659  91.6051378  53.6519655   3.5134699
  92.1353873  53.4142748   4.9114038  84.0120002  42.7027880   7.7012660
  84.0504102  42.1691471   8.4949778  83.5060295  42.1763086   7.0823637
  96.4146271  55.2017271  10.5953318  96.9664579  55.3648893  11.3602403
  96.7552465  55.7921709   9.9233342  91.3910765  37.5492421  11.1975202
  91.4552091  38.4107252  10.7852600  91.3277885  36.9366423  10.4647561
  90.8663037  39.6215553  14.8448237  91.4935076  39.2392631  15.4585761
  90.0090956  39.4029755  15.2103929 101.2657146  50.0278529  16.4501972
 101.8097050  50.6408487  15.9556927 100.6843991  50.5858107  16.9668985
  87.6428580  41.4291983   0.7766591  87.9382021  40.5202661   0.7233645
  86.7416616  41.4079722   0.4547594  99.5514659  53.1499247   7.5817000
  99.4265798  52.3488986   7.0727945 100.2093750  53.6445440   7.0930970
  91.1722827  39.5047979   6.7594140  90.4509413  40.1183947   6.6201613
  91.9616083  40.0405744   6.6810786 101.6149567  50.9508267   9.2096550
 100.6679903  50.8313618   9.1374877 101.9632340  50.0630765   9.2922811
  93.9749140  36.8402406  13.0334792  94.4983542  37.0864702  13.7961101
  93.7561474  37.6722440  12.6137929  89.3716422  39.1106080   0.9005917
  89.0429128  38.2303459   0.7181022  89.7255792  39.0553749   1.7882306
  98.6196000  50.7460983   5.4100902  98.4720963  49.8177690   5.5908472
  99.4449494  50.7681074   4.9257977 102.2230122  51.5689542   6.4965775
 103.1476670  51.3632403   6.3590226 102.0545426  51.3205943   7.4055116
  95.1801685  37.7816101  10.7184462  94.8398506  36.9823914  11.1205142
  94.4740692  38.0817812  10.1461295  95.8318157  34.8665413   9.1711785
  96.6544227  34.3925891   9.0490676  96.0756221  35.6455897   9.6710472
  93.3556736  41.5584534   6.9803764  93.2101317  41.8724837   7.8728045
  92.8781940  42.1769434   6.4274663  95.2153119  38.5487082   7.0284653
  95.2014688  37.6528175   6.6916951  95.9325547  38.5557746   7.6622940
  97.0679250  38.9824422   9.0737781  96.8097027  39.9041493   9.0722111
  96.5364290  38.5854857   9.7638245  87.8302398  44.0989878   9.9191425
  87.2855866  44.8749686  10.0511699  88.7081748  44.4460683   9.7610547
  88.6168420  43.2259774  12.8121582  87.8750156  43.3742410  13.3986212
  88.2961164  43.4868040  11.9488331  96.5612083  52.7675753  12.6101972
  96.8699209  52.5224899  13.4824672  97.3587565  52.9722391  12.1220842
  96.5832695  54.9213662   4.8407349  96.1437685  54.4290041   5.5340205
  97.3340812  54.3786630   4.5999424  89.0625034  51.1125203   4.8431977
  89.8883054  50.8128975   4.4630620  88.7119086  50.3432826   5.2921765
  94.0306567  50.4651671   6.9129650  93.4086576  49.8022376   6.6131878
  94.7011434  50.4912803   6.2303298  87.2633639  49.0311530   5.8020910
  86.4265547  48.6033704   5.6204911  87.2357284  49.2243973   6.7391701
  94.1031094  38.9433459  16.5062156  94.1519250  39.8195582  16.1239926
  94.6453609  38.4010852  15.9333799 104.5885940  49.4874583  15.7863293
 103.7981484  49.4698722  15.2467793 104.3519295  50.0262876  16.5412330
 104.7083815  46.3367049  13.0996022 104.7581820  46.1717057  14.0411545
 104.5997738  45.4694308  12.7093903  93.5920074  49.0155595   0.3888111
  93.7408194  49.6991059  -0.2645217  94.3986517  48.9960685   0.9037566
 101.9987578  42.3197977  14.4155329 102.8997440  42.1804442  14.1239326
 102.0735552  42.4852432  15.3553506  96.3330383  39.6964832  13.2608515
  95.4633692  39.9898398  12.9891103  96.5689863  40.2805277  13.9815778
 106.2102012  48.7563991  13.3438043 105.9186820  49.1193971  14.1801504
 105.5974143  48.0430999  13.1651375 104.4589200  43.8796605  11.8118101
 104.9343322  44.0724252  11.0036953 103.5354766  43.9355791  11.5661485
  91.3472707  45.0420772   1.3949180  91.1018749  44.1383102   1.5929390
  91.5168621  45.0437923   0.4528658  99.0369417  35.9144449  10.7773935
  99.5551361  36.6505476  10.4520424  98.6824549  36.2208442  11.6120694
 101.1805249  37.8417949  10.2305808 100.5855181  38.1222961   9.5352296
 100.8954945  38.3311849  11.0022549  97.3600970  46.8982284  16.6616568
  98.2803980  47.0760883  16.8556614  97.3250553  45.9538329  16.5096267
  86.5783135  42.0920878   5.5869842  86.2585920  41.2386186   5.2944216
  86.0316564  42.3069456   6.3427810  90.3563043  44.8083319   9.3039349
  90.5749053  45.7400427   9.3227383  90.7688817  44.4491293  10.0894153
  95.2290908  40.3816525  18.6942098  95.1287635  41.3310881  18.6254189
  95.0112450  40.0534763  17.8218168  86.4471395  45.7123789   7.5562964
  85.7534867  45.2977742   7.0432918  87.1944386  45.7544326   6.9596383
  95.0922178  43.8113663  17.5107159  94.6089260  44.6114023  17.7171048
  95.1783117  43.8221608  16.5574603  88.3608138  45.6442043   5.4328979
  88.3378826  45.7429730   4.4810862  88.6708774  46.4907194   5.7546145
  91.0195516  47.7018198   9.5475593  91.9738769  47.6702140   9.4805525
  90.8208039  47.2408822  10.3625819  91.6094898  46.2719314  12.1146391
  92.4287787  46.7663393  12.1381228  91.8831706  45.3551282  12.0863958
  89.3745745  53.2437818   6.5645791  89.2400213  52.4838218   5.9983789
  88.9577807  53.9678717   6.0974580  92.5314870  54.1407135   6.7764234
  92.4147255  55.0852567   6.6742924  91.7107317  53.8380696   7.1650033
  86.8629812  40.6057448  12.8138588  87.5088676  40.0956402  13.3025813
  86.6546963  41.3426130  13.3882013  99.3883204  47.6738295  18.3130728
 100.2574364  47.8478948  17.9517363  98.9089956  48.4932712  18.1906458
  93.5569385  54.7935396   9.9920162  94.4596631  54.8259007  10.3086657
  93.3306755  53.8635847  10.0066498  95.3122987  53.5466383   6.6530241
  94.3618618  53.5468245   6.5394613  95.6155473  52.7999118   6.1366275
  91.2027303  37.7525065  16.9113602  92.0658765  37.3961870  17.1216927
  90.6292714  37.4138960  17.5989006 107.8565386  59.3354350   7.6537528
 107.5183898  59.2195414   6.7658063 108.7255155  58.9345515   7.6338534
 108.3385169  60.4889201  13.6123733 108.3273810  60.0942000  12.7404237
 108.5005809  59.7555274  14.2057505 105.0592431  63.2726313  12.5602917
 104.7682296  64.1771944  12.4449584 105.6949415  63.3142841  13.2746987
 105.9848637  60.6503162   9.1504277 106.5812210  60.4259184   8.4361240
 106.0423609  59.9087907   9.7529725 103.4694797  59.4101525   5.5889415
 102.5445294  59.2777739   5.7967107 103.7179210  60.1895745   6.0859358
 100.8303608  59.0534799   6.4233204 100.9595989  59.3069278   7.3372616
 100.1501059  59.6462507   6.1037860 107.4920325  56.8959914  15.1785046
 106.7153659  57.4553834  15.1687910 108.1310888  57.3816697  15.6999916
 105.7466697  59.7045368  14.7403013 106.4881382  60.2430412  14.4637836
 105.0403683  60.3311656  14.8974564 111.2222037  61.8474508  13.3375174
 111.6305393  61.4056919  12.5929806 110.4999299  61.2727136  13.5909367
 107.5753107  56.7847115  10.7108731 108.4214302  57.2086528  10.8543380
 107.5151745  56.1280739  11.4047294 110.7252552  54.4451483  12.3689905
 110.4813484  55.1993544  11.8324180 111.0012483  54.8236831  13.2037152
 112.6791015  60.9890096  11.0467170 112.8907910  61.6321856  10.3701551
 112.6320764  60.1552412  10.5789100 104.4828061  56.8585016  15.5418323
 103.8526722  57.5401297  15.7753719 104.3764149  56.7468097  14.5971461
  99.7773034  56.5256812   6.4684247  98.9872088  56.7814340   5.9924357
 100.2684281  57.3405150   6.5736287 107.5593447  63.4146094  11.3750238
 107.6237879  63.8766502  12.2108410 106.8504371  62.7843459  11.5032548
  98.0610737  56.7787302   8.8999238  98.3118775  57.6634312   9.1656814
  98.5970285  56.5991904   8.1274329 103.7608804  51.1605782  17.9043574
 103.3675750  50.6071980  18.5791218 104.5774944  51.4716360  18.2950091
 106.6776765  52.5763661  15.4963830 107.4186478  53.1770814  15.4168293
 106.9094688  51.8341299  14.9381873 101.8218103  57.7620028  13.7742060
 101.7071618  56.8605285  14.0749159 100.9662621  58.0083725  13.4226876
 108.9009941  65.7037768  15.3729561 108.4573795  64.9174147  15.0550465
 109.5627154  65.8916919  14.7073451 110.9991179  65.9840568  13.4010962
 110.9809654  66.8049449  12.9091231 111.9211099  65.8594644  13.6261103
 107.4564233  63.4984698  14.2434470 107.9892570  62.7372986  14.0133778
 106.9278314  63.2058350  14.9858625 109.0896081  56.6513539   7.1682611
 108.1718643  56.8728486   7.0104299 109.5056225  56.7259849   6.3094318
  98.7145950  58.2669010   3.2627447  98.5170349  57.6738370   2.5378514
  98.1592614  57.9621220   3.9803386 110.2309245  57.2411000  11.9727313
 110.5858633  57.4682473  12.8321779 110.8781376  57.5729377  11.3504569
 104.1249108  54.3487531   8.7573654 104.7648487  54.2076290   8.0596618
 103.2926638  54.0622045   8.3812256 101.1277724  54.3187856   3.5346641
 101.3884542  55.2333189   3.4255802 101.9494897  53.8512299   3.6843254
 102.6002650  55.7325613  10.7045466 103.2725703  55.5242976  10.0558115
 101.7732436  55.5347699  10.2650698 108.5028222  52.3587554  12.7211127
 107.8556137  53.0577504  12.6275603 109.2729237  52.7923698  13.0887375
 111.9107020  62.6236407  15.7961680 111.7592526  62.3946958  14.8791764
 111.9011699  63.5807008  15.8093025 108.6792356  60.1968319  10.7807946
 109.6084416  60.3479479  10.6076914 108.2583386  60.2852340   9.9256593
 103.0030147  59.0068216  11.4647903 102.8649945  58.2748455  12.0659442
 103.9135070  58.9177116  11.1832091 105.6312448  58.7188176  10.9531583
 106.3412066  58.0781368  10.9118201 105.5881756  58.9701071  11.8757763
 104.3441382  55.7053394  12.7727222 103.8078739  55.2544132  13.4248818
 103.7558090  55.8399302  12.0297686 113.6216634  63.6195113  12.1052141
 112.7343412  63.2821035  12.2278540 114.1915185  62.8878144  12.3420907
  95.2745781  59.9519205   5.4295193  95.9616821  59.6380935   4.8416208
  95.1193909  60.8560569   5.1562444 100.0780503  54.8409401   9.8580217
  99.9938692  54.2335071   9.1230626  99.2563209  55.3318420   9.8589713
 104.6628384  65.9277843  12.0477114 105.3637844  66.5614326  12.2006508
 104.1923499  66.2692574  11.2872753 112.4629670  58.4822450   9.8729665
 111.8101120  58.7298358   9.2182117 112.8410050  57.6686588   9.5392142
 108.5117243  59.2242261  16.3595702 107.8357880  59.1236391  17.0298077
 109.3344877  59.0681475  16.8231699 100.2596102  65.4614198   8.9808217
 100.8449539  64.7157886   9.1136121 100.0620941  65.7718155   9.8644881
  94.8513757  58.0319798   7.7012660  94.8897856  57.4983389   8.4949778
  94.3454050  57.5055004   7.0823637 102.2304519  52.8784339  11.1975202
 102.2945846  53.7399169  10.7852600 102.1671639  52.2658340  10.4647561
 101.7056792  54.9507471  14.8448237 102.3328830  54.5684548  15.4585761
 100.8484711  54.7321673  15.2103929 112.1050900  65.3570446  16.4501972
 112.6490804  65.9700405  15.9556927 111.5237745  65.9150025  16.9668985
 102.0116581  54.8339897   6.7594140 101.2903167  55.4475865   6.6201613
 102.8009837  55.3697662   6.6810786 104.8142895  52.1694323  13.0334792
 105.3377297  52.4156620  13.7961101 104.5955228  53.0014358  12.6137929
 106.0195440  53.1108018  10.7184462 105.6792260  52.3115831  11.1205142
 105.3134446  53.4109729  10.1461295 106.6711912  50.1957331   9.1711785
 107.4937981  49.7217809   9.0490676 106.9149975  50.9747815   9.6710472
 104.1950491  56.8876451   6.9803764 104.0495071  57.2016755   7.8728045
 103.7175694  57.5061352   6.4274663 106.0546873  53.8778999   7.0284653
 106.0408442  52.9820093   6.6916951 106.7719302  53.8849663   7.6622940
 107.9073004  54.3116340   9.0737781 107.6490782  55.2333410   9.0722111
 107.3758045  53.9146774   9.7638245  98.6696153  59.4281796   9.9191425
  98.1249621  60.2041604  10.0511699  99.5475503  59.7752600   9.7610547
  99.4562175  58.5551692  12.8121582  98.7143911  58.7034328  13.3986212
  99.1354919  58.8159958  11.9488331 104.9424849  54.2725377  16.5062156
 104.9913004  55.1487500  16.1239926 105.4847363  53.7302770  15.9333799
 115.4279695  64.8166500  15.7863293 114.6375238  64.7990639  15.2467793
 115.1913049  65.3554794  16.5412330 115.5477570  61.6658967  13.0996022
 115.5975575  61.5008974  14.0411545 115.4391493  60.7986226  12.7093903
 112.8381332  57.6489895  14.4155329 113.7391195  57.5096360  14.1239326
 112.9129307  57.8144350  15.3553506 107.1724137  55.0256750  13.2608515
 106.3027447  55.3190316  12.9891103 107.4083618  55.6097195  13.9815778
 115.2982955  59.2088523  11.8118101 115.7737076  59.4016169  11.0036953
 114.3748520  59.2647709  11.5661485 109.8763171  51.2436366  10.7773935
 110.3945115  51.9797393  10.4520424 109.5218304  51.5500360  11.6120694
 112.0199003  53.1709866  10.2305808 111.4248935  53.4514879   9.5352296
 111.7348700  53.6603767  11.0022549 108.1994725  62.2274202  16.6616568
 109.1197734  62.4052801  16.8556614 108.1644308  61.2830247  16.5096267
  97.4176890  57.4212795   5.5869842  97.0979674  56.5678104   5.2944216
  96.8710318  57.6361374   6.3427810 101.1956797  60.1375236   9.3039349
 101.4142807  61.0692344   9.3227383 101.6082571  59.7783211  10.0894153
 106.0684663  55.7108442  18.6942098 105.9681390  56.6602799  18.6254189
 105.8506205  55.3826681  17.8218168  97.2865150  61.0415707   7.5562964
  96.5928621  60.6269660   7.0432918  98.0338141  61.0836243   6.9596383
 105.9315933  59.1405581  17.5107159 105.4483015  59.9405941  17.7171048
 106.0176872  59.1513526  16.5574603  99.2001892  60.9733961   5.4328979
  99.1772581  61.0721648   4.4810862  99.5102529  61.8199112   5.7546145
 101.8589270  63.0310116   9.5475593 102.8132524  62.9994058   9.4805525
 101.6601794  62.5700739  10.3625819 102.4488652  61.6011232  12.1146391
 103.2681541  62.0955310  12.1381228 102.7225460  60.6843200  12.0863958
  97.7023567  55.9349366  12.8138588  98.3482430  55.4248320  13.3025813
  97.4940718  56.6718047  13.3882013 110.2276959  63.0030213  18.3130728
 111.0968118  63.1770865  17.9517363 109.7483710  63.8224630  18.1906458
 102.0421058  53.0816983  16.9113602 102.9052519  52.7253788  17.1216927
 101.4686468  52.7430878  17.5989006 114.6002558  66.4897699  17.9043574
 114.2069504  65.9363898  18.5791218 115.4168699  66.8008278  18.2950091
 116.9078417  71.0400360  18.6942098 116.8075144  71.9894717  18.6254189
 116.6899959  70.7118599  17.8218168 112.8814812  68.4108900  16.9113602
 113.7446274  68.0545705  17.1216927 112.3080223  68.0722795  17.5989006
   2.6511529  75.5392723  85.2202656   1.8975238  74.9700121  85.0646661
   2.7859071  75.5055387  86.1673291   3.0617944  75.6968333  87.9522900
   3.7921333  75.4353621  88.5130604   2.4524890  74.9597054  87.9924968
   1.1433242  73.8376195  88.5497352   0.4166405  73.7032160  87.9413843
   0.7280528  74.1453024  89.3554070   1.0682109  73.3654248  84.6774204
   0.5081667  73.4347437  85.4505767   0.4625613  73.1895233  83.9573701
   2.6538128  90.0410762  87.3704160   3.2916538  89.9217509  86.6667500
   2.5358971  90.9891606  87.4292112   2.2079396  87.7662216  84.4457368
   2.9942485  87.3481639  84.0947785   2.4718100  88.6708308  84.6139017
   2.3789473  93.2035066  79.1446025   1.7435306  93.2769693  79.8566930
   2.0486880  93.7928665  78.4665104   7.6087823  87.7037449  85.3490347
   8.3412995  87.1336666  85.5828176   6.8527179  87.3159050  85.7896852
   5.1313244  81.4159023  89.8084955   4.7996568  82.2854434  89.5846170
   4.5358857  81.0995307  90.4878986   5.0241907  86.1354109  86.8878305
   4.1158784  86.0669518  86.5937066   4.9729503  86.6126054  87.7160131
   6.8903553  84.3370548  88.6656179   6.2477934  84.6303081  88.0195974
   6.3858482  84.2223468  89.4709376   4.5443717  88.0833721  79.3542039
   5.4561573  88.3161108  79.1789736   4.0353364  88.6670765  78.7917117
   3.1513299  93.0659539  86.7455620   2.5222162  93.2305254  86.0431688
   2.7638961  93.4801149  87.5166584   7.0302531  94.0013977  84.0999984
   6.3453569  94.3812879  83.5497017   7.1146381  94.6109304  84.8331932
   2.3315000  85.1035324  92.0218062   2.0875932  85.8577384  91.4852337
   2.6074931  85.4820672  92.8565309   4.2853463  91.6473936  90.6995327
   4.4970358  92.2905696  90.0229708   4.2383211  90.8136253  90.2317257
   1.8879692  84.2591757  87.6031899   1.0264171  84.5573011  87.8948637
   1.9142126  84.4762156  86.6712932   5.3999291  94.5245892  88.8717685
   6.2216734  94.1226079  88.5900366   5.3961694  94.4214126  89.8233800
  13.4905284  90.8684640  85.2202656  12.7368992  90.2992038  85.0646661
  13.6252825  90.8347305  86.1673291   2.2296375  79.2628604  89.4256269
   1.8860645  80.1530246  89.3495380   2.5975338  79.0730262  88.5625854
   2.1946658  89.2537216  77.9328704   1.6793282  90.0241820  78.1717091
   1.9223967  88.5802352  78.5561766   1.3092916  81.6333260  87.3905502
   0.8057711  81.5963395  86.5773308   1.6023523  82.5426002  87.4502159
   7.1680932  92.0069570  79.8681878   6.3910375  91.6680730  79.4237040
   7.8472413  92.0122193  79.1936843   1.9832961  87.1264308  79.7588485
   1.6783097  87.4410457  80.6098628   2.9363403  87.2045728  79.8015818
   5.4072239  91.4803551  86.5248486   4.7495914  92.1702813  86.6128614
   6.2112638  91.8699983  86.8682472   4.2177698  89.8347924  84.5752427
   4.7309580  90.4677916  85.0774137   4.8678922  89.2349120  84.2095787
   1.4800072  99.8132248  77.3313098   0.8061771 100.1163945  77.9398056
   1.8665894 100.6161329  76.9818555   1.4793577  88.7088795  81.9513448
   2.2265396  89.2210193  81.6420570   1.7485166  88.3872848  82.8117842
   4.9839494  94.8153926  82.7031570   4.5301821  93.9744835  82.7596760
   4.3533461  95.4515324  83.0406350   3.9272414  85.7445912  83.9332237
   3.1895171  85.2323298  84.2642480   4.1799187  85.3046293  83.1215514
   3.4272433  96.6530422  83.6381388   3.7195408  97.2135479  82.9193754
   3.9371054  96.9458983  84.3934547   4.0284041  78.5222164  84.5274007
   4.3342918  77.6619527  84.2399922   4.7536646  79.1139784  84.3273001
   1.8371692  87.8994841  91.6255470   2.1921080  88.1266314  92.4849936
   2.4843824  88.2313218  91.0032726   7.5669429  91.0213277  82.3304800
   7.4287328  91.2114873  81.4025989   7.2105648  91.7832660  82.7872851
   7.5938809  93.0889804  87.3416071   8.0275316  92.9965093  88.1899125
   8.3070390  93.0647304  86.7036087   8.4554359  93.1313504  89.8748956
   8.6490249  94.0359315  90.1208231   8.3554977  92.6720924  90.7087541
   3.5707542  91.6040461  75.8660539   2.9536713  90.8787290  75.7693591
   3.1024031  92.3649822  75.5227613   1.8566664  83.9846806  84.8778569
   2.3535364  83.2316768  84.5579639   1.0853646  84.0211122  84.3121778
   9.7096422  89.6887171  86.5196860   9.6986298  90.5711886  86.1490793
   8.8413801  89.3358722  86.3251397   2.9396445  92.7418493  82.4516992
   2.0052724  92.8619955  82.2821696   3.1173113  91.8390960  82.1877002
   6.3268996  88.5835812  82.9867026   6.7929449  89.4163804  82.9127329
   6.7776497  88.1180794  83.6912285   4.3945227  94.9279633  79.9853178
   4.6705071  94.8136228  80.8947052   3.5249726  94.5297118  79.9465351
   4.2985659  80.9516399  87.0257928   3.3848739  81.1820626  87.1940135
   4.7278761  81.0354843  87.8771960   4.0692118  89.1406291  89.5257822
   3.4163568  89.3882198  88.8710274   4.4472497  88.3270429  89.1920299
   1.0299291  99.1765984  83.6285992   1.2121686  98.3587640  84.0913744
   1.8532277  99.3933676  83.1910882   1.3641457  98.1034169  80.8901040
   1.8929223  97.5926624  80.2771202   1.6269677  97.7876699  81.7546573
   1.0652202  96.7336741  85.0629059   0.9177165  95.8053449  85.2436629
   1.8905696  96.7556832  84.5786134   4.6686324  97.5565300  86.1493932
   5.5932872  97.3508161  86.0118383   4.5001628  97.3081701  87.0583273
   1.0613717  84.5874579  80.0561176   1.2777331  85.4699217  79.7550005
   0.5807784  84.1960792  79.3266818   4.4581640  98.0750967  81.5056023
   4.6318518  97.5097390  80.7529876   4.9510532  98.8751862  81.3235513
  10.3121032  90.8387390  83.1246323  10.7552178  90.0894716  82.7265446
   9.4347542  90.8297527  82.7420055   5.4456813  97.3917732  78.6052922
   6.1407718  98.0124425  78.8240236   5.7879963  96.5413083  78.8805300
   7.3448236  94.8417437  80.1340252   7.8699560  95.1804710  79.4089572
   7.2570589  93.9064453  79.9503387   7.1540017  92.3242807  92.7524179
   7.2038022  92.1592815  93.6939702   7.0453941  91.4570066  92.3622060
   9.8553896  92.3092629  85.5168771  10.6900788  92.7482433  85.6806331
   9.9913025  91.8331282  84.6977016   6.9045402  89.8672364  91.4646258
   7.3799524  90.0600010  90.6565110   5.9810968  89.9231549  91.2189642
   1.4825619  81.9020207  90.4302092   2.0007563  82.6381234  90.1048581
   1.1280752  82.2084200  91.2648851   1.7338213  78.3220490  85.9502989
   2.0139967  77.6543679  86.5763415   2.5188820  78.5149585  85.4377653
   5.6047071  86.7438124  89.6974564   6.5564494  86.8436221  89.7186788
   5.4350522  85.9516392  90.2072648   3.6261451  83.8293707  89.8833965
   3.0311383  84.1098720  89.1880454   3.3411147  84.3187608  90.6550706
   2.7568941  97.7816634  78.6436598   3.6899614  97.7162195  78.8469473
   2.6692154  98.6172901  78.1851130   5.3856958  97.0982504  75.6040545
   5.3070589  96.7642368  76.4976303   6.2066625  97.5904272  75.6032017
   8.0835149  89.9644243  88.8116864   8.0511469  89.0260244  88.9976548
   8.6935773  90.0428280  88.0782689   8.2329638  86.7555287  88.8575147
   7.7168686  85.9713743  88.6705076   9.1169586  86.4274003  89.0221666
   5.8940364  80.4996302  84.8170960   5.6965186  80.1911391  85.7014292
   6.5040070  81.2257941  84.9468889  13.9011699  91.0260250  87.9522900
  14.6315087  90.7645538  88.5130604  13.2918644  90.2888972  87.9924968
  11.9826996  89.1668113  88.5497352  11.2560160  89.0324078  87.9413843
  11.5674283  89.4744941  89.3554070   1.6514011  80.3805209  82.5667491
   2.2045050  80.8000663  83.2257514   1.8884097  79.4540957  82.6090447
   5.0292818  82.4905734  82.0746155   4.4491487  83.1490538  81.6924208
   4.7628751  81.6683079  81.6633573   3.4796385  81.8910792  84.2767475
   3.9796163  82.0027327  83.4681794   4.1231992  81.5871845  84.9168284
   3.8117696  84.6505825  81.1302503   2.9243551  84.9355475  80.9122698
   4.2271685  84.4899588  80.2829780   7.1632232  84.6752346  84.8456843
   7.9392622  85.1648798  85.1181459   6.4380366  85.1010400  85.3028712
   9.6004791  85.3879965  85.9030783  10.1949282  85.1475701  85.1924092
   9.6731375  84.6687096  86.5304320   2.9560910  94.4150499  75.2250523
   3.6596760  94.6200502  75.8408179   2.2323558  94.9827261  75.4899607
   3.7858720  90.1660361  81.3452794   3.7293921  90.6228912  80.5060426
   4.3387062  89.4051045  81.1675636   7.5963526  85.9550093  82.1702913
   7.3400460  85.5546728  83.0011121   6.9716394  86.6693887  82.0453052
  11.9075864  88.6946166  84.6774204  11.3475422  88.7639355  85.4505767
  11.3019367  88.5187150  83.9573701   4.8647607  94.8533029  77.2748983
   5.6993211  94.4214227  77.0926458   4.7031950  94.6815042  78.2025878
   4.5193499  91.3565142  78.6405323   4.4642303  91.1909413  77.6993767
   3.8939554  92.0641175  78.7967512   1.6441744  77.4516028  82.4736578
   0.8774140  76.8974514  82.6193260   2.0552449  77.5237896  83.3350730
  13.0473151 103.0954134  84.4457368  13.8336240 102.6773557  84.0947785
  13.3111855 104.0000226  84.6139017  18.4481578 103.0329367  85.3490347
  19.1806750 102.4628584  85.5828176  17.6920933 102.6450967  85.7896852
  15.9706998  96.7450941  89.8084955  15.6390323  97.6146352  89.5846170
  15.3752611  96.4287225  90.4878986   9.7063184 100.4846508  77.5415038
   9.8737587 101.3526744  77.9085509   9.5160354 100.6473790  76.6176327
  15.8635661 101.4646027  86.8878305  14.9552539 101.3961436  86.5937066
  15.8123257 101.9417972  87.7160131   9.6852405 102.9404166  78.5261705
   9.5652031 103.3861216  79.3647185   8.9904994 103.2889483  77.9675243
  17.7297308  99.6662465  88.6656179  17.0871688  99.9594999  88.0195974
  17.2252236  99.5515386  89.4709376  15.3837471 103.4125639  79.3542039
  16.2955328 103.6453025  79.1789736  14.8747119 103.9962683  78.7917117
  13.1708755 100.4327242  92.0218062  12.9269686 101.1869302  91.4852337
  13.4468685 100.8112589  92.8565309  12.7273446  99.5883675  87.6031899
  11.8657925  99.8864928  87.8948637  12.7535881  99.8054074  86.6712932
  24.3299038 106.1976558  85.2202656  23.5762747 105.6283956  85.0646661
  24.4646580 106.1639222  86.1673291  13.0690130  94.5920522  89.4256269
  12.7254399  95.4822164  89.3495380  13.4369093  94.4022180  88.5625854
  13.0340413 104.5829133  77.9328704  12.5187036 105.3533738  78.1717091
  12.7617721 103.9094269  78.5561766  10.6187524  99.4278834  82.9913942
   9.7629120  99.0385684  82.8119581  11.0314475  99.5070795  82.1313728
  12.1486670  96.9625177  87.3905502  11.6451466  96.9255312  86.5773308
  12.4417277  97.8717920  87.4502159   8.3929556  97.0463907  86.3971684
   9.2582553  96.8506716  86.0377573   8.4607065  96.8174259  87.3241041
  18.0074687 107.3361488  79.8681878  17.2304130 106.9972647  79.4237040
  18.6866168 107.3414111  79.1936843  12.8226716 102.4556225  79.7588485
  12.5176851 102.7702374  80.6098628  13.7757158 102.5337645  79.8015818
   5.9991875  99.2766115  83.7688051   6.5735627  99.0541296  83.0361244
   6.5862858  99.3454809  84.5216652  15.0571452 105.1639842  84.5752427
  15.5703334 105.7969834  85.0774137  15.7072676 104.5641037  84.2095787
   6.3261462 101.3070576  77.7883936   5.4898775 101.6445262  78.1093211
   6.1866232 101.1719556  76.8511073   8.3014543  96.1507364  82.4963120
   7.6478955  95.8356381  81.8719735   8.2595017  95.5283104  83.2222943
  11.5352283 102.6389297  86.8210768  10.6174845 102.8604244  86.6632456
  11.9512427 102.7135608  85.9622475  12.3187331 104.0380713  81.9513448
  13.0659150 104.5502110  81.6420570  12.5878921 103.7164766  82.8117842
  14.7666168 101.0737829  83.9332237  14.0288925 100.5615215  84.2642480
  15.0192942 100.6338211  83.1215514  14.8677796  93.8514081  84.5274007
  15.1736672  92.9911445  84.2399922  15.5930400  94.4431701  84.3273001
   7.0791235 102.7644934  82.7940577   6.2659101 103.0639105  83.2005769
   7.5750229 102.3700623  83.5115059  12.6765447 103.2286759  91.6255470
  13.0314835 103.4558232  92.4849936  13.3237578 103.5605135  91.0032726
  18.4063184 106.3505194  82.3304800  18.2681082 106.5406790  81.4025989
  18.0499403 107.1124577  82.7872851   6.5705310 100.3363290  88.4101812
   7.2104689 100.1952049  87.7124775   5.7382841 100.0497803  88.0340414
   3.5733926 100.3063615  83.1874798   3.8340744 101.2208948  83.0783959
   4.3951099  99.8388057  83.3371411  10.9484424  98.3463313  92.3739284
  10.3012339  99.0453262  92.2803760  11.7185439  98.7799457  92.7415532
   6.1999843 101.1517803  74.9881843   5.3229309 101.0306604  74.6244089
   6.6757596 100.3603882  74.7360731  12.6960419  99.3138723  84.8778569
  13.1929118  98.5608686  84.5579639  11.9247400  99.3503040  84.3121778
  20.5490176 105.0179089  86.5196860  20.5380052 105.9003804  86.1490793
  19.6807556 104.6650640  86.3251397   9.2795388 101.4556106  84.6050253
   8.9093175 100.9027147  85.2931159   9.7754480 100.8514240  84.0525253
  17.1662751 103.9127730  82.9867026  17.6323203 104.7455721  82.9127329
  17.6170251 103.4472711  83.6912285  15.1379414  96.2808317  87.0257928
  14.2242493  96.5112544  87.1940135  15.5672515  96.3646761  87.8771960
  14.9085872 104.4698209  89.5257822  14.2557322 104.7174116  88.8710274
  15.2866252 103.6562347  89.1920299   2.6566378 100.4273756  80.5534074
   2.3279084  99.5471135  80.3709180   3.0105749 100.3721425  81.4410463
   5.7708201 100.7146726  80.9209551   6.1104274 101.2432647  80.1988160
   6.2180322 101.0527132  81.6968118   8.4651642  99.0983777  90.3712619
   8.1248462  98.2991590  90.7733299   7.7590648  99.3985488  89.7989453
   9.1168114  96.1833089  88.8239942   9.9394183  95.7093567  88.7018833
   9.3606177  96.9623573  89.3238629   7.7576348  99.2121348  79.1202844
   8.4784711  99.5902600  78.6166561   7.1341652  99.9310224  79.2237822
  11.9007471  99.9166497  80.0561176  12.1171086 100.7991135  79.7550005
  11.4201538  99.5252710  79.3266818   8.5003075  99.8654758  86.6812811
   8.4864644  98.9695851  86.3445108   9.2175504  99.8725422  87.3151097
  10.3529206 100.2992098  88.7265938  10.0946984 101.2209169  88.7250268
   9.8214247  99.9022533  89.4166402   7.9039971  98.7469138  81.9500381
   8.0255883  97.8185784  82.1491268   7.6142014  98.7607824  81.0378696
  10.7731162  96.4324049  85.0867101  10.7952859  96.4963382  84.1319080
  11.1899221  95.5928557  85.2807607  21.1514786 106.1679308  83.1246323
  21.5945932 105.4186633  82.7265446  20.2741296 106.1589444  82.7420055
  20.6947651 107.6384546  85.5168771  21.5294542 108.0774350  85.6806331
  20.8306780 107.1623200  84.6977016  17.7439157 105.1964281  91.4646258
  18.2193278 105.3891928  90.6565110  16.8204722 105.2523467  91.2189642
  12.3219373  97.2312125  90.4302092  12.8401317  97.9673152  90.1048581
  11.9674506  97.5376118  91.2648851   3.9018311 102.0916806  78.5463498
   3.2087556 102.1661161  77.8903534   3.6570063 101.3277150  79.0685015
  12.5731967  93.6512407  85.9502989  12.8533721  92.9835596  86.5763415
  13.3582574  93.8441503  85.4377653  16.4440826 102.0730041  89.6974564
  17.3958249 102.1728139  89.7186788  16.2744276 101.2808310  90.2072648
  14.4655205  99.1585625  89.8833965  13.8705137  99.4390637  89.1880454
  14.1804902  99.6479525  90.6550706  18.9228904 105.2936161  88.8116864
  18.8905224 104.3552162  88.9976548  19.5329527 105.3720198  88.0782689
  10.7612234 104.1632214  74.8544068  11.7071339 104.0338422  74.9232486
  10.3826479 103.4246876  75.3313496  19.0723392 102.0847204  88.8575147
  18.5562441 101.3005661  88.6705076  19.9563341 101.7565921  89.0221666
  16.7334119  95.8288220  84.8170960  16.5358940  95.5203308  85.7014292
  17.3433825  96.5549859  84.9468889  24.7405453 106.3552168  87.9522900
  25.4708842 106.0937456  88.5130604  24.1312399 105.6180890  87.9924968
  22.8220751 104.4960030  88.5497352  22.0953914 104.3615995  87.9413843
  22.4068037 104.8036859  89.3554070   8.9455152 102.0882190  74.7898953
   8.0386607 101.7915303  74.8661667   9.2231133 101.7912008  73.9233239
  10.5617217  96.6319080  80.9443194   9.7517946  96.2866165  81.3198440
  11.2501634  96.3226624  81.5330806  12.4907766  95.7097127  82.5667491
  13.0438804  96.1292580  83.2257514  12.7277852  94.7832875  82.6090447
   7.7153936  98.9469126  74.9310932   8.5773100  99.2724024  75.1906749
   7.9004280  98.1600622  74.4183998  15.8686573  97.8197652  82.0746155
  15.2885242  98.4782456  81.6924208  15.6022505  96.9974997  81.6633573
  14.3190139  97.2202710  84.2767475  14.8189917  97.3319244  83.4681794
  14.9625747  96.9163763  84.9168284  14.6511451  99.9797742  81.1302503
  13.7637306 100.2647393  80.9122698  15.0665440  99.8191506  80.2829780
  18.0025987 100.0044263  84.8456843  18.7786377 100.4940716  85.1181459
  17.2774121 100.4302318  85.3028712  20.4398545 100.7171883  85.9030783
  21.0343036 100.4767619  85.1924092  20.5125129  99.9979013  86.5304320
  14.6252474 105.4952278  81.3452794  14.5687676 105.9520830  80.5060426
  15.1780817 104.7342963  81.1675636  18.4357280 101.2842010  82.1702913
  18.1794215 100.8838646  83.0011121  17.8110148 101.9985804  82.0453052
  22.7469618 104.0238084  84.6774204  22.1869176 104.0931273  85.4505767
  22.1413122 103.8479068  83.9573701   8.6683379  96.1865169  78.2190641
   8.6562049  97.1307009  78.3758912   9.5606801  96.0035314  77.9250102
  12.4835499  92.7807945  82.4736578  11.7167894  92.2266432  82.6193260
  12.8946204  92.8529814  83.3350730  25.7071550 109.1805999  84.5274007
  26.0130427 108.3203362  84.2399922  26.4324155 109.7723619  84.3273001
  23.4125722 108.9804325  85.9502989  23.6927476 108.3127514  86.5763415
  24.1976329 109.1733421  85.4377653  23.3229253 108.1099863  82.4736578
  22.5561649 107.5558350  82.6193260  23.7339958 108.1821732  83.3350730
   2.6511531  52.5454845  71.9447963   1.8975239  51.9762243  71.7891967
   2.7859072  52.5117510  72.8918597   3.0617946  52.7030455  74.6768207
   3.7921334  52.4415743  75.2375910   2.4524891  51.9659177  74.7170275
   1.1433243  50.8438318  75.2742658   0.4166406  50.7094283  74.6659150
   0.7280530  51.1515146  76.0799376   1.0682110  50.3716371  71.4019511
   0.5081668  50.4409560  72.1751073   0.4625614  50.1957355  70.6819007
   2.6538129  67.0472885  74.0949467   3.2916539  66.9279632  73.3912807
   2.5358972  67.9953729  74.1537419   2.2079397  64.7724339  71.1702675
   2.9942487  64.3543762  70.8193092   2.4718102  65.6770431  71.3384323
   2.3789475  70.2097189  65.8691332   1.7435308  70.2831815  66.5812236
   2.0486881  70.7990788  65.1910411   7.6087825  64.7099572  72.0735653
   8.3412996  64.1398789  72.3073483   6.8527180  64.3221172  72.5142159
   5.1313245  58.4221146  76.5330262   4.7996570  59.2916557  76.3091477
   4.5358858  58.1057430  77.2124292   1.6244764  70.6233692  75.9326175
   1.3245487  71.5258731  75.8241982   1.2795824  70.3565875  76.7847328
   5.0241908  63.1416232  73.6123612   4.1158786  63.0731640  73.3182373
   4.9729504  63.6188177  74.4405438   6.8903555  61.3432670  75.3901486
   6.2477935  61.6365204  74.7441281   6.3858483  61.2285591  76.1954683
   4.5443718  65.0895844  66.0787345   5.4561574  65.3223230  65.9035043
   4.0353365  65.6732888  65.5162424   2.8284486  69.5120471  79.7148638
   3.2367842  69.0702882  78.9703270   2.1061747  68.9373099  79.9682831
   3.1513301  70.0721662  73.4700927   2.5222163  70.2367376  72.7676995
   2.7638963  70.4863272  74.2411891   7.0302532  71.0076100  70.8245290
   6.3453571  71.3875001  70.2742324   7.1146382  71.6171427  71.5577238
   2.3315001  62.1097447  78.7463368   2.0875933  62.8639507  78.2097644
   2.6074932  62.4882794  79.5810615   4.2853464  68.6536059  77.4240634
   4.4970359  69.2967819  76.7475015   4.2383212  67.8198375  76.9562564
   1.8879693  61.2653880  74.3277206   1.0264172  61.5635133  74.6193944
   1.9142128  61.4824278  73.3958239   5.3999292  71.5308014  75.5962991
   6.2216736  71.1288202  75.3145673   5.3961695  71.4276249  76.5479107
  13.4905285  67.8746763  71.9447963  12.7368993  67.3054161  71.7891967
  13.6252826  67.8409427  72.8918597   2.6053628  73.6486532  79.7784426
   2.5872103  74.4695413  79.2864695   3.5273548  73.5240607  80.0034567
   2.2296377  56.2690727  76.1501576   1.8860646  57.1592369  76.0740686
   2.5975339  56.0792385  75.2871161   2.1946659  66.2599338  64.6574011
   1.6793283  67.0303943  64.8962398   1.9223968  65.5864474  65.2807072
   1.3092917  58.6395382  74.1150809   0.8057713  58.6025517  73.3018614
   1.6023524  59.5488125  74.1747466   7.1680934  69.0131693  66.5927184
   6.3910376  68.6742852  66.1482346   7.8472415  69.0184316  65.9182149
   1.9832963  64.1326430  66.4833792   1.6783098  64.4472579  67.3343935
   2.9363405  64.2107850  66.5261125   5.4072240  68.4865674  73.2493792
   4.7495915  69.1764935  73.3373921   6.2112640  68.8762106  73.5927779
   4.2177699  66.8410047  71.2997734   4.7309581  67.4740039  71.8019444
   4.8678923  66.2411242  70.9341094   1.4800073  76.8194371  64.0558405
   0.8061772  77.1226068  64.6643363   1.8665895  77.6223451  63.7063862
   1.4793578  65.7150918  68.6758755   2.2265397  66.2272315  68.3665877
   1.7485167  65.3934971  69.5363148   4.9839495  71.8216048  69.4276877
   4.5301823  70.9806958  69.4842067   4.3533462  72.4577447  69.7651657
   3.9272415  62.7508034  70.6577544   3.1895172  62.2385420  70.9887787
   4.1799189  62.3108416  69.8460821   3.4272435  73.6592545  70.3626695
   3.7195409  74.2197602  69.6439060   3.9371055  73.9521106  71.1179854
   4.0284042  55.5284286  71.2519313   4.3342919  54.6681650  70.9645228
   4.7536647  56.1201906  71.0518307   1.8371694  64.9056963  78.3500777
   2.1921081  65.1328437  79.2095243   2.4843825  65.2375340  77.7278032
   7.5669431  68.0275399  69.0550106   7.4287329  68.2176995  68.1271295
   7.2105649  68.7894782  69.5118157   7.5938810  70.0951926  74.0661378
   8.0275317  70.0027215  74.9144432   8.3070391  70.0709427  73.4281394
   1.3266705  73.6954020  75.5994478   1.3803727  74.2644957  76.3672194
   0.4581487  73.8655906  75.2348515   8.4554360  70.1375627  76.5994263
   8.6490250  71.0421438  76.8453538   8.3554978  69.6783046  77.4332848
   3.5169468  70.2882370  82.1735144   3.3654975  70.0592921  81.2565227
   3.5074148  71.2452971  82.1866489   3.5707543  68.6102584  62.5905845
   2.9536714  67.8849412  62.4938898   3.1024032  69.3711944  62.2472919
   5.2261675  73.3201492  80.2511626   5.1674221  72.6360712  79.5842209
   5.6281194  74.0620482  79.7992252   5.2279082  71.2841076  78.4825605
   4.3405861  70.9466998  78.6052004   5.7977633  70.5524108  78.7194371
   1.8566666  60.9908928  71.6023875   2.3535365  60.2378890  71.2824946
   1.0853647  61.0273245  71.0367085   9.7096423  66.6949294  73.2442167
   9.6986299  67.5774009  72.8736100   8.8413802  66.3420844  73.0496704
   1.2178919  75.8429363  77.6045007   1.9306892  76.4776827  77.5320909
   0.7268948  75.9393229  76.7885009   2.9396446  69.7480615  69.1762299
   2.0052725  69.8682078  69.0067003   3.1173115  68.8453082  68.9122309
   6.3268998  65.5897935  69.7112333   6.7929450  66.4225926  69.6372636
   6.7776498  65.1242916  70.4157591   4.3945229  71.9341756  66.7098485
   4.6705073  71.8198350  67.6192359   3.5249727  71.5359241  66.6710658
   4.2985660  57.9578522  73.7503234   3.3848740  58.1882748  73.9185441
   4.7278762  58.0416966  74.6017267   4.0692119  66.1468414  76.2503128
   3.4163569  66.3944321  75.5955581   4.4472499  65.3332552  75.9165606
   1.0299293  76.1828107  70.3531299   1.2121687  75.3649763  70.8159051
   1.8532279  76.3995799  69.9156189   1.3641458  75.1096292  67.6146347
   1.8929225  74.5988746  67.0016509   1.6269678  74.7938822  68.4791880
   3.7113349  73.0216410  82.8275436   4.2553253  73.6346368  82.3330391
   3.1300194  73.5795988  83.3442449   1.9970862  76.1437128  73.9590464
   1.8722001  75.3426867  73.4501409   2.6549953  76.6383321  73.4704433
   4.0605770  73.9446148  75.5870014   3.1136106  73.8251499  75.5148340
   4.4088543  73.0568646  75.6696275   1.0652204  73.7398864  71.7874366
   0.9177166  72.8115571  71.9681936   1.8905697  73.7618955  71.3031441
   4.6686326  74.5627423  72.8739239   5.5932873  74.3570284  72.7363690
   4.5001629  74.3143824  73.7828580   1.0613718  61.5936702  66.7806483
   1.2777332  62.4761339  66.4795311   0.5807785  61.2022915  66.0512125
   4.4581642  75.0813090  68.2301330   4.6318519  74.5159513  67.4775182
   4.9510533  75.8813985  68.0480820  10.3121033  67.8449513  69.8491630
  10.7552179  67.0956838  69.4510753   9.4347543  67.8359649  69.4665362
   5.4456814  74.3979854  65.3298228   6.1407719  75.0186547  65.5485543
   5.7879964  73.5475206  65.6050606   7.3448237  71.8479560  66.8585559
   7.8699561  72.1866833  66.1334879   7.2570590  70.9126575  66.6748694
   7.0342143  72.4812464  82.1636757   6.2437687  72.4636603  81.6241256
   6.7975498  73.0200757  82.9185794   7.1540018  69.3304930  79.4769486
   7.2038023  69.1654937  80.4185008   7.0453942  68.4632189  79.0867366
   4.4443781  65.3135858  80.7928792   5.3453644  65.1742323  80.5012790
   4.5191755  65.4790313  81.7326970   8.6558215  71.7501872  79.7211507
   8.3643024  72.1131852  80.5574968   8.0430347  71.0368880  79.5424839
   9.8553898  69.3154751  72.2414077  10.6900789  69.7544555  72.4051638
   9.9913026  68.8393405  71.4222323   6.9045404  66.8734486  78.1891565
   7.3799525  67.0662132  77.3810416   5.9810969  66.9293672  77.9434949
   1.4825620  58.9082330  77.1547399   2.0007564  59.6443357  76.8293888
   1.1280753  59.2146323  77.9894158   1.7338214  55.3282612  72.6748296
   2.0139968  54.6605801  73.3008722   2.5188821  55.5211708  72.1622959
   5.6047073  63.7500246  76.4219871   6.5564495  63.8498344  76.4432095
   5.4350523  62.9578515  76.9317955   3.6261452  60.8355829  76.6079272
   3.0311384  61.1160842  75.9125760   3.3411149  61.3249730  77.3796013
   2.7568942  74.7878756  65.3681904   3.6899616  74.7224318  65.5714780
   2.6692155  75.6235023  64.9096437   5.3856959  74.1044627  62.3285852
   5.3070591  73.7704490  63.2221610   6.2066626  74.5966395  62.3277324
   8.0835150  66.9706366  75.5362170   8.0511470  66.0322367  75.7221854
   8.6935774  67.0490403  74.8027995   8.2329639  63.7617409  75.5820454
   7.7168687  62.9775866  75.3950382   9.1169587  63.4336126  75.7466973
   5.8940366  57.5058425  71.5416266   5.6965187  57.1973513  72.4259598
   6.5040071  58.2320064  71.6714196  13.9011700  68.0322373  74.6768207
  14.6315089  67.7707661  75.2375910  13.2918646  67.2951095  74.7170275
  11.9826997  66.1730235  75.2742658  11.2560161  66.0386200  74.6659150
  11.5674284  66.4807064  76.0799376   1.6514012  57.3867332  69.2912798
   2.2045051  57.8062785  69.9502821   1.8884099  56.4603080  69.3335754
   5.0292819  59.4967857  68.7991462   4.4491488  60.1552661  68.4169514
   4.7628752  58.6745202  68.3878879   3.4796386  58.8972915  71.0012782
   3.9796164  59.0089449  70.1927101   4.1231994  58.5933968  71.6413591
   3.8117697  61.6567947  67.8547810   2.9243552  61.9417598  67.6368005
   4.2271687  61.4961711  67.0075087   7.1632234  61.6814468  71.5702149
   7.9392624  62.1710921  71.8426766   6.4380368  62.1072523  72.0274019
   9.6004792  62.3942088  72.6276090  10.1949283  62.1537824  71.9169398
   9.6731376  61.6749218  73.2549626   2.9560911  71.4212622  61.9495830
   3.6596761  71.6262625  62.5653486   2.2323560  71.9889384  62.2144914
   3.7858721  67.1722483  68.0698100   3.7293923  67.6291035  67.2305733
   4.3387064  66.4113168  67.8920943   7.5963527  62.9612215  68.8948220
   7.3400461  62.5608851  69.7256427   6.9716395  63.6756009  68.7698359
  11.9075865  65.7008288  71.4019511  11.3475423  65.7701478  72.1751073
  11.3019368  65.5249273  70.6819007   4.8647608  71.8595151  63.9994290
   5.6993212  71.4276350  63.8171765   4.7031951  71.6877165  64.9271185
   4.5193500  68.3627265  65.3650629   4.4642304  68.1971536  64.4239074
   3.8939556  69.0703297  65.5212819   1.8339408  70.6676176  84.6904192
   2.7030567  70.8416829  84.3290827   1.3546159  71.4870593  84.5679922
   1.6441745  54.4578150  69.1981885   0.8774141  53.9036637  69.3438567
   2.0552450  54.5300019  70.0596036  13.4931883  82.3764802  74.0949467
  14.1310293  82.2571550  73.3912807  13.3752726  83.3245646  74.1537419
  10.3021590  82.3292230  74.0310992   9.9640101  82.2133295  73.1431526
  11.1711358  81.9283396  74.0111998   6.1608405  84.1827707  70.0207882
   5.5973271  84.0917644  69.2524170   6.0460800  83.3627611  70.5010375
  10.7841373  83.4827082  79.9897197  10.7730013  83.0879880  79.1177701
  10.9462012  82.7493155  80.5830969   3.7072837  85.6778898  72.8592103
   4.4994129  85.3369723  72.4438402   3.9469487  85.7873874  73.7794256
  11.7407964  87.8498675  65.3322347  11.0895944  88.4352755  64.9456361
  12.5352327  88.3804869  65.3917385   5.6663591  84.9387812  65.7309482
   6.4394467  84.3916799  65.5922358   6.0188990  85.8032061  65.9423943
   7.5048634  86.2664194  78.9376381   7.2138500  87.1709825  78.8223047
   8.1405618  86.3080722  79.6520451   8.4304841  83.6441043  75.5277741
   9.0268413  83.4197065  74.8134704   8.4879812  82.9025788  76.1303189
   8.0029869  81.0980478  63.3627932   8.2555390  80.5761999  62.6011395
   7.0654428  80.9346623  63.4654615  13.0473152  80.1016256  71.1702675
  13.8336241  79.6835679  70.8193092  13.3111856  81.0062348  71.3384323
  13.2183229  85.5389107  65.8691332  12.5829062  85.6123733  66.5812236
  12.8880636  86.1282705  65.1910411  18.4481579  80.0391489  72.0735653
  19.1806751  79.4690706  72.3073483  17.6920935  79.6513090  72.5142159
   7.7226158  83.0008584  65.5652307   7.6062416  82.3253487  66.2333391
   7.8328418  82.5140958  64.7484460  10.0657699  82.4618731  69.2698996
   9.7015906  81.9349352  69.9811917  10.9224815  82.0717200  69.0965481
  15.9706999  73.7513064  76.5330262  15.6390324  74.6208474  76.3091477
  15.3752613  73.4349348  77.2124292   9.7063186  77.4908631  64.2660344
   9.8737588  78.3588867  64.6330815   9.5160355  77.6535912  63.3421634
  12.4638519  85.9525610  75.9326175  12.1639242  86.8550648  75.8241982
  12.1189578  85.6857793  76.7847328   5.9151000  82.4039406  71.9662879
   4.9901497  82.2715620  72.1740571   6.1635414  83.1833626  72.4632822
  15.8635663  78.4708150  73.6123612  14.9552540  78.4023558  73.3182373
  15.8123258  78.9480095  74.4405438   9.6852407  79.9466288  65.2507011
   9.5652032  80.3923339  66.0892491   8.9904995  80.2951606  64.6920549
   3.2759811  82.0472680  72.8006668   3.4052193  82.3007159  73.7146080
   2.5957263  82.6400388  72.4811323   7.4459299  92.7169930  68.8997142
   7.3683328  93.6677755  68.9785623   6.8420942  92.3715802  69.5572069
   9.9376528  79.8897795  81.5558509   9.1609863  80.4491715  81.5461374
  10.5767092  80.3754578  82.0773379  17.7297309  76.6724588  75.3901486
  17.0871689  76.9657121  74.7441281  17.2252238  76.5577508  76.1954683
  15.3837473  80.4187761  66.0787345  16.2955329  80.6515148  65.9035043
  14.8747120  81.0024805  65.5162424   8.1922901  82.6983249  81.1176476
   8.9337585  83.2368293  80.8411300   7.4859886  83.3249537  81.2748028
  13.6678240  84.8412389  79.7148638  14.0761596  84.3994800  78.9703270
  12.9455502  84.2665017  79.9682831  10.0209310  79.7784996  77.0882195
  10.8670506  80.2024409  77.2316844   9.9607948  79.1218620  77.7820758
  13.9907055  85.4013580  73.4700927  13.3615917  85.5659294  72.7676995
  13.6032717  85.8155189  74.2411891  17.8696287  86.3368018  70.8245290
  17.1847325  86.7166919  70.2742324  17.9540136  86.9463344  71.5577238
  13.1708756  77.4389364  78.7463368  12.9269688  78.1931425  78.2097644
  13.4468686  77.8174712  79.5810615  15.1247219  83.9827977  77.4240634
  15.3364114  84.6259737  76.7475015  15.0776967  83.1490293  76.9562564
  12.7273448  76.5945797  74.3277206  11.8657927  76.8927051  74.6193944
  12.7535882  76.8116196  73.3958239   9.5435017  85.1387988  70.7351012
  10.0073362  85.4175691  69.9455634   9.2791815  84.2371432  70.5524102
   6.4359098  84.6859469  73.6730775   7.0060455  85.1146738  73.0348260
   7.0267210  84.4042054  74.3714961   8.4803903  81.2611140  67.5440577
   9.1827946  81.7132184  68.0114503   8.1484531  80.6194959  68.1720470
   6.9284265  79.8522897  81.9191786   6.2982925  80.5339178  82.1527183
   6.8220352  79.7405978  80.9744925   2.2229237  79.5194693  72.8457710
   1.4328291  79.7752221  72.3697821   2.7140484  80.3343031  72.9509751
  16.2393047  86.8599932  75.5962991  17.0610490  86.4580119  75.3145673
  16.2355449  86.7568166  76.5479107   4.1743982  79.8839272  69.8041187
   3.3775146  79.9957966  70.3224683   3.9469575  80.2225924  68.9382078
  10.0049650  86.4083975  77.7523702  10.0694082  86.8704383  78.5881874
   9.2960574  85.7781340  77.8806012   0.5066940  79.7725183  75.2772701
   0.7574978  80.6572193  75.5430277   1.0426488  79.5929785  74.5047793
  24.3299040  83.2038681  71.9447963  23.5762748  82.6346079  71.7891967
  24.4646581  83.1701345  72.8918597   9.7197668  88.0752083  67.6202682
   9.5843342  88.9203619  68.0487530  10.2607480  88.2771360  66.8568616
   6.2065007  74.1543663  84.2817037   5.8131953  73.6009861  84.9564682
   7.0231148  74.4654241  84.6723555   3.1727065  85.5927521  68.1930607
   3.6851586  86.3870771  68.3436172   3.8249778  84.8953811  68.1264209
   4.9821950  88.7093277  70.2753360   5.1588578  89.6311242  70.0874344
   5.7778783  88.3951696  70.7047740   9.1232968  75.5701542  81.8737294
   9.8642682  76.1708695  81.7941756   9.3550891  74.8279180  81.3155337
   4.2674306  80.7557909  80.1515524   4.1527821  79.8543166  80.4522623
   3.4118824  81.0021606  79.8000340  11.3466144  88.6975649  81.7503024
  10.9029998  87.9112028  81.4323929  12.0083358  88.8854800  81.0846915
   6.1053265  90.2271451  76.2763703   6.6560690  90.0988514  75.5040697
   5.2664741  90.5266340  75.9258596  13.4447382  88.9778449  79.7784426
  13.4265857  89.7987330  79.2864695  14.3667302  88.8532524  80.0034567
   9.9020436  86.4922579  80.6207934  10.4348773  85.7310867  80.3907242
   9.3734517  86.1996231  81.3632088  13.0690131  71.5982645  76.1501576
  12.7254401  72.4884286  76.0740686  13.4369094  71.4084302  75.2871161
   1.1375982  83.9216175  68.9690178   1.9751204  84.3313184  68.7523885
   1.3154249  82.9815617  68.9390372  13.0340414  81.5891256  64.6574011
  12.5187037  82.3595860  64.8962398  12.7617722  80.9156392  65.2807072
  10.6187525  76.4340957  69.7159249   9.7629121  76.0447807  69.5364888
  11.0314477  76.5132917  68.8559035  12.1486672  73.9687300  74.1150809
  11.6451467  73.9317435  73.3018614  12.4417278  74.8780043  74.1747466
   8.3929557  74.0526030  73.1216991   9.2582554  73.8568838  72.7622880
   8.4607066  73.8236381  74.0486347  18.0074688  84.3423610  66.5927184
  17.2304131  84.0034770  66.1482346  18.6866169  84.3476234  65.9182149
  12.8226717  79.4618348  66.4833792  12.5176853  79.7764497  67.3343935
  13.7757159  79.5399768  66.5261125  11.2673149  85.6208571  68.1326746
  10.7394510  84.8861331  67.8199983  10.7660652  86.3983248  67.8866714
  16.2465995  83.8157592  73.2493792  15.5889669  84.5056853  73.3373921
  17.0506394  84.2054024  73.5927779   5.9991877  76.2828238  70.4933357
   6.5735628  76.0603419  69.7606550   6.5862859  76.3516932  71.2461959
  15.0571454  82.1701964  71.2997734  15.5703335  82.8031956  71.8019444
  15.7072678  81.5703160  70.9341094   6.3261464  78.3132699  64.5129243
   5.4898776  78.6507385  64.8338517   6.1866233  78.1781678  63.5756380
   8.3014544  73.1569486  69.2208427   7.6478957  72.8418504  68.5965042
   8.2595018  72.5345227  69.9468250   9.4125749  83.4388781  61.1361719
   8.5052811  83.2078035  61.3352868   9.9096781  82.6426401  61.3235700
  12.3193828  92.1486289  64.0558405  11.6455527  92.4517985  64.6643363
  12.7059650  92.9515369  63.7063862  11.5352285  79.6451420  73.5456074
  10.6174846  79.8666367  73.3877763  11.9512428  79.7197730  72.6867782
  12.3187332  81.0442836  68.6758755  13.0659151  81.5564233  68.3665877
  12.5878922  80.7226888  69.5363148  10.5913983  83.5401376  65.6585709
   9.6825202  83.2560409  65.7558179  10.6209066  83.9600455  64.7989016
  15.8233250  87.1507966  69.4276877  15.3695577  86.3098876  69.4842067
  15.1927217  87.7869364  69.7651657  14.7666170  78.0799952  70.6577544
  14.0288926  77.5677338  70.9887787  15.0192943  77.6400333  69.8460821
  14.2666189  88.9884463  70.3626695  14.5589164  89.5489520  69.6439060
  14.7764810  89.2813024  71.1179854  14.8677797  70.8576204  71.2519313
  15.1736674  69.9973567  70.9645228  15.5930402  71.4493824  71.0518307
   1.1602153  81.2606890  69.6400911   0.9626553  80.6676251  68.9151978
   0.6048817  80.9559101  70.3576850   9.1398877  81.1529997  71.7595504
   9.1947486  80.2003833  71.6837981   8.3290079  81.3089436  72.2436803
  10.2890070  85.0810120  62.9973788   9.8509500  84.3645979  62.5379425
  11.0300511  85.3086235  62.4358879   7.0791236  79.7707057  69.5185883
   6.2659102  80.0701227  69.9251075   7.5750231  79.3762745  70.2360365
   9.2299814  89.7664814  71.4520148   9.1875993  89.9925660  70.5228680
  10.1462513  89.5328188  71.6005949  12.6765448  80.2348881  78.3500777
  13.0314836  80.4620354  79.2095243  13.3237579  80.5667258  77.7278032
  18.4063185  83.3567317  69.0550106  18.2681084  83.5468913  68.1271295
  18.0499404  84.1186700  69.5118157   6.5705311  77.3425412  75.1347118
   7.2104691  77.2014171  74.4370082   5.7382842  77.0559926  74.7585720
  18.4332565  85.4243844  74.0661378  18.8669071  85.3319133  74.9144432
  19.1464145  85.4001345  73.4281394   7.3465615  86.6427843  71.2482111
   8.1406214  86.1478163  71.0464686   6.6357308  86.1145706  70.8849816
  12.1660460  89.0245938  75.5994478  12.2197482  89.5936874  76.3672194
  11.2975241  89.1947823  75.2348515   3.6548379  80.7870924  67.3241863
   2.7245967  80.7255380  67.5411825   3.7505851  80.2646877  66.5278505
   3.5733928  77.3125737  69.9120105   3.8340745  78.2271070  69.8029265
   4.3951100  76.8450180  70.0616718   5.0458853  78.7263494  77.0818930
   5.7181906  78.5180857  76.4331578   4.2188640  78.5285580  76.6424162
  19.2948114  85.4667545  76.5994263  19.4884004  86.3713355  76.8453538
  19.1948732  85.0074964  77.4332848  10.9484425  75.3525435  79.0984590
  10.3012340  76.0515385  79.0049067  11.7185440  75.7861579  79.4660839
  14.3563223  85.6174287  82.1735144  14.2048729  85.3884839  81.2565227
  14.3467902  86.5744889  82.1866489  11.1248559  83.1906200  77.1581410
  12.0540619  83.3417360  76.9850377  10.7039589  83.2790221  76.3030057
   9.9236891  87.2156865  74.9279948   9.7847977  86.8475649  75.8005886
   9.1351487  87.7304504  74.7563906  10.5185043  92.3165961  66.2705484
  10.6936799  91.8454004  67.0851107   9.8317831  92.9431727  66.4986745
  11.4742106  86.5938467  72.3168786  11.1391939  86.5539237  73.2126435
  10.9746052  85.9283183  71.8439196   5.4486350  82.0006097  77.8421367
   5.3106148  81.2686336  78.4432906   6.3591274  81.9114997  77.5605554
  14.4101298  83.9394502  62.5905845  13.7930469  83.2141330  62.4938898
  13.9417786  84.7003862  62.2472919   8.0768651  81.7126057  77.3305046
   8.7868269  81.0719249  77.2891665   8.0337959  81.9638952  78.2531227
  16.0655430  88.6493410  80.2511626  16.0067976  87.9652630  79.5842209
  16.4674948  89.3912400  79.7992252   6.7897585  78.6991275  79.1500686
   6.2534942  78.2482013  79.8022282   6.2014293  78.8337183  78.4071150
   5.0846128  95.4655324  73.0445344   5.3242727  96.0973848  73.7224363
   4.2415325  95.1143364  73.3310704   6.1999844  78.1579926  61.7127149
   5.3229310  78.0368727  61.3489396   6.6757597  77.3666004  61.4606038
  16.0672837  86.6132994  78.4825605  15.1799616  86.2758916  78.6052004
  16.6371388  85.8816025  78.7194371   2.5236706  77.8347282  76.2353680
   2.4394895  77.2272952  75.5004090   1.7019413  78.3256301  76.2363177
   9.5973990  91.2734446  75.4486848   9.5244162  92.0789418  75.9606153
   9.1551383  91.4726412  74.6234870   9.3863770  90.5106216  68.9589670
   8.6031292  91.0527897  69.0527894  10.0856515  91.0280196  69.3583911
  12.6960420  76.3200846  71.6023875  13.1929120  75.5670808  71.2824946
  11.9247402  76.3565162  71.0367085  20.5490177  82.0241211  73.2442167
  20.5380054  82.9065927  72.8736100  19.6807557  81.6712762  73.0496704
  12.0572674  91.1721280  77.6045007  12.7700646  91.8068745  77.5320909
  11.5662702  91.2685146  76.7885009  13.7790201  85.0772533  69.1762299
  12.8446479  85.1973995  69.0067003  13.9566869  84.1745000  68.9122309
   9.2795389  78.4618229  71.3295560   8.9093176  77.9089269  72.0176466
   9.7754481  77.8576362  70.7770560  17.1662752  80.9189852  69.7112333
  17.6323204  81.7517844  69.6372636  17.6170253  80.4534834  70.4157591
   7.1084587  88.9215724  78.4250578   7.8094047  89.5552207  78.5779972
   6.6379702  89.2630455  77.6646217  15.2338983  87.2633674  66.7098485
  15.5098827  87.1490268  67.6192359  14.3643482  86.8651158  66.6710658
  15.1379415  73.2870439  73.7503234  14.2242495  73.5174666  73.9185441
  15.5672516  73.3708883  74.6017267  14.9085873  81.4760331  76.2503128
  14.2557324  81.7236239  75.5955581  15.2866253  80.6624469  75.9165606
  11.8693047  91.5120024  70.3531299  12.0515442  90.6941680  70.8159051
  12.6926033  91.7287717  69.9156189  12.2035213  90.4388210  67.6146347
  12.7322979  89.9280664  67.0016509  12.4663432  90.1230740  68.4791880
  10.9573446  82.2180142  82.7369165  10.2814083  82.1174272  83.4071541
  11.7801080  82.0619356  83.2005163   2.7052305  88.4552079  75.3581681
   3.2905742  87.7095767  75.4909585   2.5077144  88.7656036  76.2418344
   5.5590961  91.4903326  70.3744123   4.8901336  91.9749454  69.8908163
   5.4203830  91.7372547  71.2887502   9.6996229  93.5247070  76.9726781
  10.2514537  93.6878691  77.7375867  10.0402423  94.1151508  76.3006806
   4.6760722  75.8722220  77.5748666   4.7402049  76.7337050  77.1626064
   4.6127843  75.2596221  76.8421025   4.1512995  77.9445352  81.2221700
   4.7785034  77.5622429  81.8359225   3.2940914  77.7259554  81.5877393
  14.5507104  88.3508327  82.8275436  15.0947007  88.9638286  82.3330391
  13.9693948  88.9087906  83.3442449  12.8364616  91.4729045  73.9590464
  12.7115756  90.6718785  73.4501409  13.4943708  91.9675239  73.4704433
   4.4572785  77.8277778  73.1367604   3.7359370  78.4413745  72.9975077
   5.2466040  78.3635543  73.0584250  14.8999525  89.2738065  75.5870014
  13.9529860  89.1543417  75.5148340  15.2482298  88.3860563  75.6696275
   7.2599098  75.1632204  79.4108255   7.7833500  75.4094501  80.1734565
   7.0411431  75.9952239  78.9911393   2.6566379  77.4335879  67.2779380
   2.3279085  76.5533258  67.0954486   3.0105750  77.3783548  68.1655770
  11.9045958  89.0690782  71.7874366  11.7570921  88.1407489  71.9681936
  12.7299452  89.0910872  71.3031441   5.7708202  77.7208849  67.6454858
   6.1104275  78.2494770  66.9233466   6.2180323  78.0589255  68.4213424
  15.5080080  89.8919340  72.8739239  16.4326627  89.6862202  72.7363690
  15.3395383  89.6435741  73.7828580   8.4651643  76.1045899  77.0957926
   8.1248464  75.3053712  77.4978606   7.7590650  76.4047610  76.5234759
   9.1168115  73.1895212  75.5485249   9.9394184  72.7155690  75.4264139
   9.3606179  73.9685696  76.0483935   7.7576350  76.2183470  65.8448151
   8.4784712  76.5964723  65.3411868   7.1341654  76.9372347  65.9483129
  11.9007472  76.9228619  66.7806483  12.1171087  77.8053257  66.4795311
  11.4201540  76.5314833  66.0512125   6.6406694  79.8814332  73.3577228
   6.4951275  80.1954636  74.2501509   6.1631897  80.4999233  72.8048126
   8.5003077  76.8716880  73.4058117   8.4864645  75.9757974  73.0690415
   9.2175505  76.8787544  74.0396403  10.3529207  77.3054221  75.4511245
  10.0946985  78.2271291  75.4495575   9.8214248  76.9084655  76.1411709
  15.2975396  90.4105008  68.2301330  15.4712274  89.8451430  67.4775182
  15.7904287  91.2105903  68.0480820   1.1152356  82.4219677  76.2964889
   0.5705824  83.1979485  76.4285163   1.9931706  82.7690481  76.1384010
   7.9039973  75.7531261  68.6745687   8.0255884  74.8247907  68.8736575
   7.6142015  75.7669947  67.7624003  10.7731163  73.4386171  71.8112407
  10.7952860  73.5025504  70.8564387  11.1899222  72.5990680  72.0052913
  21.1514787  83.1741431  69.8491630  21.5945933  82.4248756  69.4510753
  20.2741298  83.1651567  69.4665362  16.2850569  89.7271772  65.3298228
  16.9801473  90.3478465  65.5485543  16.6273719  88.8767123  65.6050606
   1.9018378  81.5489573  79.1895046   1.1600114  81.6972208  79.7759676
   1.5811122  81.8097839  78.3261795  18.1841992  87.1771478  66.8585559
  18.7093316  87.5158750  66.1334879  18.0964344  86.2418493  66.6748694
   9.8462041  91.0905551  78.9875436  10.1549167  90.8454698  79.8598135
  10.6437523  91.2952190  78.4994306   9.8682653  93.2443461  71.2180812
   9.4287643  92.7519840  71.9113669  10.6190770  92.7016429  70.9772887
   2.3474992  89.4355002  71.2205440   3.1733011  89.1358774  70.8404084
   1.9969044  88.6662624  71.6695229   7.3156525  88.7881470  73.2903114
   6.6936534  88.1252175  72.9905342   7.9861392  88.8142602  72.6076762
   7.3881052  77.2663258  82.8835620   7.4369208  78.1425381  82.5013390
   7.9303566  76.7240651  82.3107263  17.8735898  87.8104381  82.1636757
  17.0831442  87.7928520  81.6241256  17.6369252  88.3492675  82.9185794
  17.9933773  84.6596848  79.4769486  18.0431778  84.4946855  80.4185008
  17.8847696  83.7924107  79.0867366   6.8770032  87.3385393  66.7661574
   7.0258152  88.0220858  66.1128247   7.6836475  87.3190483  67.2811030
  15.2837535  80.6427776  80.7928792  16.1847398  80.5034241  80.5012790
  15.3585510  80.8082231  81.7326970   9.6180341  78.0194630  79.6381979
   8.7483650  78.3128197  79.3664567   9.8539821  78.6035075  80.3589242
  19.4951970  87.0793789  79.7211507  19.2036778  87.4423770  80.5574968
  18.8824101  86.3660798  79.5424839  20.6947652  84.6446669  72.2414077
  21.5294543  85.0836473  72.4051638  20.8306781  84.1685322  71.4222323
  17.7439158  82.2026404  78.1891565  18.2193280  82.3954050  77.3810416
  16.8204723  82.2585590  77.9434949   4.6322665  83.3650571  67.7722643
   4.3868707  82.4612901  67.9702854   4.8018579  83.3667721  66.8302121
  12.3219374  74.2374247  77.1547399  12.8401318  74.9735274  76.8293888
  11.9674507  74.5438241  77.9894158   3.9018312  79.0978929  65.2708805
   3.2087557  79.1723284  64.6148841   3.6570064  78.3339272  65.7930322
  12.5731969  70.6574530  72.6748296  12.8533722  69.9897719  73.3008722
  13.3582576  70.8503626  72.1622959  10.3765437  89.8333524  64.2373322
   9.8039404  90.4523711  63.7843794  10.9498231  90.3832886  64.7713244
  16.4440827  79.0792164  76.4219871  17.3958250  79.1790262  76.4432095
  16.2744277  78.2870432  76.9317955  14.4655206  76.1647747  76.6079272
  13.8705139  76.4452760  75.9125760  14.1804903  76.6541648  77.3796013
  13.5962697  90.1170674  65.3681904  14.5293370  90.0516236  65.5714780
  13.5085910  90.9526941  64.9096437  16.2250714  89.4336544  62.3285852
  16.1464345  89.0996408  63.2221610  17.0460380  89.9258312  62.3277324
  18.9228905  82.2998284  75.5362170  18.8905225  81.3614284  75.7221854
  19.5329528  82.3782320  74.8027995  10.7612236  81.1694337  61.5789374
  11.7071340  81.0400545  61.6477792  10.3826481  80.4308999  62.0558803
  19.0723393  79.0909327  75.5820454  18.5562442  78.3067784  75.3950382
  19.9563342  78.7628044  75.7466973  16.7334120  72.8350343  71.5416266
  16.5358941  72.5265431  72.4259598  17.3433826  73.5611982  71.6714196
  24.7405455  83.3614290  74.6768207  25.4708843  83.0999579  75.2375910
  24.1312400  82.6243012  74.7170275  22.8220752  81.5022153  75.2742658
  22.0953915  81.3678118  74.6659150  22.4068039  81.8098982  76.0799376
  10.6450928  85.2212083  83.0390031  11.5653938  85.3990682  83.2330078
  10.6100511  84.2768128  82.8869731   8.9455153  79.0944313  61.5144260
   8.0386608  78.7977426  61.5906973   9.2231134  78.7974131  60.6478546
   3.6413001  83.1313117  75.6812813   3.8599011  84.0630225  75.7000846
   4.0538775  82.7721092  76.4667616  10.5617219  73.6381203  67.6688501
   9.7517947  73.2928288  68.0443747  11.2501635  73.3288746  68.2576112
  12.4907767  72.7159250  69.2912798  13.0438805  73.1354703  69.9502821
  12.7277853  71.7894998  69.3335754   8.5140866  78.7046323  85.0715561
   8.4137593  79.6540680  85.0027653   8.2962408  78.3764562  84.1991632
   7.7153937  75.9531248  61.6556239   8.5773101  76.2786147  61.9152056
   7.9004282  75.1662744  61.1429305  15.8686574  74.8259775  68.7991462
  15.2885243  75.4844579  68.4169514  15.6022507  74.0037119  68.3878879
  14.3190140  74.2264832  71.0012782  14.8189919  74.3381367  70.1927101
  14.9625748  73.9225885  71.6413591   8.3772136  82.1343462  83.8880623
   7.8939218  82.9343822  84.0944512   8.4633075  82.1451407  82.9348067
   1.6458096  83.9671842  71.8102442   1.6228784  84.0659529  70.8584326
   1.9558732  84.8136992  72.1319609   4.3045474  86.0247997  75.9249057
   5.2588727  85.9931939  75.8578988   4.1057997  85.5638620  76.7399283
   4.8944856  84.5949113  78.4919855   5.7137745  85.0893191  78.5154692
   5.1681663  83.6781081  78.4637422  14.6511452  76.9859865  67.8547810
  13.7637307  77.2709516  67.6368005  15.0665441  76.8253628  67.0075087
  18.0025988  77.0106386  71.5702149  18.7786378  77.5002838  71.8426766
  17.2774122  77.4364440  72.0274019  20.4398547  77.7234005  72.6276090
  21.0343037  77.4829741  71.9169398  20.5125130  77.0041136  73.2549626
   2.6595702  91.5667616  72.9419255   2.5250170  90.8068017  72.3757253
   2.2427765  92.2908516  72.4748044  13.7954665  86.7504540  61.9495830
  14.4990516  86.9554542  62.5653486  13.0717314  87.3181302  62.2144914
  14.6252476  82.5014401  68.0698100  14.5687677  82.9582952  67.2305733
  15.1780818  81.7405086  67.8920943  18.4357282  78.2904133  68.8948220
  18.1794216  77.8900769  69.7256427  17.8110150  79.0047927  68.7698359
  22.7469619  81.0300206  71.4019511  22.1869177  81.0993395  72.1751073
  22.1413123  80.8541191  70.6819007   5.8164828  92.4636933  73.1537697
   5.6997212  93.4082366  73.0516388   4.9957275  92.1610495  73.5423497
  15.7041363  87.1887069  63.9994290  16.5386967  86.7568267  63.8171765
  15.5425706  87.0169083  64.9271185  15.3587255  83.6919182  65.3650629
  15.3036059  83.5263454  64.4239074  14.7333310  84.3995215  65.5212819
  12.6733162  85.9968094  84.6904192  13.5424322  86.1708746  84.3290827
  12.1939914  86.8162511  84.5679922   8.6683380  73.1927291  64.9435948
   8.6562050  74.1369131  65.1004219   9.5606802  73.0097437  64.6495409
   6.8419342  93.1165195  76.3693626   7.7446589  93.1488805  76.6860121
   6.6156712  92.1865646  76.3839962   8.5972944  91.8696182  73.0303704
   7.6468575  91.8698043  72.9168077   8.9005431  91.1228916  72.5139739
  12.4835500  69.7870068  69.1981885  11.7167896  69.2328555  69.3438567
  12.8946205  69.8591937  70.0596036   4.4877261  76.0754864  83.2887066
   5.3508723  75.7191669  83.4990390   3.9142672  75.7368759  83.9762470
  24.3325638  97.7056720  74.0949467  24.9704048  97.5863467  73.3912807
  24.2146481  98.6537564  74.1537419  21.1415344  97.6584148  74.0310992
  20.8033856  97.5425213  73.1431526  22.0105112  97.2575313  74.0111998
  17.0002160  99.5119625  70.0207882  16.4367025  99.4209561  69.2524170
  16.8854555  98.6919529  70.5010375  21.6235127  98.8119000  79.9897197
  21.6123768  98.4171798  79.1177701  21.7855767  98.0785072  80.5830969
  14.5466592 101.0070816  72.8592103  15.3387884 100.6661641  72.4438402
  14.7863242 101.1165791  73.7794256  22.5801719 103.1790592  65.3322347
  21.9289698 103.7644673  64.9456361  23.3746081 103.7096787  65.3917385
  16.5057346 100.2679729  65.7309482  17.2788222  99.7208716  65.5922358
  16.8582745 101.1323979  65.9423943  18.3442388 101.5956112  78.9376381
  18.0532254 102.5001743  78.8223047  18.9799373 101.6372639  79.6520451
  19.2698595  98.9732960  75.5277741  19.8662167  98.7488983  74.8134704
  19.3273567  98.2317706  76.1303189  18.8423624  96.4272396  63.3627932
  19.0949144  95.9053917  62.6011395  17.9048183  96.2638541  63.4654615
  23.8866906  95.4308174  71.1702675  24.6729996  95.0127597  70.8193092
  24.1505611  96.3354266  71.3384323  24.0576984 100.8681024  65.8691332
  23.4222817 100.9415651  66.5812236  23.7274390 101.4574623  65.1910411
  29.2875334  95.3683407  72.0735653  30.0200505  94.7982624  72.3073483
  28.5314689  94.9805008  72.5142159  18.5619912  98.3300501  65.5652307
  18.4456170  97.6545405  66.2333391  18.6722172  97.8432875  64.7484460
  20.9051453  97.7910649  69.2698996  20.5409660  97.2641270  69.9811917
  21.7618569  97.4009118  69.0965481  26.8100754  89.0804981  76.5330262
  26.4784079  89.9500392  76.3091477  26.2146367  88.7641265  77.2124292
  20.5456940  92.8200548  64.2660344  20.7131343  93.6880785  64.6330815
  20.3554109  92.9827830  63.3421634  23.3032273 101.2817527  75.9326175
  23.0032996 102.1842566  75.8241982  22.9583333 101.0149710  76.7847328
  16.7544755  97.7331324  71.9662879  15.8295251  97.6007538  72.1740571
  17.0029168  98.5125543  72.4632822  26.7029417  93.8000067  73.6123612
  25.7946295  93.7315476  73.3182373  26.6517013  94.2772012  74.4405438
  20.5246161  95.2758206  65.2507011  20.4045786  95.7215257  66.0892491
  19.8298749  95.6243523  64.6920549  14.1153566  97.3764598  72.8006668
  14.2445947  97.6299077  73.7146080  13.4351017  97.9692306  72.4811323
  20.7770283  95.2189713  81.5558509  20.0003617  95.7783633  81.5461374
  21.4160846  95.7046496  82.0773379  28.5691064  92.0016506  75.3901486
  27.9265444  92.2949039  74.7441281  28.0645992  91.8869426  76.1954683
  26.2231227  95.7479679  66.0787345  27.1349083  95.9807066  65.9035043
  25.7140874  96.3316723  65.5162424  19.0316655  98.0275166  81.1176476
  19.7731340  98.5660210  80.8411300  18.3253641  98.6541455  81.2748028
  24.5071995 100.1704307  79.7148638  24.9155351  99.7286717  78.9703270
  23.7849256  99.5956934  79.9682831  20.8603065  95.1076914  77.0882195
  21.7064260  95.5316327  77.2316844  20.8001703  94.4510538  77.7820758
  24.8300810 100.7305497  73.4700927  24.2009672 100.8951212  72.7676995
  24.4426472 101.1447107  74.2411891  28.7090041 101.6659935  70.8245290
  28.0241080 102.0458837  70.2742324  28.7933891 102.2755262  71.5577238
  24.0102510  92.7681282  78.7463368  23.7663442  93.5223342  78.2097644
  24.2862441  93.1466630  79.5810615  25.9640973  99.3119894  77.4240634
  26.1757868  99.9551654  76.7475015  25.9170721  98.4782211  76.9562564
  23.5667202  91.9237715  74.3277206  22.7051681  92.2218968  74.6193944
  23.5929637  92.1408114  73.3958239  20.3828771 100.4679905  70.7351012
  20.8467117 100.7467608  69.9455634  20.1185570  99.5663350  70.5524102
  17.2752852 100.0151387  73.6730775  17.8454210 100.4438655  73.0348260
  17.8660964  99.7333972  74.3714961  19.3197657  96.5903058  67.5440577
  20.0221701  97.0424102  68.0114503  18.9878286  95.9486877  68.1720470
  17.7678019  95.1814814  81.9191786  17.1376680  95.8631095  82.1527183
  17.6614107  95.0697896  80.9744925  13.0622991  94.8486611  72.8457710
  12.2722045  95.1044139  72.3697821  13.5534239  95.6634948  72.9509751
  27.0786801 102.1891850  75.5962991  27.9004245 101.7872037  75.3145673
  27.0749204 102.0860084  76.5479107  15.0137737  95.2131190  69.8041187
  14.2168900  95.3249884  70.3224683  14.7863329  95.5517842  68.9382078
  20.8443404 101.7375893  77.7523702  20.9087837 102.1996300  78.5881874
  20.1354328 101.1073258  77.8806012  11.3460694  95.1017101  75.2772701
  11.5968733  95.9864111  75.5430277  11.8820243  94.9221703  74.5047793
  35.1692794  98.5330598  71.9447963  34.4156502  97.9637996  71.7891967
  35.3040335  98.4993263  72.8918597  20.5591422 103.4044000  67.6202682
  20.4237097 104.2495536  68.0487530  21.1001235 103.6063278  66.8568616
  17.0458762  89.4835580  84.2817037  16.6525707  88.9301779  84.9564682
  17.8624902  89.7946159  84.6723555  14.0120819 100.9219439  68.1930607
  14.5245340 101.7162689  68.3436172  14.6643532 100.2245729  68.1264209
  15.8215704 104.0385195  70.2753360  15.9982333 104.9603160  70.0874344
  16.6172538 103.7243614  70.7047740  19.9626723  90.8993459  81.8737294
  20.7036436  91.5000613  81.7941756  20.1944646  90.1571097  81.3155337
  15.1068061  96.0849827  80.1515524  14.9921576  95.1835084  80.4522623
  14.2512578  96.3313523  79.8000340  22.1859898 104.0267567  81.7503024
  21.7423753 103.2403946  81.4323929  22.8477112 104.2146718  81.0846915
  16.9447020 105.5563369  76.2763703  17.4954445 105.4280432  75.5040697
  16.1058496 105.8558258  75.9258596  24.2841137 104.3070367  79.7784426
  24.2659612 105.1279248  79.2864695  25.2061057 104.1824442  80.0034567
  20.7414191 101.8214496  80.6207934  21.2742527 101.0602785  80.3907242
  20.2128272 101.5288148  81.3632088  23.9083886  86.9274562  76.1501576
  23.5648155  87.8176204  76.0740686  24.2762848  86.7376220  75.2871161
  11.9769736  99.2508093  68.9690178  12.8144958  99.6605101  68.7523885
  12.1548004  98.3107535  68.9390372  23.8734168  96.9183173  64.6574011
  23.3580792  97.6887778  64.8962398  23.6011477  96.2448310  65.2807072
  21.4581279  91.7632874  69.7159249  20.6022876  91.3739725  69.5364888
  21.8708231  91.8424835  68.8559035  22.9880426  89.2979218  74.1150809
  22.4845222  89.2609353  73.3018614  23.2811033  90.2071960  74.1747466
  19.2323312  89.3817947  73.1216991  20.0976309  89.1860756  72.7622880
  19.3000821  89.1528299  74.0486347  28.8468443  99.6715528  66.5927184
  28.0697885  99.3326688  66.1482346  29.5259923  99.6768151  65.9182149
  23.6620472  94.7910266  66.4833792  23.3570607  95.1056415  67.3343935
  24.6150914  94.8691685  66.5261125  22.1066903 100.9500489  68.1326746
  21.5788265 100.2153248  67.8199983  21.6054406 101.7275165  67.8866714
  27.0859749  99.1449509  73.2493792  26.4283424  99.8348771  73.3373921
  27.8900149  99.5345941  73.5927779  16.8385631  91.6120155  70.4933357
  17.4129383  91.3895337  69.7606550  17.4256613  91.6808850  71.2461959
  25.8965208  97.4993882  71.2997734  26.4097090  98.1323874  71.8019444
  26.5466432  96.8995078  70.9341094  17.1655218  93.6424616  64.5129243
  16.3292530  93.9799303  64.8338517  17.0259988  93.5073596  63.5756380
  19.1408299  88.4861404  69.2208427  18.4872711  88.1710421  68.5965042
  19.0988773  87.8637145  69.9468250  20.2519504  98.7680699  61.1361719
  19.3446565  98.5369953  61.3352868  20.7490536  97.9718318  61.3235700
  23.1587582 107.4778206  64.0558405  22.4849281 107.7809903  64.6643363
  23.5453404 108.2807287  63.7063862  22.3746039  94.9743338  73.5456074
  21.4568600  95.1958285  73.3877763  22.7906183  95.0489648  72.6867782
  23.1581087  96.3734753  68.6758755  23.9052906  96.8856151  68.3665877
  23.4272676  96.0518806  69.5363148  21.4307737  98.8693294  65.6585709
  20.5218956  98.5852327  65.7558179  21.4602821  99.2892373  64.7989016
  26.6627004 102.4799884  69.4276877  26.2089332 101.6390793  69.4842067
  26.0320971 103.1161282  69.7651657  25.6059924  93.4091870  70.6577544
  24.8682681  92.8969256  70.9887787  25.8586698  92.9692251  69.8460821
  25.1059944 104.3176380  70.3626695  25.3982918 104.8781437  69.6439060
  25.6158564 104.6104941  71.1179854  25.7071551  86.1868122  71.2519313
  26.0130428  85.3265485  70.9645228  26.4324156  86.7785742  71.0518307
  11.9995907  96.5898808  69.6400911  11.8020307  95.9968169  68.9151978
  11.4442571  96.2851018  70.3576850  19.9792631  96.4821915  71.7595504
  20.0341241  95.5295751  71.6837981  19.1683833  96.6381354  72.2436803
  21.1283825 100.4102038  62.9973788  20.6903255  99.6937897  62.5379425
  21.8694266 100.6378153  62.4358879  17.9184991  95.0998974  69.5185883
  17.1052857  95.3993145  69.9251075  18.4143985  94.7054663  70.2360365
  20.0693569 105.0956731  71.4520148  20.0269748 105.3217578  70.5228680
  20.9856268 104.8620106  71.6005949  23.5159203  95.5640799  78.3500777
  23.8708590  95.7912272  79.2095243  24.1631334  95.8959176  77.7278032
  29.2456940  98.6859235  69.0550106  29.1074838  98.8760831  68.1271295
  28.8893158  99.4478618  69.5118157  17.4099066  92.6717330  75.1347118
  18.0498445  92.5306089  74.4370082  16.5776596  92.3851843  74.7585720
  29.2726319 100.7535762  74.0661378  29.7062826 100.6611051  74.9144432
  29.9857900 100.7293262  73.4281394  18.1859370 101.9719760  71.2482111
  18.9799968 101.4770080  71.0464686  17.4751062 101.4437623  70.8849816
  23.0054214 104.3537856  75.5994478  23.0591236 104.9228792  76.3672194
  22.1368995 104.5239741  75.2348515  14.4942133  96.1162842  67.3241863
  13.5639721  96.0547298  67.5411825  14.5899605  95.5938795  66.5278505
  14.4127682  92.6417655  69.9120105  14.6734499  93.5562988  69.8029265
  15.2344854  92.1742097  70.0616718  15.8852607  94.0555412  77.0818930
  16.5575661  93.8472774  76.4331578  15.0582394  93.8577498  76.6424162
  30.1341869 100.7959462  76.5994263  30.3277759 101.7005273  76.8453538
  30.0342487 100.3366881  77.4332848  21.7878180  90.6817353  79.0984590
  21.1406095  91.3807303  79.0049067  22.5579195  91.1153497  79.4660839
  25.1956977 100.9466205  82.1735144  25.0442484 100.7176757  81.2565227
  25.1861657 101.9036807  82.1866489  21.9642314  98.5198118  77.1581410
  22.8934374  98.6709277  76.9850377  21.5433344  98.6082139  76.3030057
  20.7630646 102.5448782  74.9279948  20.6241731 102.1767567  75.8005886
  19.9745242 103.0596422  74.7563906  21.3578798 107.6457879  66.2705484
  21.5330553 107.1745922  67.0851107  20.6711586 108.2723645  66.4986745
  22.3135861 101.9230385  72.3168786  21.9785693 101.8831155  73.2126435
  21.8139806 101.2575101  71.8439196  16.2880105  97.3298015  77.8421367
  16.1499903  96.5978254  78.4432906  17.1985028  97.2406915  77.5605554
  25.2495052  99.2686419  62.5905845  24.6324223  98.5433248  62.4938898
  24.7811541 100.0295780  62.2472919  18.9162405  97.0417974  77.3305046
  19.6262024  96.4011167  77.2891665  18.8731714  97.2930869  78.2531227
  26.9049184 103.9785328  80.2511626  26.8461730 103.2944548  79.5842209
  27.3068702 104.7204318  79.7992252  17.6291339  94.0283192  79.1500686
  17.0928696  93.5773931  79.8022282  17.0408048  94.1629101  78.4071150
  17.0393598  93.4871844  61.7127149  16.1623065  93.3660644  61.3489396
  17.5151351  92.6957922  61.4606038  26.9066591 101.9424912  78.4825605
  26.0193370 101.6050833  78.6052004  27.4765142 101.2107943  78.7194371
   8.5595738  98.2749003  71.8068657   9.2466778  97.9610733  71.2189672
   8.4043867  99.1790368  71.5335908  13.3630461  93.1639200  76.2353680
  13.2788649  92.5564869  75.5004090  12.5413167  93.6548218  76.2363177
  20.4367745 106.6026364  75.4486848  20.3637916 107.4081335  75.9606153
  19.9945138 106.8018330  74.6234870  20.2257524 105.8398134  68.9589670
  19.4425046 106.3819814  69.0527894  20.9250270 106.3572114  69.3583911
  23.5354174  91.6492763  71.6023875  24.0322874  90.8962726  71.2824946
  22.7641156  91.6857080  71.0367085  31.3883932  97.3533129  73.2442167
  31.3773808  98.2357844  72.8736100  30.5201311  97.0004680  73.0496704
  22.8966428 106.5013198  77.6045007  23.6094400 107.1360663  77.5320909
  22.4056457 106.5977064  76.7885009  24.6183955 100.4064451  69.1762299
  23.6840234 100.5265913  69.0067003  24.7960624  99.5036917  68.9122309
  20.1189143  93.7910146  71.3295560  19.7486931  93.2381187  72.0176466
  20.6148236  93.1868280  70.7770560  28.0056507  96.2481770  69.7112333
  28.4716959  97.0809762  69.6372636  28.4564007  95.7826752  70.4157591
  17.9478342 104.2507641  78.4250578  18.6487801 104.8844124  78.5779972
  17.4773457 104.5922373  77.6646217  26.0732738 102.5925591  66.7098485
  26.3492582 102.4782186  67.6192359  25.2037236 102.1943076  66.6710658
  25.9773169  88.6162357  73.7503234  25.0636249  88.8466584  73.9185441
  26.4066271  88.7000801  74.6017267  25.7479628  96.8052249  76.2503128
  25.0951078  97.0528156  75.5955581  26.1260008  95.9916387  75.9165606
  22.7086802 106.8411942  70.3531299  22.8909196 106.0233598  70.8159051
  23.5319788 107.0579634  69.9156189  23.0428967 105.7680127  67.6146347
  23.5716734 105.2572582  67.0016509  23.3057187 105.4522657  68.4791880
  21.7967201  97.5472060  82.7369165  21.1207838  97.4466189  83.4071541
  22.6194835  97.3911274  83.2005163  13.5446060 103.7843997  75.3581681
  14.1299497 103.0387684  75.4909585  13.3470898 104.0947953  76.2418344
   8.1363715  96.3549597  74.0786124   8.1747814  95.8213187  74.8723242
   7.6304007  95.8284802  73.4597101  15.5154477  91.2014137  77.5748666
  15.5795803  92.0628968  77.1626064  15.4521597  90.5888139  76.8421025
  14.9906749  93.2737270  81.2221700  15.6178788  92.8914347  81.8359225
  14.1334668  93.0551472  81.5877393  25.3900858 103.6800245  82.8275436
  25.9340762 104.2930203  82.3330391  24.8087703 104.2379823  83.3442449
  11.7672292  95.0813699  67.1540055  12.0625733  94.1724377  67.1007109
  10.8660328  95.0601438  66.8321057  23.6758371 106.8020963  73.9590464
  23.5509510 106.0010703  73.4501409  24.3337462 107.2967156  73.4704433
  15.2966539  93.1569695  73.1367604  14.5753125  93.7705663  72.9975077
  16.0859795  93.6927460  73.0584250  25.7393279 104.6029983  75.5870014
  24.7923615 104.4835334  75.5148340  26.0876052 103.7152481  75.6696275
  18.0992853  90.4924122  79.4108255  18.6227255  90.7386418  80.1734565
  17.8805186  91.3244157  78.9911393  13.4960134  92.7627797  67.2779380
  13.1672840  91.8825175  67.0954486  13.8499504  92.7075465  68.1655770
  22.7439713 104.3982699  71.7874366  22.5964675 103.4699407  71.9681936
  23.5693206 104.4202790  71.3031441  16.6101957  93.0500766  67.6454858
  16.9498029  93.5786688  66.9233466  17.0574077  93.3881172  68.4213424
  26.3473834 105.2211258  72.8739239  27.2720382 105.0154119  72.7363690
  26.1789138 104.9727659  73.7828580  19.3045398  91.4337817  77.0957926
  18.9642218  90.6345630  77.4978606  18.5984404  91.7339528  76.5234759
  19.9561870  88.5187129  75.5485249  20.7787939  88.0447608  75.4264139
  20.1999933  89.2977613  76.0483935  18.5970104  91.5475388  65.8448151
  19.3178467  91.9256641  65.3411868  17.9735408  92.2664265  65.9483129
  22.7401227  92.2520537  66.7806483  22.9564841  93.1345175  66.4795311
  22.2595294  91.8606750  66.0512125  17.4800448  95.2106250  73.3577228
  17.3345029  95.5246553  74.2501509  17.0025652  95.8291150  72.8048126
  19.3396831  92.2008798  73.4058117  19.3258400  91.3049891  73.0690415
  20.0569259  92.2079462  74.0396403  21.1922962  92.6346138  75.4511245
  20.9340740  93.5563209  75.4495575  20.6608002  92.2376573  76.1411709
  26.1369151 105.7396925  68.2301330  26.3106028 105.1743348  67.4775182
  26.6298042 106.5397820  68.0480820  11.9546110  97.7511595  76.2964889
  11.4099579  98.5271402  76.4285163  12.8325460  98.0982399  76.1384010
  18.7433727  91.0823178  68.6745687  18.8649638  90.1539825  68.8736575
  18.4535770  91.0961864  67.7624003  21.6124918  88.7678089  71.8112407
  21.6346614  88.8317422  70.8564387  22.0292977  87.9282597  72.0052913
  31.9908542  98.5033348  69.8491630  32.4339688  97.7540674  69.4510753
  31.1135052  98.4943485  69.4665362  27.1244323 105.0563690  65.3298228
  27.8195228 105.6770383  65.5485543  27.4667473 104.2059041  65.6050606
  12.7412132  96.8781491  79.1895046  11.9993868  97.0264126  79.7759676
  12.4204877  97.1389756  78.3261795  29.0235746 102.5063395  66.8585559
  29.5487070 102.8450668  66.1334879  28.9358099 101.5710411  66.6748694
  20.6855795 106.4197469  78.9875436  20.9942921 106.1746616  79.8598135
  21.4831277 106.6244107  78.4994306  13.1868746 104.7646920  71.2205440
  14.0126766 104.4650691  70.8404084  12.8362798 103.9954542  71.6695229
  18.1550279 104.1173388  73.2903114  17.5330288 103.4544093  72.9905342
  18.8255146 104.1434520  72.6076762  11.3877351 102.6833246  72.1794374
  10.5509259 102.2555420  71.9978375  11.3600997 102.8765689  73.1165165
  18.2274807  92.5955176  82.8835620  18.2762962  93.4717299  82.5013390
  18.7697321  92.0532569  82.3107263  28.7129652 103.1396299  82.1636757
  27.9225196 103.1220438  81.6241256  28.4763007 103.6784593  82.9185794
  28.8327527  99.9888765  79.4769486  28.8825532  99.8238773  80.4185008
  28.7241451  99.1216024  79.0867366  17.7163786 102.6677311  66.7661574
  17.8651906 103.3512775  66.1128247  18.5230230 102.6482401  67.2811030
  26.1231290  95.9719693  80.7928792  27.0241153  95.8326158  80.5012790
  26.1979264  96.1374148  81.7326970  20.4574095  93.3486548  79.6381979
  19.5877405  93.6420114  79.3664567  20.6933576  93.9326993  80.3589242
  30.3345724 102.4085707  79.7211507  30.0430533 102.7715687  80.5574968
  29.7217856 101.6952715  79.5424839  31.5341407  99.9738587  72.2414077
  32.3688298 100.4128391  72.4051638  31.6700535  99.4977240  71.4222323
  28.5832912  97.5318322  78.1891565  29.0587034  97.7245968  77.3810416
  27.6598478  97.5877507  77.9434949  15.4716419  98.6942489  67.7722643
  15.2262461  97.7904819  67.9702854  15.6412334  98.6959639  66.8302121
  23.1613129  89.5666165  77.1547399  23.6795073  90.3027192  76.8293888
  22.8068262  89.8730158  77.9894158  14.7412067  94.4270846  65.2708805
  14.0481312  94.5015201  64.6148841  14.4963819  93.6631190  65.7930322
  23.4125723  85.9866448  72.6748296  23.6927477  85.3189637  73.3008722
  24.1976330  86.1795543  72.1622959  21.2159192 105.1625442  64.2373322
  20.6433159 105.7815629  63.7843794  21.7891985 105.7124803  64.7713244
  27.2834581  94.4084082  76.4219871  28.2352004  94.5082179  76.4432095
  27.1138032  93.6162350  76.9317955  25.3048961  91.4939665  76.6079272
  24.7098893  91.7744678  75.9125760  25.0198658  91.9833566  77.3796013
  24.4356451 105.4462592  65.3681904  25.3687125 105.3808153  65.5714780
  24.3479664 106.2818859  64.9096437  27.0644468 104.7628462  62.3285852
  26.9858100 104.4288326  63.2221610  27.8854135 105.2550230  62.3277324
  29.7622659  97.6290201  75.5362170  29.7298979  96.6906202  75.7221854
  30.3723283  97.7074238  74.8027995  21.6005990  96.4986254  61.5789374
  22.5465095  96.3692462  61.6477792  21.2220235  95.7600916  62.0558803
  29.9117148  94.4201245  75.5820454  29.3956196  93.6359701  75.3950382
  30.7957096  94.0919961  75.7466973  27.5727875  88.1642260  71.5416266
  27.3752696  87.8557348  72.4259598  28.1827580  88.8903899  71.6714196
  35.5799209  98.6906208  74.6768207  36.3102598  98.4291496  75.2375910
  34.9706155  97.9534930  74.7170275  33.6614506  96.8314071  75.2742658
  32.9347670  96.6970036  74.6659150  33.2461793  97.1390899  76.0799376
  21.4844683 100.5504000  83.0390031  22.4047692 100.7282599  83.2330078
  21.4494266  99.6060046  82.8869731  19.7848907  94.4236231  61.5144260
  18.8780363  94.1269343  61.5906973  20.0624888  94.1266049  60.6478546
  10.7026848  95.7442594  71.9643306  10.3829632  94.8907902  71.6717680
  10.1560276  95.9591172  72.7201273  14.4806755  98.4605035  75.6812813
  14.6992765  99.3922143  75.7000846  14.8932529  98.1013009  76.4667616
  21.4010973  88.9673120  67.6688501  20.5911701  88.6220205  68.0443747
  22.0895390  88.6580664  68.2576112  23.3301521  88.0451167  69.2912798
  23.8832560  88.4646621  69.9502821  23.5671608  87.1186915  69.3335754
  19.3534621  94.0338241  85.0715561  19.2531347  94.9832598  85.0027653
  19.1356163  93.7056480  84.1991632  18.5547692  91.2823166  61.6556239
  19.4166856  91.6078064  61.9152056  18.7398036  90.4954662  61.1429305
  10.5715108  99.3645506  73.9336428   9.8778579  98.9499458  73.4206382
  11.3188099  99.4066042  73.3369846  26.7080328  90.1551692  68.7991462
  26.1278997  90.8136496  68.4169514  26.4416261  89.3329037  68.3878879
  25.1583895  89.5556750  71.0012782  25.6583673  89.6673285  70.1927101
  25.8019503  89.2517803  71.6413591  19.2165891  97.4635380  83.8880623
  18.7332972  98.2635740  84.0944512  19.3026830  97.4743325  82.9348067
  12.4851850  99.2963759  71.8102442  12.4622538  99.3951447  70.8584326
  12.7952487 100.1428910  72.1319609  15.1439228 101.3539914  75.9249057
  16.0982482 101.3223857  75.8578988  14.9451752 100.8930538  76.7399283
  15.7338610  99.9241030  78.4919855  16.5531499 100.4185109  78.5154692
  16.0075418  99.0072999  78.4637422  25.4905206  92.3151783  67.8547810
  24.6031061  92.6001433  67.6368005  25.9059195  92.1545546  67.0075087
  28.8419743  92.3398304  71.5702149  29.6180133  92.8294756  71.8426766
  28.1167877  92.7656358  72.0274019  31.2792301  93.0525923  72.6276090
  31.8736792  92.8121659  71.9169398  31.3518885  92.3333053  73.2549626
  24.6348420 102.0796457  61.9495830  25.3384270 102.2846460  62.5653486
  23.9111069 102.6473219  62.2144914  25.4646230  97.8306319  68.0698100
  25.4081432  98.2874870  67.2305733  26.0174573  97.0697003  67.8920943
  29.2751036  93.6196051  68.8948220  29.0187970  93.2192686  69.7256427
  28.6503904  94.3339844  68.7698359  33.5863374  96.3592124  71.4019511
  33.0262932  96.4285313  72.1751073  32.9806877  96.1833108  70.6819007
  26.5435117 102.5178987  63.9994290  27.3780721 102.0860185  63.8171765
  26.3819460 102.3461000  64.9271185  26.1981009  99.0211100  65.3650629
  26.1429813  98.8555371  64.4239074  25.5727065  99.7287133  65.5212819
  10.9873524  94.2579164  79.1912052  11.6332388  93.7478118  79.6799277
  10.7790676  94.9947846  79.7655477  23.5126917 101.3260012  84.6904192
  24.3818076 101.5000664  84.3290827  23.0333668 102.1454429  84.5679922
  19.5077135  88.5219209  64.9435948  19.4955805  89.4661049  65.1004219
  20.4000557  88.3389354  64.6495409  19.4366699 107.1988099  73.0303704
  18.4862330 107.1989961  72.9168077  19.7399185 106.4520834  72.5139739
  23.3229254  85.1161986  69.1981885  22.5561650  84.5620472  69.3438567
  23.7339959  85.1883854  70.0596036  15.3271015  91.4046781  83.2887066
  16.1902477  91.0483586  83.4990390  14.7536426  91.0660676  83.9762470
  34.7260661 110.7600092  71.1702675  35.5123750 110.3419515  70.8193092
  34.9899365 111.6646184  71.3384323  40.1269088 110.6975325  72.0735653
  40.8594260 110.1274542  72.3073483  39.3708444 110.3096925  72.5142159
  37.6494508 104.4096899  76.5330262  37.3177833 105.2792310  76.3091477
  37.0540122 104.0933183  77.2124292  31.3850695 108.1492466  64.2660344
  31.5525097 109.0172702  64.6330815  31.1947864 108.3119748  63.3421634
  37.5423172 109.1291985  73.6123612  36.6340049 109.0607393  73.3182373
  37.4910767 109.6063930  74.4405438  31.3639916 110.6050123  65.2507011
  31.2439541 111.0507174  66.0892491  30.6692504 110.9535441  64.6920549
  31.6164037 110.5481631  81.5558509  30.8397372 111.1075551  81.5461374
  32.2554600 111.0338414  82.0773379  39.4084818 107.3308423  75.3901486
  38.7659198 107.6240957  74.7441281  38.9039747 107.2161344  76.1954683
  37.0624982 111.0771597  66.0787345  37.9742838 111.3098983  65.9035043
  36.5534629 111.6608641  65.5162424  31.6996819 110.4368831  77.0882195
  32.5458015 110.8608245  77.2316844  31.6395457 109.7802456  77.7820758
  34.8496265 108.0973200  78.7463368  34.6057197 108.8515260  78.2097644
  35.1256195 108.4758547  79.5810615  34.4060956 107.2529633  74.3277206
  33.5445436 107.5510886  74.6193944  34.4323391 107.4700032  73.3958239
  46.0086549 113.8622516  71.9447963  45.2550257 113.2929914  71.7891967
  46.1434090 113.8285180  72.8918597  27.8852516 104.8127498  84.2817037
  27.4919462 104.2593697  84.9564682  28.7018657 105.1238076  84.6723555
  30.8020477 106.2285377  81.8737294  31.5430191 106.8292530  81.7941756
  31.0338400 105.4863015  81.3155337  34.7477640 102.2566480  76.1501576
  34.4041910 103.1468122  76.0740686  35.1156603 102.0668138  75.2871161
  34.7127923 112.2475091  64.6574011  34.1974546 113.0179696  64.8962398
  34.4405231 111.5740227  65.2807072  32.2975034 107.0924792  69.7159249
  31.4416630 106.7031642  69.5364888  32.7101986 107.1716753  68.8559035
  33.8274181 104.6271135  74.1150809  33.3238976 104.5901270  73.3018614
  34.1204787 105.5363878  74.1747466  30.0717066 104.7109865  73.1216991
  30.9370063 104.5152674  72.7622880  30.1394575 104.4820217  74.0486347
  39.6862197 115.0007446  66.5927184  38.9091640 114.6618605  66.1482346
  40.3653678 115.0060069  65.9182149  34.5014226 110.1202183  66.4833792
  34.1964362 110.4348332  67.3343935  35.4544668 110.1983603  66.5261125
  27.6779386 106.9412073  70.4933357  28.2523137 106.7187254  69.7606550
  28.2650368 107.0100767  71.2461959  36.7358963 112.8285800  71.2997734
  37.2490844 113.4615792  71.8019444  37.3860187 112.2286995  70.9341094
  28.0048973 108.9716534  64.5129243  27.1686285 109.3091220  64.8338517
  27.8653742 108.8365514  63.5756380  29.9802053 103.8153322  69.2208427
  29.3266466 103.5002339  68.5965042  29.9382527 103.1929062  69.9468250
  33.2139794 110.3035255  73.5456074  32.2962355 110.5250202  73.3877763
  33.6299937 110.3781566  72.6867782  33.9974841 111.7026671  68.6758755
  34.7446660 112.2148068  68.3665877  34.2666431 111.3810724  69.5363148
  36.4453678 108.7383787  70.6577544  35.7076435 108.2261173  70.9887787
  36.6980452 108.2984169  69.8460821  36.5465306 101.5160039  71.2519313
  36.8524183 100.6557403  70.9645228  37.2717911 102.1077659  71.0518307
  28.7578745 110.4290892  69.5185883  27.9446611 110.7285063  69.9251075
  29.2537740 110.0346581  70.2360365  34.3552957 110.8932717  78.3500777
  34.7102345 111.1204190  79.2095243  35.0025088 111.2251093  77.7278032
  40.0850694 114.0151152  69.0550106  39.9468593 114.2052748  68.1271295
  39.7286913 114.7770535  69.5118157  28.2492820 108.0009248  75.1347118
  28.8892200 107.8598007  74.4370082  27.4170351 107.7143761  74.7585720
  25.2521437 107.9709573  69.9120105  25.5128254 108.8854906  69.8029265
  26.0738609 107.5034015  70.0616718  26.7246362 109.3847330  77.0818930
  27.3969415 109.1764692  76.4331578  25.8976149 109.1869416  76.6424162
  32.6271934 106.0109271  79.0984590  31.9799849 106.7099220  79.0049067
  33.3972949 106.4445415  79.4660839  28.4685094 109.3575110  79.1500686
  27.9322451 108.9065848  79.8022282  27.8801802 109.4921019  78.4071150
  27.8787353 108.8163761  61.7127149  27.0016819 108.6952562  61.3489396
  28.3545106 108.0249840  61.4606038  24.2024215 108.4931118  76.2353680
  24.1182404 107.8856787  75.5004090  23.3806922 108.9840136  76.2363177
  34.3747929 106.9784681  71.6023875  34.8716629 106.2254643  71.2824946
  33.6034910 107.0148998  71.0367085  42.2277686 112.6825047  73.2442167
  42.2167563 113.5649762  72.8736100  41.3595066 112.3296598  73.0496704
  30.9582898 109.1202064  71.3295560  30.5880685 108.5673105  72.0176466
  31.4541990 108.5160198  70.7770560  38.8450261 111.5773688  69.7112333
  39.3110713 112.4101679  69.6372636  39.2957762 111.1118669  70.4157591
  36.8166924 103.9454275  73.7503234  35.9030004 104.1758501  73.9185441
  37.2460025 104.0292719  74.6017267  36.5873382 112.1344167  76.2503128
  35.9344833 112.3820074  75.5955581  36.9653762 111.3208305  75.9165606
  26.3548231 106.5306055  77.5748666  26.4189558 107.3920886  77.1626064
  26.2915352 105.9180057  76.8421025  25.8300504 108.6029187  81.2221700
  26.4572543 108.2206265  81.8359225  24.9728423 108.3843389  81.5877393
  26.1360294 108.4861613  73.1367604  25.4146879 109.0997581  72.9975077
  26.9253549 109.0219378  73.0584250  28.9386607 105.8216040  79.4108255
  29.4621009 106.0678336  80.1734565  28.7198940 106.6536074  78.9911393
  24.3353888 108.0919714  67.2779380  24.0066594 107.2117093  67.0954486
  24.6893259 108.0367383  68.1655770  27.4495711 108.3792684  67.6454858
  27.7891784 108.9078605  66.9233466  27.8967832 108.7173090  68.4213424
  30.1439152 106.7629735  77.0957926  29.8035973 105.9637548  77.4978606
  29.4378159 107.0631446  76.5234759  30.7955624 103.8479047  75.5485249
  31.6181693 103.3739525  75.4264139  31.0393688 104.6269531  76.0483935
  29.4363859 106.8767306  65.8448151  30.1572221 107.2548558  65.3411868
  28.8129163 107.5956182  65.9483129  33.5794981 107.5812455  66.7806483
  33.7958596 108.4637092  66.4795311  33.0989049 107.1898668  66.0512125
  30.1790586 107.5300716  73.4058117  30.1652154 106.6341809  73.0690415
  30.8963014 107.5371380  74.0396403  32.0316716 107.9638056  75.4511245
  31.7734494 108.8855127  75.4495575  31.5001757 107.5668491  76.1411709
  29.5827482 106.4115096  68.6745687  29.7043393 105.4831742  68.8736575
  29.2929524 106.4253782  67.7624003  32.4518672 104.0970007  71.8112407
  32.4740369 104.1609340  70.8564387  32.8686731 103.2574515  72.0052913
  42.8302296 113.8325266  69.8491630  43.2733442 113.0832591  69.4510753
  41.9528807 113.8235402  69.4665362  29.0668561 107.9247093  82.8835620
  29.1156717 108.8009216  82.5013390  29.6091075 107.3824486  82.3107263
  36.9625044 111.3011611  80.7928792  37.8634907 111.1618076  80.5012790
  37.0373019 111.4666066  81.7326970  31.2967850 108.6778466  79.6381979
  30.4271159 108.9712032  79.3664567  31.5327330 109.2618911  80.3589242
  42.3735161 115.3030504  72.2414077  43.2082052 115.7420308  72.4051638
  42.5094290 114.8269158  71.4222323  39.4226667 112.8610239  78.1891565
  39.8980789 113.0537886  77.3810416  38.4992232 112.9169425  77.9434949
  34.0006883 104.8958083  77.1547399  34.5188827 105.6319110  76.8293888
  33.6462016 105.2022076  77.9894158  25.5805821 109.7562764  65.2708805
  24.8875066 109.8307119  64.6148841  25.3357573 108.9923108  65.7930322
  34.2519478 101.3158365  72.6748296  34.5321231 100.6481554  73.3008722
  35.0370085 101.5087461  72.1622959  38.1228336 109.7375999  76.4219871
  39.0745759 109.8374097  76.4432095  37.9531786 108.9454268  76.9317955
  36.1442715 106.8231583  76.6079272  35.5492648 107.1036595  75.9125760
  35.8592412 107.3125483  77.3796013  40.6016414 112.9582119  75.5362170
  40.5692734 112.0198120  75.7221854  41.2117037 113.0366156  74.8027995
  32.4399745 111.8278172  61.5789374  33.3858849 111.6984380  61.6477792
  32.0613990 111.0892834  62.0558803  40.7510902 109.7493162  75.5820454
  40.2349951 108.9651619  75.3950382  41.6350851 109.4211879  75.7466973
  38.4121629 103.4934178  71.5416266  38.2146450 103.1849266  72.4259598
  39.0221335 104.2195817  71.6714196  46.4192964 114.0198126  74.6768207
  47.1496352 113.7583414  75.2375910  45.8099909 113.2826848  74.7170275
  44.5008261 112.1605988  75.2742658  43.7741424 112.0261953  74.6659150
  44.0855548 112.4682817  76.0799376  30.6242662 109.7528148  61.5144260
  29.7174117 109.4561261  61.5906973  30.9018643 109.4557966  60.6478546
  32.2404728 104.2965038  67.6688501  31.4305456 103.9512123  68.0443747
  32.9289144 103.9872582  68.2576112  34.1695276 103.3743085  69.2912798
  34.7226314 103.7938538  69.9502821  34.4065362 102.4478833  69.3335754
  30.1928375 109.3630159  85.0715561  30.0925102 110.3124515  85.0027653
  29.9749917 109.0348397  84.1991632  29.3941446 106.6115084  61.6556239
  30.2560610 106.9369982  61.9152056  29.5791791 105.8246579  61.1429305
  37.5474083 105.4843610  68.7991462  36.9672752 106.1428414  68.4169514
  37.2810016 104.6620955  68.3878879  35.9977649 104.8848668  71.0012782
  36.4977428 104.9965202  70.1927101  36.6413257 104.5809721  71.6413591
  36.3298961 107.6443700  67.8547810  35.4424816 107.9293351  67.6368005
  36.7452950 107.4837464  67.0075087  39.6813497 107.6690221  71.5702149
  40.4573887 108.1586674  71.8426766  38.9561631 108.0948276  72.0274019
  42.1186056 108.3817841  72.6276090  42.7130546 108.1413577  71.9169398
  42.1912639 107.6624971  73.2549626  36.3039985 113.1598236  68.0698100
  36.2475186 113.6166788  67.2305733  36.8568327 112.3988921  67.8920943
  40.1144791 108.9487968  68.8948220  39.8581725 108.5484604  69.7256427
  39.4897659 109.6631762  68.7698359  44.4257128 111.6884041  71.4019511
  43.8656686 111.7577231  72.1751073  43.8200632 111.5125026  70.6819007
  30.3470889 103.8511127  64.9435948  30.3349559 104.7952967  65.1004219
  31.2394311 103.6681272  64.6495409  34.1623009 100.4453903  69.1981885
  33.3955405  99.8912390  69.3438567  34.5733714 100.5175772  70.0596036
  26.1664770 106.7338699  83.2887066  27.0296231 106.3775504  83.4990390
  25.5930181 106.3952594  83.9762470  47.3859060 116.8451957  71.2519313
  47.6917937 115.9849320  70.9645228  48.1111665 117.4369577  71.0518307
  45.0913232 116.6450283  72.6748296  45.3714986 115.9773472  73.3008722
  45.8763839 116.8379379  72.1622959  45.0016763 115.7745821  69.1981885
  44.2349159 115.2204308  69.3438567  45.4127468 115.8467690  70.0596036
   2.6511532  29.5516968  58.6693269   1.8975240  28.9824366  58.5137274
   2.7859073  29.5179632  59.6163904   3.0617947  29.7092578  61.4013514
   3.7921335  29.4477866  61.9621217   2.4524892  28.9721300  61.4415582
   1.1433244  27.8500440  61.9987965   0.4166408  27.7156405  61.3904457
   0.7280531  28.1577269  62.8044683   1.0682112  27.3778493  58.1264818
   0.5081670  27.4471683  58.8996380   0.4625615  27.2019478  57.4064314
   2.6538130  44.0535007  60.8194773   3.2916540  43.9341755  60.1158114
   2.5358973  45.0015851  60.8782726   2.2079399  41.7786461  57.8947982
   2.9942488  41.3605884  57.5438399   2.4718103  42.6832553  58.0629630
   2.3789476  47.2159311  52.5936638   1.7435309  47.2893938  53.3057543
   2.0486882  47.8052910  51.9155718   7.6087826  41.7161694  58.7980960
   8.3412998  41.1460911  59.0318790   6.8527181  41.3283295  59.2387466
   5.1313246  35.4283268  63.2575569   4.7996571  36.2978679  63.0336784
   4.5358860  35.1119552  63.9369599   1.6244766  47.6295814  62.6571481
   1.3245489  48.5320853  62.5487289   1.2795825  47.3627998  63.5092634
   5.0241909  40.1478355  60.3368919   4.1158787  40.0793763  60.0427680
   4.9729505  40.6250300  61.1650744   6.8903556  38.3494793  62.1146793
   6.2477936  38.6427326  61.4686587   6.3858484  38.2347713  62.9199989
   4.5443720  42.0957966  52.8032652   5.4561576  42.3285353  52.6280349
   4.0353367  42.6795010  52.2407730   2.8284487  46.5182594  66.4393944
   3.2367843  46.0765005  65.6948577   2.1061749  45.9435222  66.6928137
   3.1513302  47.0783785  60.1946233   2.5222164  47.2429499  59.4922301
   2.7638964  47.4925394  60.9657197   7.0302534  48.0138223  57.5490597
   6.3453572  48.3937124  56.9987630   7.1146383  48.6233549  58.2822545
   2.3315003  39.1159569  65.4708675   2.0875934  39.8701630  64.9342951
   2.6074933  39.4944917  66.3055922   4.2853465  45.6598182  64.1485941
   4.4970361  46.3029941  63.4720322   4.2383214  44.8260498  63.6807871
   1.8879694  38.2716002  61.0522513   1.0264173  38.5697256  61.3439250
   1.9142129  38.4886401  60.1203545   5.3999293  48.5370137  62.3208298
   6.2216737  48.1350324  62.0390980   5.3961696  48.4338371  63.2724414
  13.4905286  44.8808885  58.6693269  12.7368995  44.3116284  58.5137274
  13.6252828  44.8471550  59.6163904   2.6053629  50.6548654  66.5029732
   2.5872104  51.4757535  66.0110001   3.5273549  50.5302729  66.7279873
   2.2296378  33.2752850  62.8746882   1.8860647  34.1654491  62.7985993
   2.5975341  33.0854507  62.0116467   2.1946661  43.2661461  51.3819317
   1.6793284  44.0366065  51.6207705   1.9223969  42.5926597  52.0052379
   1.3092918  35.6457505  60.8396115   0.8057714  35.6087640  60.0263921
   1.6023525  36.5550247  60.8992772   7.1680935  46.0193815  53.3172491
   6.3910378  45.6804975  52.8727653   7.8472416  46.0246439  52.6427456
   1.9832964  41.1388553  53.2079099   1.6783099  41.4534702  54.0589242
   2.9363406  41.2169973  53.2506432   5.4072242  45.4927797  59.9739099
   4.7495916  46.1827058  60.0619227   6.2112641  45.8824229  60.3173085
   4.2177701  43.8472169  58.0243041   4.7309582  44.4802161  58.5264750
   4.8678924  43.2473365  57.6586401   1.4800075  53.8256494  50.7803712
   0.8061774  54.1288190  51.3888670   1.8665897  54.6285574  50.4309169
   1.4793579  42.7213041  55.4004061   2.2265398  43.2334438  55.0911183
   1.7485169  42.3997093  56.2608455   4.9839497  48.8278171  56.1522183
   4.5301824  47.9869081  56.2087374   4.3533463  49.4639569  56.4896963
   3.9272416  39.7570157  57.3822851   3.1895173  39.2447543  57.7133093
   4.1799190  39.3170538  56.5706128   3.4272436  50.6654667  57.0872001
   3.7195410  51.2259725  56.3684367   3.9371057  50.9583228  57.8425160
   4.0284044  32.5346409  57.9764620   4.3342920  31.6743772  57.6890535
   4.7536648  33.1264029  57.7763614   1.8371695  41.9119086  65.0746084
   2.1921083  42.1390559  65.9340550   2.4843826  42.2437463  64.4523339
   7.5669432  45.0337522  55.7795413   7.4287330  45.2239118  54.8516602
   7.2105651  45.7956905  56.2363464   7.5938811  47.1014049  60.7906684
   8.0275318  47.0089338  61.6389738   8.3070392  47.0771549  60.1526700
   1.3266706  50.7016143  62.3239785   1.3803729  51.2707079  63.0917501
   0.4581488  50.8718028  61.9593822   8.4554361  47.1437750  63.3239570
   8.6490251  48.0483560  63.5698845   8.3554979  46.6845169  64.1578155
   3.5169470  47.2944492  68.8980450   3.3654976  47.0655044  67.9810534
   3.5074149  48.2515094  68.9111795   3.5707545  45.6164707  49.3151152
   2.9536715  44.8911535  49.2184204   3.1024033  46.3774067  48.9718226
   5.2261676  50.3263615  66.9756932   5.1674223  49.6422835  66.3087515
   5.6281195  51.0682605  66.5237558   5.2279084  48.2903199  65.2070912
   4.3405862  47.9529121  65.3297311   5.7977635  47.5586230  65.4439677
   1.8566667  37.9971051  58.3269182   2.3535366  37.2441013  58.0070252
   1.0853648  38.0335367  57.7612391   9.7096424  43.7011416  59.9687473
   9.6986300  44.5836132  59.5981407   8.8413804  43.3482967  59.7742011
   1.2178921  52.8491485  64.3290314   1.9306893  53.4838950  64.2566215
   0.7268949  52.9455351  63.5130316   2.9396447  46.7542738  55.9007605
   2.0052726  46.8744200  55.7312310   3.1173116  45.8515205  55.6367615
   6.3268999  42.5960057  56.4357640   6.7929451  43.4288049  56.3617942
   6.7776499  42.1305039  57.1402898   4.3945230  48.9403878  53.4343792
   4.6705074  48.8260473  54.3437666   3.5249729  48.5421363  53.3955965
   4.2985662  34.9640644  60.4748541   3.3848741  35.1944871  60.6430748
   4.7278763  35.0479088  61.3262573   4.0692120  43.1530536  62.9748435
   3.4163570  43.4006444  62.3200888   4.4472500  42.3394674  62.6410912
   1.0299294  53.1890229  57.0776605   1.2121688  52.3711885  57.5404358
   1.8532280  53.4057922  56.6401495   1.3641459  52.1158414  54.3391654
   1.8929226  51.6050869  53.7261816   1.6269679  51.8000945  55.2037187
   3.7113350  50.0278532  69.5520742   4.2553254  50.6408490  69.0575697
   3.1300195  50.5858111  70.0687755   1.9970863  53.1499250  60.6835770
   1.8722003  52.3488990  60.1746716   2.6549954  53.6445444  60.1949740
   4.0605772  50.9508270  62.3115320   3.1136107  50.8313621  62.2393647
   4.4088545  50.0630768  62.3941582   1.0652205  50.7460987  58.5119672
   0.9177167  49.8177694  58.6927242   1.8905698  50.7681077  58.0276748
   4.6686327  51.5689545  59.5984545   5.5932874  51.3632407  59.4608996
   4.5001630  51.3205946  60.5073887   1.0613719  38.5998824  53.5051790
   1.2777334  39.4823462  53.2040618   0.5807786  38.2085038  52.7757432
   4.4581643  52.0875213  54.9546637   4.6318521  51.5221635  54.2020489
   4.9510534  52.8876108  54.7726127  10.3121034  44.8511636  56.5736936
  10.7552180  44.1018961  56.1756060   9.4347544  44.8421772  56.1910668
   5.4456815  51.4041977  52.0543535   6.1407720  52.0248670  52.2730850
   5.7879966  50.5537328  52.3295913   7.3448239  48.8541683  53.5830866
   7.8699563  49.1928955  52.8580186   7.2570591  47.9188698  53.3994000
   7.0342145  49.4874586  68.8882064   6.2437688  49.4698725  68.3486563
   6.7975499  50.0262880  69.6431100   7.1540020  46.3367053  66.2014792
   7.2038025  46.1717060  67.1430315   7.0453943  45.4694312  65.8112673
   4.4443782  42.3197981  67.5174099   5.3453645  42.1804446  67.2258097
   4.5191757  42.4852435  68.4572276   8.6558217  48.7563994  66.4456814
   8.3643025  49.1193975  67.2820275   8.0430348  48.0431002  66.2670146
   9.8553899  46.3216874  58.9659384  10.6900790  46.7606678  59.1296944
   9.9913028  45.8455527  58.1467630   6.9045405  43.8796609  64.9136872
   7.3799526  44.0724255  64.1055723   5.9810970  43.9355795  64.6680255
   1.4825621  35.9144452  63.8792706   2.0007565  36.6505479  63.5539194
   1.1280754  36.2208446  64.7139465   1.7338215  32.3344735  59.3993602
   2.0139969  31.6667924  60.0254029   2.5188822  32.5273830  58.8868266
   5.6047074  40.7562369  63.1465177   6.5564497  40.8560467  63.1677401
   5.4350524  39.9640637  63.6563262   3.6261453  37.8417952  63.3324578
   3.0311385  38.1222965  62.6371067   3.3411150  38.3311853  64.1041319
   2.7568944  51.7940879  52.0927211   3.6899617  51.7286441  52.2960086
   2.6692157  52.6297146  51.6341743   5.3856960  51.1106749  49.0531158
   5.3070592  50.7766613  49.9466916   6.2066627  51.6028517  49.0522631
   8.0835152  43.9768489  62.2607477   8.0511472  43.0384489  62.4467161
   8.6935775  44.0552525  61.5273302   8.2329640  40.7679532  62.3065760
   7.7168689  39.9837989  62.1195689   9.1169589  40.4398249  62.4712280
   5.8940367  34.5120548  58.2661573   5.6965188  34.2035636  59.1504905
   6.5040073  35.2382186  58.3959503  13.9011701  45.0384495  61.4013514
  14.6315090  44.7769784  61.9621217  13.2918647  44.3013217  61.4415582
  11.9826999  43.1792358  61.9987965  11.2560162  43.0448323  61.3904457
  11.5674285  43.4869187  62.8044683   1.6514014  34.3929454  56.0158104
   2.2045052  34.8124908  56.6748127   1.8884100  33.4665203  56.0581060
   5.0292821  36.5029980  55.5236768   4.4491490  37.1614784  55.1414821
   4.7628753  35.6807324  55.1124186   3.4796387  35.9035037  57.7258089
   3.9796165  36.0151572  56.9172408   4.1231995  35.5996090  58.3658897
   3.8117699  38.6630070  54.5793117   2.9243554  38.9479721  54.3613311
   4.2271688  38.5023833  53.7320394   7.1632235  38.6876591  58.2947456
   7.9392625  39.1773043  58.5672073   6.4380369  39.1134645  58.7519325
   9.6004793  39.4004210  59.3521397  10.1949284  39.1599946  58.6414705
   9.6731377  38.6811341  59.9794933   2.9560912  48.4274745  48.6741137
   3.6596762  48.6324747  49.2898792   2.2323561  48.9951507  48.9390220
   3.7858722  44.1784606  54.7943407   3.7293924  44.6353157  53.9551039
   4.3387065  43.4175291  54.6166250   7.5963528  39.9674338  55.6193526
   7.3400463  39.5670973  56.4501734   6.9716396  40.6818132  55.4943666
  11.9075866  42.7070411  58.1264818  11.3475424  42.7763600  58.8996380
  11.3019370  42.5311396  57.4064314   4.8647610  48.8657274  50.7239597
   5.6993213  48.4338472  50.5417072   4.7031952  48.6939288  51.6516491
   4.5193502  45.3689387  52.0895936   4.4642306  45.2033659  51.1484380
   3.8939557  46.0765420  52.2458126   1.8339409  47.6738299  71.4149499
   2.7030569  47.8478951  71.0536134   1.3546160  48.4932716  71.2925228
   1.6441747  31.4640273  55.9227191   0.8774142  30.9098759  56.0683874
   2.0552452  31.5362142  56.7841343  13.4931885  59.3826925  60.8194773
  14.1310295  59.2633672  60.1158114  13.3752728  60.3307769  60.8782726
  10.3021591  59.3354353  60.7556298   9.9640102  59.2195418  59.8676833
  11.1711359  58.9345518  60.7357304   6.1608407  61.1889829  56.7453189
   5.5973272  61.0979766  55.9769477   6.0460802  60.3689734  57.2255682
  10.7841374  60.4889205  66.7142504  10.7730015  60.0942003  65.8423007
  10.9462013  59.7555277  67.3076275   3.7072839  62.6841021  59.5837410
   4.4994130  62.3431846  59.1683709   3.9469489  62.7935996  60.5039563
  11.7407965  64.8560797  52.0567654  11.0895945  65.4414878  51.6701668
  12.5352328  65.3866992  52.1162691   5.6663592  61.9449934  52.4554788
   6.4394468  61.3978921  52.3167664   6.0188991  62.8094184  52.6669250
   7.5048635  63.2726317  65.6621688   7.2138501  64.1771947  65.5468354
   8.1405619  63.3142844  66.3765757   8.4304842  60.6503165  62.2523047
   9.0268414  60.4259188  61.5380010   8.4879813  59.9087911  62.8548495
   8.0029870  58.1042600  50.0873238   8.2555391  57.5824122  49.3256701
   7.0654429  57.9408746  50.1899922  13.0473153  57.1078379  57.8947982
  13.8336242  56.6897802  57.5438399  13.3111857  58.0124471  58.0629630
  13.2183230  62.5451229  52.5936638  12.5829063  62.6185856  53.3057543
  12.8880637  63.1344828  51.9155718  18.4481580  57.0453612  58.7980960
  19.1806752  56.4752829  59.0318790  17.6920936  56.6575212  59.2387466
   7.7226159  60.0070706  52.2897613   7.6062417  59.3315610  52.9578698
   7.8328419  59.5203080  51.4729766  10.0657700  59.4680854  55.9944302
   9.7015907  58.9411474  56.7057224  10.9224816  59.0779323  55.8210788
  15.9707001  50.7575186  63.2575569  15.6390325  51.6270597  63.0336784
  15.3752614  50.4411470  63.9369599   9.7063187  54.4970753  50.9905651
   9.8737589  55.3650990  51.3576122   9.5160356  54.6598035  50.0666940
  12.4638520  62.9587732  62.6571481  12.1639243  63.8612771  62.5487289
  12.1189580  62.6919915  63.5092634   5.9151002  59.4101529  58.6908186
   4.9901498  59.2777743  58.8985878   6.1635415  60.1895748  59.1878128
  15.8635664  55.4770272  60.3368919  14.9552541  55.4085681  60.0427680
  15.8123260  55.9542217  61.1650744   9.6852408  56.9528411  51.9752318
   9.5652033  57.3985461  52.8137798   8.9904996  57.3013728  51.4165856
   3.2759813  59.0534802  59.5251975   3.4052194  59.3069281  60.4391387
   2.5957264  59.6462510  59.2056630   7.4459300  69.7232052  55.6242449
   7.3683330  70.6739878  55.7030930   6.8420944  69.3777925  56.2817375
   9.9376530  56.8959918  68.2803816   9.1609864  57.4553838  68.2706681
  10.5767093  57.3816701  68.8018686  17.7297310  53.6786711  62.1146793
  17.0871691  53.9719244  61.4686587  17.2252239  53.5639631  62.9199989
  15.3837474  57.4249884  52.8032652  16.2955330  57.6577271  52.6280349
  14.8747121  58.0086928  52.2407730   8.1922902  59.7045371  67.8421783
   8.9337586  60.2430415  67.5656607   7.4859887  60.3311660  67.9993335
  13.6678242  61.8474512  66.4393944  14.0761598  61.4056922  65.6948577
  12.9455503  61.2727139  66.6928137  10.0209312  56.7847118  63.8127501
  10.8670507  57.2086532  63.9562150   9.9607949  56.1280743  64.5066065
  13.9907056  62.4075702  60.1946233  13.3615919  62.5721416  59.4922301
  13.6032718  62.8217312  60.9657197  17.8696288  63.3430140  57.5490597
  17.1847326  63.7229042  56.9987630  17.9540138  63.9525467  58.2822545
  13.1708757  54.4451487  65.4708675  12.9269689  55.1993547  64.9342951
  13.4468688  54.8236834  66.3055922  15.1247220  60.9890099  64.1485941
  15.3364115  61.6321859  63.4720322  15.0776968  60.1552416  63.6807871
  12.7273449  53.6007920  61.0522513  11.8657928  53.8989173  61.3439250
  12.7535883  53.8178319  60.1203545   9.5435018  62.1450110  57.4596318
  10.0073364  62.4237813  56.6700941   9.2791816  61.2433555  57.2769409
   6.4359099  61.6921592  60.3976082   7.0060456  62.1208860  59.7593566
   7.0267211  61.4104177  61.0960267   8.4803904  58.2673263  54.2685884
   9.1827948  58.7194306  54.7359810   8.1484533  57.6257082  54.8965777
   6.9284266  56.8585019  68.6437093   6.2982926  57.5401300  68.8772490
   6.8220354  56.7468101  67.6990231   2.2229238  56.5256815  59.5703017
   1.4328292  56.7814344  59.0943128   2.7140486  57.3405153  59.6755058
  16.2393048  63.8662055  62.3208298  17.0610491  63.4642242  62.0390980
  16.2355451  63.7630289  63.2724414   4.1743984  56.8901395  56.5286494
   3.3775147  57.0020089  57.0469990   3.9469576  57.2288047  55.6627384
  10.0049651  63.4146098  64.4769008  10.0694084  63.8766505  65.3127180
   9.2960575  62.7843463  64.6051318   0.5066941  56.7787306  62.0018008
   0.7574980  57.6634316  62.2675584   1.0426490  56.5991907  61.2293100
  24.3299041  60.2100803  58.6693269  23.5762749  59.6408201  58.5137274
  24.4646582  60.1763468  59.6163904   9.7197669  65.0814205  54.3447989
   9.5843344  65.9265741  54.7732837  10.2607481  65.2833483  53.5813923
   6.2065009  51.1605785  71.0062344   5.8131954  50.6071984  71.6809988
   7.0231149  51.4716364  71.3968862   3.1727066  62.5989643  54.9175914
   3.6851587  63.3932894  55.0681479   3.8249779  61.9015934  54.8509515
   4.9821951  65.7155400  56.9998667   5.1588579  66.6373364  56.8119651
   5.7778784  65.4013819  57.4293047   9.1232969  52.5763664  68.5982601
   9.8642683  53.1770817  68.5187063   9.3550892  51.8341302  68.0400643
   4.2674308  57.7620032  66.8760830   4.1527823  56.8605289  67.1767929
   3.4118825  58.0083728  66.5245647  11.3466145  65.7037772  68.4748331
  10.9029999  64.9174150  68.1569235  12.0083359  65.8916922  67.8092222
   6.1053266  67.2333574  63.0009009   6.6560692  67.1050637  62.2286003
   5.2664742  67.5328463  62.6503902  13.4447383  65.9840572  66.5029732
  13.4265859  66.8049453  66.0110001  14.3667303  65.8594647  66.7279873
   9.9020437  63.4984701  67.3453241  10.4348774  62.7372990  67.1152548
   9.3734519  63.2058353  68.0877395  13.0690132  48.6044767  62.8746882
  12.7254402  49.4946409  62.7985993  13.4369095  48.4146425  62.0116467
   1.1375983  60.9278298  55.6935484   1.9751205  61.3375306  55.4769192
   1.3154251  59.9877740  55.6635678  13.0340415  58.5953378  51.3819317
  12.5187039  59.3657983  51.6207705  12.7617724  57.9218515  52.0052379
  10.6187526  53.4403079  56.4404556   9.7629123  53.0509930  56.2610194
  11.0314478  53.5195040  55.5804341  12.1486673  50.9749422  60.8396115
  11.6451468  50.9379558  60.0263921  12.4417280  51.8842165  60.8992772
   8.3929559  51.0588152  59.8462297   9.2582555  50.8630961  59.4868187
   8.4607068  50.8298504  60.7731654  18.0074689  61.3485733  53.3172491
  17.2304132  61.0096893  52.8727653  18.6866170  61.3538356  52.6427456
  12.8226718  56.4680470  53.2079099  12.5176854  56.7826620  54.0589242
  13.7757160  56.5461890  53.2506432  11.2673150  62.6270694  54.8572053
  10.7394512  61.8923453  54.5445290  10.7660653  63.4045370  54.6112021
  16.2465996  60.8219714  59.9739099  15.5889671  61.5118976  60.0619227
  17.0506395  61.2116146  60.3173085   5.9991878  53.2890360  57.2178664
   6.5735630  53.0665542  56.4851857   6.5862860  53.3579055  57.9707265
  15.0571455  59.1764087  58.0243041  15.5703337  59.8094079  58.5264750
  15.7072679  58.5765282  57.6586401   6.3261465  55.3194821  51.2374549
   5.4898777  55.6569508  51.5583824   6.1866235  55.1843801  50.3001686
   8.3014545  50.1631609  55.9453733   7.6478958  49.8480626  55.3210348
   8.2595020  49.5407349  56.6713556   9.4125750  60.4450904  47.8607026
   8.5052812  60.2140158  48.0598175   9.9096782  59.6488523  48.0481007
  12.3193829  69.1548411  50.7803712  11.6455528  69.4580108  51.3888670
  12.7059651  69.9577492  50.4309169  11.5352286  56.6513543  60.2701381
  10.6174847  56.8728490  60.1123069  11.9512429  56.7259853  59.4113088
  12.3187334  58.0504958  55.4004061  13.0659153  58.5626355  55.0911183
  12.5878923  57.7289011  56.2608455  10.5913984  60.5463499  52.3831016
   9.6825203  60.2622532  52.4803485  10.6209068  60.9662578  51.5234323
  15.8233251  64.1570088  56.1522183  15.3695578  63.3160998  56.2087374
  15.1927218  64.7931487  56.4896963  14.7666171  55.0862074  57.3822851
  14.0288928  54.5739461  57.7133093  15.0192944  54.6462456  56.5706128
  14.2666190  65.9946585  57.0872001  14.5589165  66.5551642  56.3684367
  14.7764811  66.2875146  57.8425160  14.8677798  47.8638326  57.9764620
  15.1736675  47.0035690  57.6890535  15.5930403  48.4555947  57.7763614
   1.1602154  58.2669013  56.3646218   0.9626554  57.6738374  55.6397284
   0.6048818  57.9621223  57.0822157   9.1398878  58.1592120  58.4840811
   9.1947488  57.2065956  58.4083288   8.3290080  58.3151559  58.9682109
  10.2890072  62.0872243  49.7219094   9.8509502  61.3708102  49.2624732
  11.0300512  62.3148357  49.1604186   7.0791238  56.7769179  56.2431190
   6.2659103  57.0763350  56.6496382   7.5750232  56.3824868  56.9605672
   9.2299816  66.7726936  58.1765455   9.1875994  66.9987783  57.2473987
  10.1462514  66.5390311  58.3251256  12.6765449  57.2411004  65.0746084
  13.0314837  57.4682477  65.9340550  13.3237581  57.5729381  64.4523339
  18.4063186  60.3629440  55.7795413  18.2681085  60.5531036  54.8516602
  18.0499405  61.1248822  56.2363464   6.5705313  54.3487535  61.8592425
   7.2104692  54.2076294  61.1615388   5.7382843  54.0622048  61.4831027
  18.4332566  62.4305967  60.7906684  18.8669073  62.3381256  61.6389738
  19.1464147  62.4063467  60.1526700   7.3465616  63.6489965  57.9727417
   8.1406215  63.1540285  57.7709992   6.6357309  63.1207828  57.6095123
  12.1660461  66.0308061  62.3239785  12.2197483  66.5998997  63.0917501
  11.2975242  66.2009946  61.9593822   3.6548380  57.7933047  54.0487170
   2.7245968  57.7317502  54.2657132   3.7505852  57.2709000  53.2523811
   3.5733929  54.3187860  56.6365412   3.8340746  55.2333193  56.5274572
   4.3951101  53.8512302  56.7862024   5.0458854  55.7325617  63.8064236
   5.7181908  55.5242979  63.1576885   4.2188641  55.5347703  63.3669468
  19.2948116  62.4729667  63.3239570  19.4884006  63.3775478  63.5698845
  19.1948734  62.0137086  64.1578155  10.9484426  52.3587558  65.8229897
  10.3012341  53.0577508  65.7294373  11.7185442  52.7923702  66.1906145
  14.3563224  62.6236410  68.8980450  14.2048731  62.3946962  67.9810534
  14.3467904  63.5807011  68.9111795  11.1248561  60.1968323  63.8826717
  12.0540621  60.3479482  63.7095684  10.7039591  60.2852344  63.0275363
   9.9236892  64.2218987  61.6525254   9.7847978  63.8537772  62.5251192
   9.1351489  64.7366627  61.4809212  10.5185044  69.3228084  52.9950791
  10.6936800  68.8516127  53.8096414   9.8317832  69.9493850  53.2232052
  11.4742108  63.6000590  59.0414092  11.1391940  63.5601360  59.9371742
  10.9746053  62.9345306  58.5684502   5.4486352  59.0068220  64.5666673
   5.3106149  58.2748459  65.1678212   6.3591275  58.9177120  64.2850861
  14.4101299  60.9456624  49.3151152  13.7930470  60.2203452  49.2184204
  13.9417788  61.7065985  48.9718226   8.0768652  58.7188179  64.0550353
   8.7868271  58.0781371  64.0136971   8.0337960  58.9701074  64.9776534
  16.0655431  65.6555533  66.9756932  16.0067977  64.9714753  66.3087515
  16.4674949  66.3974523  66.5237558   6.7897586  55.7053397  65.8745992
   6.2534943  55.2544136  66.5267589   6.2014295  55.8399306  65.1316457
   5.0846130  72.4717446  59.7690651   5.3242728  73.1035971  60.4469670
   4.2415326  72.1205486  60.0556010   6.1999845  55.1642049  48.4372456
   5.3229311  55.0430849  48.0734703   6.6757598  54.3728127  48.1851345
  16.0672838  63.6195117  65.2070912  15.1799617  63.2821038  65.3297311
  16.6371389  62.8878148  65.4439677   2.5236707  54.8409405  62.9598987
   2.4394896  54.2335074  62.2249397   1.7019414  55.3318423  62.9608483
   9.5973992  68.2796569  62.1732155   9.5244163  69.0851540  62.6851460
   9.1551385  68.4788535  61.3480176   9.3863771  67.5168339  55.6834977
   8.6031293  68.0590019  55.7773201  10.0856516  68.0342319  56.0829218
  12.6960421  53.3262968  58.3269182  13.1929121  52.5732931  58.0070252
  11.9247403  53.3627285  57.7612391  20.5490179  59.0303334  59.9687473
  20.5380055  59.9128049  59.5981407  19.6807558  58.6774885  59.7742011
  12.0572675  68.1783403  64.3290314  12.7700647  68.8130868  64.2566215
  11.5662704  68.2747269  63.5130316  13.7790202  62.0834656  55.9007605
  12.8446481  62.2036118  55.7312310  13.9566870  61.1807122  55.6367615
   9.2795390  55.4680351  58.0540867   8.9093178  54.9151392  58.7421772
   9.7754482  54.8638485  57.5015867  17.1662753  57.9251975  56.4357640
  17.6323206  58.7579966  56.3617942  17.6170254  57.4596956  57.1402898
   7.1084589  65.9277846  65.1495885   7.8094048  66.5614329  65.3025279
   6.6379704  66.2692578  64.3891524  15.2338984  64.2695796  53.4343792
  15.5098828  64.1552391  54.3437666  14.3643483  63.8713281  53.3955965
  15.1379416  50.2932562  60.4748541  14.2242496  50.5236789  60.6430748
  15.5672518  50.3771006  61.3262573  14.9085875  58.4822454  62.9748435
  14.2557325  58.7298361  62.3200888  15.2866254  57.6686592  62.6410912
  11.8693048  68.5182147  57.0776605  12.0515443  67.7003803  57.5404358
  12.6926034  68.7349839  56.6401495  12.2035214  67.4450332  54.3391654
  12.7322980  66.9342787  53.7261816  12.4663434  67.1292862  55.2037187
  10.9573448  59.2242265  69.4614472  10.2814085  59.1236394  70.1316847
  11.7801081  59.0681479  69.9250469   2.7052307  65.4614201  62.0826987
   3.2905743  64.7157889  62.2154891   2.5077145  65.7718158  62.9663651
   5.5590962  68.4965449  57.0989430   4.8901337  68.9811576  56.6153470
   5.4203832  68.7434669  58.0132808   9.6996230  70.5309192  63.6972088
  10.2514538  70.6940814  64.4621173  10.0402424  71.1213630  63.0252113
   4.6760724  52.8784342  64.2993973   4.7402050  53.7399173  63.8871370
   4.6127844  52.2658344  63.5666331   4.1512996  54.9507475  67.9467007
   4.7785035  54.5684552  68.5604531   3.2940915  54.7321677  68.3122699
  14.5507105  65.3570450  69.5520742  15.0947009  65.9700408  69.0575697
  13.9693950  65.9150028  70.0687755  12.8364618  68.4791168  60.6835770
  12.7115757  67.6780908  60.1746716  13.4943709  68.9737361  60.1949740
   4.4572786  54.8339900  59.8612910   3.7359372  55.4475868  59.7220384
   5.2466042  55.3697665  59.7829556  14.8999526  66.2800188  62.3115320
  13.9529862  66.1605539  62.2393647  15.2482299  65.3922686  62.3941582
   7.2599099  52.1694327  66.1353562   7.7833501  52.4156623  66.8979871
   7.0411433  53.0014362  65.7156699   2.6566381  54.4398001  54.0024687
   2.3279087  53.5595380  53.8199793   3.0105751  54.3845670  54.8901076
  11.9045959  66.0752904  58.5119672  11.7570922  65.1469612  58.6927242
  12.7299453  66.0972995  58.0276748   5.7708204  54.7270971  54.3700165
   6.1104276  55.2556893  53.6478773   6.2180324  55.0651377  55.1458731
  15.5080081  66.8981463  59.5984545  16.4326629  66.6924324  59.4608996
  15.3395385  66.6497864  60.5073887   8.4651645  53.1108022  63.8203233
   8.1248465  52.3115835  64.2223913   7.7590651  53.4109733  63.2480066
   9.1168116  50.1957334  62.2730556   9.9394186  49.7217813  62.1509446
   9.3606180  50.9747818  62.7729242   7.7576351  53.2245593  52.5693457
   8.4784713  53.6026846  52.0657174   7.1341655  53.9434470  52.6728435
  11.9007474  53.9290742  53.5051790  12.1171088  54.8115380  53.2040618
  11.4201541  53.5376955  52.7757432   6.6406695  56.8876455  60.0822534
   6.4951276  57.2016758  60.9746816   6.1631899  57.5061355  59.5293433
   8.5003078  53.8779003  60.1303424   8.4864647  52.9820096  59.7935722
   9.2175506  53.8849667  60.7641710  10.3529209  54.3116343  62.1756551
  10.0946987  55.2333414  62.1740882   9.8214249  53.9146778  62.8657015
  15.2975397  67.4167130  54.9546637  15.4712275  66.8513553  54.2020489
  15.7904289  68.2168025  54.7726127   1.1152357  59.4281799  63.0210195
   0.5705825  60.2041607  63.1530470   1.9931707  59.7752604  62.8629317
   7.9039974  52.7593383  55.3990994   8.0255885  51.8310029  55.5981881
   7.6142016  52.7732069  54.4869309  10.7731164  50.4448294  58.5357714
  10.7952861  50.5087627  57.5809693  11.1899223  49.6052802  58.7298220
  21.1514789  60.1803553  56.5736936  21.5945935  59.4310879  56.1756060
  20.2741299  60.1713690  56.1910668  16.2850570  66.7333895  52.0543535
  16.9801475  67.3540587  52.2730850  16.6273720  65.8829246  52.3295913
   1.9018379  58.5551696  65.9140352   1.1600115  58.7034331  66.5004983
   1.5811123  58.8159961  65.0507102  18.1841993  64.1833600  53.5830866
  18.7093317  64.5220873  52.8580186  18.0964346  63.2480616  53.3994000
   9.8462042  68.0967674  65.7120742  10.1549168  67.8516821  66.5843442
  10.6437524  68.3014312  65.2239613   9.8682654  70.2505584  57.9426119
   9.4287644  69.7581962  58.6358976  10.6190771  69.7078551  57.7018194
   2.3474993  66.4417124  57.9450747   3.1733013  66.1420896  57.5649390
   1.9969045  65.6724747  58.3940536   7.3156526  65.7943593  60.0148421
   6.6936535  65.1314298  59.7150648   7.9861393  65.8204725  59.3322068
   7.3881053  54.2725381  69.6080927   7.4369209  55.1487503  69.2258696
   7.9303568  53.7302774  69.0352570  17.8735899  64.8166504  68.8882064
  17.0831443  64.7990643  68.3486563  17.6369254  65.3554798  69.6431100
  17.9933774  61.6658970  66.2014792  18.0431779  61.5008978  67.1430315
  17.8847698  60.7986229  65.8112673   6.8770033  64.3447516  53.4906881
   7.0258153  65.0282980  52.8373554   7.6836476  64.3252606  54.0056337
  15.2837537  57.6489898  67.5174099  16.1847399  57.5096363  67.2258097
  15.3585511  57.8144353  68.4572276   9.6180342  55.0256753  66.3627285
   8.7483651  55.3190319  66.0909874   9.8539822  55.6097198  67.0834549
  19.4951971  64.0855912  66.4456814  19.2036779  64.4485892  67.2820275
  18.8824102  63.3722920  66.2670146  20.6947653  61.6508792  58.9659384
  21.5294545  62.0898596  59.1296944  20.8306782  61.1747445  58.1467630
  17.7439159  59.2088526  64.9136872  18.2193281  59.4016173  64.1055723
  16.8204725  59.2647712  64.6680255   4.6322666  60.3712694  54.4967950
   4.3868708  59.4675024  54.6948160   4.8018580  60.3729844  53.5547428
  12.3219376  51.2436370  63.8792706  12.8401320  51.9797397  63.5539194
  11.9674509  51.5500363  64.7139465   3.9018313  56.1041051  51.9954111
   3.2087558  56.1785406  51.3394147   3.6570065  55.3401395  52.5175628
  12.5731970  47.6636653  59.3993602  12.8533724  46.9959842  60.0254029
  13.3582577  47.8565748  58.8868266  10.3765438  66.8395646  50.9618629
   9.8039405  67.4585834  50.5089100  10.9498232  67.3895008  51.4958550
  16.4440828  56.0854287  63.1465177  17.3958251  56.1852384  63.1677401
  16.2744279  55.2932555  63.6563262  14.4655208  53.1709870  63.3324578
  13.8705140  53.4514882  62.6371067  14.1804904  53.6603771  64.1041319
  13.5962698  67.1232797  52.0927211  14.5293371  67.0578358  52.2960086
  13.5085911  67.9589063  51.6341743  16.2250715  66.4398667  49.0531158
  16.1464346  66.1058531  49.9466916  17.0460382  66.9320435  49.0522631
  18.9228906  59.3060406  62.2607477  18.8905226  58.3676407  62.4467161
  19.5329530  59.3844443  61.5273302  10.7612237  58.1756459  48.3034681
  11.7071342  58.0462667  48.3723099  10.3826482  57.4371121  48.7804109
  19.0723395  56.0971450  62.3065760  18.5562443  55.3129906  62.1195689
  19.9563343  55.7690166  62.4712280  16.7334121  49.8412465  58.2661573
  16.5358943  49.5327553  59.1504905  17.3433827  50.5674104  58.3959503
  24.7405456  60.3676413  61.4013514  25.4708844  60.1061701  61.9621217
  24.1312401  59.6305135  61.4415582  22.8220753  58.5084276  61.9987965
  22.0953917  58.3740241  61.3904457  22.4068040  58.8161104  62.8044683
  10.6450929  62.2274205  69.7635338  11.5653939  62.4052804  69.9575385
  10.6100512  61.2830251  69.6115037   8.9455154  56.1006436  48.2389566
   8.0386609  55.8039548  48.3152280   9.2231135  55.8036254  47.3723852
   3.6413002  60.1375240  62.4058119   3.8599012  61.0692348  62.4246153
   4.0538776  59.7783214  63.1912923  10.5617220  50.6443325  54.3933808
   9.7517948  50.2990410  54.7689054  11.2501637  50.3350869  54.9821419
  12.4907768  49.7221372  56.0158104  13.0438807  50.1416826  56.6748127
  12.7277854  48.7957120  56.0581060   8.5140867  55.7108446  71.7960868
   8.4137594  56.6602803  71.7272959   8.2962409  55.3826685  70.9236938
   7.7153939  52.9593371  48.3801545   8.5773103  53.2848269  48.6397363
   7.9004283  52.1724867  47.8674611  15.8686575  51.8321897  55.5236768
  15.2885244  52.4906701  55.1414821  15.6022508  51.0099242  55.1124186
  14.3190142  51.2326955  57.7258089  14.8189920  51.3443490  56.9172408
  14.9625749  50.9288008  58.3658897   8.3772137  59.1405585  70.6125930
   7.8939219  59.9405945  70.8189819   8.4633076  59.1513529  69.6593374
   1.6458097  60.9733964  58.5347749   1.6228785  61.0721652  57.5829632
   1.9558733  61.8199115  58.8564915   4.3045475  63.0310119  62.6494364
   5.2588728  62.9994062  62.5824295   4.1057998  62.5700743  63.4644589
   4.8944857  61.6011235  65.2165161   5.7137746  62.0955314  65.2399998
   5.1681665  60.6843203  65.1882729  14.6511453  53.9921988  54.5793117
  13.7637308  54.2771638  54.3613311  15.0665442  53.8315751  53.7320394
  18.0025989  54.0168509  58.2947456  18.7786379  54.5064961  58.5672073
  17.2774123  54.4426563  58.7519325  20.4398548  54.7296128  59.3521397
  21.0343039  54.4891864  58.6414705  20.5125132  54.0103258  59.9794933
   2.6595704  68.5729739  59.6664561   2.5250172  67.8130140  59.1002559
   2.2427766  69.2970639  59.1993350  13.7954667  63.7566662  48.6741137
  14.4990517  63.9616665  49.2898792  13.0717315  64.3243424  48.9390220
  14.6252477  59.5076524  54.7943407  14.5687678  59.9645075  53.9551039
  15.1780819  58.7467208  54.6166250  18.4357283  55.2966255  55.6193526
  18.1794217  54.8962891  56.4501734  17.8110151  56.0110049  55.4943666
  22.7469621  58.0362329  58.1264818  22.1869179  58.1055518  58.8996380
  22.1413124  57.8603313  57.4064314   5.8164830  69.4699056  59.8783004
   5.6997214  70.4144488  59.7761694   4.9957276  69.1672617  60.2668803
  15.7041364  64.1949192  50.7239597  16.5386968  63.7630390  50.5417072
  15.5425707  64.0231205  51.6516491  15.3587256  60.6981305  52.0895936
  15.3036060  60.5325576  51.1484380  14.7333312  61.4057338  52.2458126
  12.6733163  63.0030217  71.4149499  13.5424323  63.1770869  71.0536134
  12.1939915  63.8224634  71.2925228   8.6683382  50.1989414  51.6681254
   8.6562052  51.1431254  51.8249525   9.5606804  50.0159559  51.3740716
   6.8419344  70.1227318  63.0938932   7.7446590  70.1550928  63.4105427
   6.6156714  69.1927769  63.1085268   8.5972946  68.8758304  59.7549011
   7.6468577  68.8760166  59.6413383   8.9005432  68.1291039  59.2385046
  12.4835501  46.7932190  55.9227191  11.7167897  46.2390677  56.0683874
  12.8946206  46.8654059  56.7841343   4.4877262  53.0816986  70.0132372
   5.3508724  52.7253791  70.2235697   3.9142673  52.7430881  70.7007777
  24.3325639  74.7118843  60.8194773  24.9704049  74.5925590  60.1158114
  24.2146482  75.6599687  60.8782726  21.1415345  74.6646271  60.7556298
  20.8033857  74.5487335  59.8676833  22.0105114  74.2637436  60.7357304
  17.0002161  76.5181747  56.7453189  16.4367026  76.4271684  55.9769477
  16.8854556  75.6981652  57.2255682  21.6235128  75.8181122  66.7142504
  21.6123769  75.4233921  65.8423007  21.7855768  75.0847195  67.3076275
  14.5466593  78.0132939  59.5837410  15.3387885  77.6723763  59.1683709
  14.7863243  78.1227914  60.5039563  22.5801720  80.1852715  52.0567654
  21.9289700  80.7706795  51.6701668  23.3746083  80.7158910  52.1162691
  16.5057347  77.2741852  52.4554788  17.2788223  76.7270839  52.3167664
  16.8582746  78.1386101  52.6669250  18.3442390  78.6018234  65.6621688
  18.0532256  79.5063865  65.5468354  18.9799374  78.6434762  66.3765757
  19.2698596  75.9795083  62.2523047  19.8662169  75.7551105  61.5380010
  19.3273568  75.2379828  62.8548495  18.8423625  73.4334518  50.0873238
  19.0949145  72.9116039  49.3256701  17.9048184  73.2700664  50.1899922
  23.8866908  72.4370296  57.8947982  24.6729997  72.0189720  57.5438399
  24.1505612  73.3416389  58.0629630  24.0576985  77.8743147  52.5936638
  23.4222818  77.9477773  53.3057543  23.7274391  78.4636746  51.9155718
  29.2875335  72.3745530  58.7980960  30.0200507  71.8044746  59.0318790
  28.5314690  71.9867130  59.2387466  18.5619914  75.3362624  52.2897613
  18.4456172  74.6607527  52.9578698  18.6722173  74.8494998  51.4729766
  20.9051454  74.7972771  55.9944302  20.5409662  74.2703392  56.7057224
  21.7618570  74.4071240  55.8210788  26.8100755  66.0867104  63.2575569
  26.4784080  66.9562515  63.0336784  26.2146368  65.7703388  63.9369599
  20.5456941  69.8262671  50.9905651  20.7131344  70.6942907  51.3576122
  20.3554111  69.9889953  50.0666940  23.3032275  78.2879650  62.6571481
  23.0032998  79.1904689  62.5487289  22.9583334  78.0211833  63.5092634
  16.7544756  74.7393447  58.6908186  15.8295253  74.6069661  58.8985878
  17.0029169  75.5187666  59.1878128  26.7029418  70.8062190  60.3368919
  25.7946296  70.7377598  60.0427680  26.6517014  71.2834135  61.1650744
  20.5246162  72.2820328  51.9752318  20.4045788  72.7277379  52.8137798
  19.8298751  72.6305646  51.4165856  14.1153567  74.3826720  59.5251975
  14.2445948  74.6361199  60.4391387  13.4351018  74.9754428  59.2056630
  18.2853054  85.0523970  55.6242449  18.2077084  86.0031795  55.7030930
  17.6814698  84.7069843  56.2817375  20.7770284  72.2251836  68.2803816
  20.0003618  72.7845756  68.2706681  21.4160847  72.7108619  68.8018686
  28.5691065  69.0078628  62.1146793  27.9265445  69.3011162  61.4686587
  28.0645993  68.8931549  62.9199989  26.2231228  72.7541802  52.8032652
  27.1349085  72.9869188  52.6280349  25.7140876  73.3378846  52.2407730
  19.0316657  75.0337289  67.8421783  19.7731341  75.5722333  67.5656607
  18.3253642  75.6603578  67.9993335  24.5071996  77.1766429  66.4393944
  24.9155352  76.7348840  65.6948577  23.7849258  76.6019057  66.6928137
  20.8603066  72.1139036  63.8127501  21.7064261  72.5378450  63.9562150
  20.8001704  71.4572660  64.5066065  24.8300811  77.7367620  60.1946233
  24.2009673  77.9013334  59.4922301  24.4426473  78.1509230  60.9657197
  28.7090043  78.6722058  57.5490597  28.0241081  79.0520959  56.9987630
  28.7933892  79.2817385  58.2822545  24.0102512  69.7743405  65.4708675
  23.7663443  70.5285465  64.9342951  24.2862442  70.1528752  66.3055922
  25.9640974  76.3182017  64.1485941  26.1757870  76.9613777  63.4720322
  25.9170723  75.4844333  63.6807871  23.5667203  68.9299838  61.0522513
  22.7051682  69.2281091  61.3439250  23.5929638  69.1470236  60.1203545
  20.3828773  77.4742028  57.4596318  20.8467118  77.7529731  56.6700941
  20.1185571  76.5725473  57.2769409  17.2752854  77.0213510  60.3976082
  17.8454211  77.4500778  59.7593566  17.8660966  76.7396094  61.0960267
  19.3197659  73.5965180  54.2685884  20.0221702  74.0486224  54.7359810
  18.9878287  72.9548999  54.8965777  17.7678020  72.1876937  68.6437093
  17.1376681  72.8693218  68.8772490  17.6614108  72.0760019  67.6990231
  13.0622993  71.8548733  59.5703017  12.2722047  72.1106262  59.0943128
  13.5534240  72.6697071  59.6755058  27.0786802  79.1953972  62.3208298
  27.9004246  78.7934160  62.0390980  27.0749205  79.0922206  63.2724414
  15.0137738  72.2193312  56.5286494  14.2168901  72.3312007  57.0469990
  14.7863330  72.5579965  55.6627384  20.8443406  78.7438016  64.4769008
  20.9087838  79.2058423  65.3127180  20.1354330  78.1135381  64.6051318
  11.3460696  72.1079224  62.0018008  11.5968734  72.9926233  62.2675584
  11.8820244  71.9283825  61.2293100  20.5591423  80.4106123  54.3447989
  20.4237098  81.2557659  54.7732837  21.1001236  80.6125401  53.5813923
  17.0458763  66.4897703  71.0062344  16.6525709  65.9363901  71.6809988
  17.8624903  66.8008281  71.3968862  14.0120821  77.9281561  54.9175914
  14.5245341  78.7224811  55.0681479  14.6643534  77.2307852  54.8509515
  15.8215705  81.0447317  56.9998667  15.9982334  81.9665282  56.8119651
  16.6172539  80.7305737  57.4293047  19.9626724  67.9055582  68.5982601
  20.7036437  68.5062735  68.5187063  20.1944647  67.1633220  68.0400643
  15.1068062  73.0911949  66.8760830  14.9921577  72.1897207  67.1767929
  14.2512580  73.3375646  66.5245647  22.1859900  81.0329690  68.4748331
  21.7423754  80.2466068  68.1569235  22.8477113  81.2208840  67.8092222
  16.9447021  82.5625491  63.0009009  17.4954446  82.4342555  62.2286003
  16.1058497  82.8620380  62.6503902  24.2841138  81.3132490  66.5029732
  24.2659613  82.1341371  66.0110001  25.2061058  81.1886565  66.7279873
  20.7414192  78.8276619  67.3453241  21.2742529  78.0664907  67.1152548
  20.2128273  78.5350271  68.0877395  23.9083887  63.9336685  62.8746882
  23.5648156  64.8238327  62.7985993  24.2762850  63.7438343  62.0116467
  11.9769738  76.2570215  55.6935484  12.8144960  76.6667224  55.4769192
  12.1548005  75.3169658  55.6635678  23.8734170  73.9245296  51.3819317
  23.3580793  74.6949901  51.6207705  23.6011478  73.2510432  52.0052379
  21.4581281  68.7694997  56.4404556  20.6022877  68.3801847  56.2610194
  21.8708232  68.8486958  55.5804341  22.9880427  66.3041340  60.8396115
  22.4845223  66.2671475  60.0263921  23.2811034  67.2134083  60.8992772
  19.2323313  66.3880070  59.8462297  20.0976310  66.1922879  59.4868187
  19.3000822  66.1590422  60.7731654  28.8468444  76.6777651  53.3172491
  28.0697887  76.3388810  52.8727653  29.5259925  76.6830274  52.6427456
  23.6620473  71.7972388  53.2079099  23.3570608  72.1118537  54.0589242
  24.6150915  71.8753808  53.2506432  22.1066905  77.9562611  54.8572053
  21.5788266  77.2215371  54.5445290  21.6054407  78.7337288  54.6112021
  27.0859751  76.1511632  59.9739099  26.4283425  76.8410893  60.0619227
  27.8900150  76.5408064  60.3173085  16.8385632  68.6182278  57.2178664
  17.4129384  68.3957459  56.4851857  17.4256615  68.6870972  57.9707265
  25.8965209  74.5056005  58.0243041  26.4097091  75.1385997  58.5264750
  26.5466433  73.9057200  57.6586401  17.1655219  70.6486739  51.2374549
  16.3292532  70.9861425  51.5583824  17.0259989  70.5135719  50.3001686
  19.1408300  65.4923527  55.9453733  18.4872712  65.1772544  55.3210348
  19.0988774  64.8699267  56.6713556  20.2519505  75.7742822  47.8607026
  19.3446567  75.5432075  48.0598175  20.7490537  74.9780441  48.0481007
  23.1587584  84.4840329  50.7803712  22.4849282  84.7872026  51.3888670
  23.5453406  85.2869409  50.4309169  22.3746040  71.9805460  60.2701381
  21.4568602  72.2020407  60.1123069  22.7906184  72.0551771  59.4113088
  23.1581088  73.3796876  55.4004061  23.9052907  73.8918273  55.0911183
  23.4272678  73.0580929  56.2608455  21.4307738  75.8755417  52.3831016
  20.5218958  75.5914449  52.4803485  21.4602822  76.2954495  51.5234323
  26.6627006  79.4862006  56.1522183  26.2089333  78.6452916  56.2087374
  26.0320972  80.1223404  56.4896963  25.6059925  70.4153992  57.3822851
  24.8682682  69.9031378  57.7133093  25.8586699  69.9754374  56.5706128
  25.1059945  81.3238503  57.0872001  25.3982919  81.8843560  56.3684367
  25.6158566  81.6167064  57.8425160  25.7071553  63.1930244  57.9764620
  26.0130429  62.3327608  57.6890535  26.4324157  63.7847864  57.7763614
  11.9995909  73.5960931  56.3646218  11.8020308  73.0030291  55.6397284
  11.4442573  73.2913141  57.0822157  19.9792632  73.4884037  58.4840811
  20.0341242  72.5357874  58.4083288  19.1683834  73.6443476  58.9682109
  21.1283826  77.4164160  49.7219094  20.6903256  76.7000019  49.2624732
  21.8694267  77.6440275  49.1604186  17.9184992  72.1061097  56.2431190
  17.1052858  72.4055268  56.6496382  18.4143986  71.7116786  56.9605672
  20.0693570  82.1018854  58.1765455  20.0269749  82.3279700  57.2473987
  20.9856269  81.8682228  58.3251256  23.5159204  72.5702921  65.0746084
  23.8708592  72.7974395  65.9340550  24.1631335  72.9021298  64.4523339
  29.2456941  75.6921357  55.7795413  29.1074839  75.8822953  54.8516602
  28.8893160  76.4540740  56.2363464  17.4099067  69.6779452  61.8592425
  18.0498446  69.5368212  61.1615388  16.5776598  69.3913966  61.4831027
  29.2726320  77.7597884  60.7906684  29.7062827  77.6673173  61.6389738
  29.9857901  77.7355385  60.1526700  18.1859371  78.9781883  57.9727417
  18.9799969  78.4832203  57.7709992  17.4751063  78.4499746  57.6095123
  23.0054215  81.3599978  62.3239785  23.0591238  81.9290915  63.0917501
  22.1368997  81.5301863  61.9593822  14.4942134  73.1224965  54.0487170
  13.5639722  73.0609420  54.2657132  14.5899606  72.6000917  53.2523811
  14.4127683  69.6479777  56.6365412  14.6734501  70.5625111  56.5274572
  15.2344856  69.1804220  56.7862024  15.8852609  71.0617535  63.8064236
  16.5575662  70.8534897  63.1576885  15.0582395  70.8639621  63.3669468
  30.1341870  77.8021585  63.3239570  30.3277760  78.7067395  63.5698845
  30.0342488  77.3429004  64.1578155  21.7878181  67.6879476  65.8229897
  21.1406096  68.3869425  65.7294373  22.5579196  68.1215619  66.1906145
  25.1956979  77.9528328  68.8980450  25.0442485  77.7238879  67.9810534
  25.1861658  78.9098929  68.9111795  21.9642315  75.5260240  63.8826717
  22.8934375  75.6771400  63.7095684  21.5433345  75.6144261  63.0275363
  20.7630647  79.5510905  61.6525254  20.6241733  79.1829689  62.5251192
  19.9745243  80.0658544  61.4809212  21.3578799  84.6520001  52.9950791
  21.5330555  84.1808045  53.8096414  20.6711587  85.2785768  53.2232052
  22.3135862  78.9292508  59.0414092  21.9785695  78.8893278  59.9371742
  21.8139808  78.2637224  58.5684502  16.2880106  74.3360138  64.5666673
  16.1499904  73.6040376  65.1678212  17.1985029  74.2469038  64.2850861
  25.2495054  76.2748542  49.3151152  24.6324224  75.5495370  49.2184204
  24.7811542  77.0357902  48.9718226  18.9162407  74.0480097  64.0550353
  19.6262025  73.4073289  64.0136971  18.8731715  74.2992992  64.9776534
  26.9049185  80.9847450  66.9756932  26.8461732  80.3006670  66.3087515
  27.3068704  81.7266440  66.5237558  17.6291341  71.0345315  65.8745992
  17.0928698  70.5836053  66.5267589  17.0408049  71.1691224  65.1316457
  15.9239884  87.8009364  59.7690651  16.1636482  88.4327888  60.4469670
  15.0809081  87.4497404  60.0556010  17.0393600  70.4933966  48.4372456
  16.1623066  70.3722767  48.0734703  17.5151353  69.7020045  48.1851345
  26.9066593  78.9487034  65.2070912  26.0193371  78.6112956  65.3297311
  27.4765144  78.2170065  65.4439677   8.5595740  75.2811126  58.5313963
   9.2466780  74.9672856  57.9434979   8.4043868  76.1852491  58.2581215
  13.3630462  70.1701323  62.9598987  13.2788651  69.5626992  62.2249397
  12.5413168  70.6610341  62.9608483  20.4367746  83.6088487  62.1732155
  20.3637918  84.4143458  62.6851460  19.9945139  83.8080452  61.3480176
  20.2257526  82.8460257  55.6834977  19.4425048  83.3881937  55.7773201
  20.9250271  83.3634236  56.0829218  23.5354176  68.6554886  58.3269182
  24.0322875  67.9024848  58.0070252  22.7641157  68.6919203  57.7612391
  22.8966430  83.5075321  64.3290314  23.6094402  84.1422785  64.2566215
  22.4056458  83.6039187  63.5130316  24.6183956  77.4126573  55.9007605
  23.6840235  77.5328036  55.7312310  24.7960625  76.5099040  55.6367615
  20.1189145  70.7972269  58.0540867  19.7486932  70.2443309  58.7421772
  20.6148237  70.1930403  57.5015867  28.0056508  73.2543893  56.4357640
  28.4716960  74.0871884  56.3617942  28.4564008  72.7888874  57.1402898
  17.9478343  81.2569764  65.1495885  18.6487803  81.8906247  65.3025279
  17.4773458  81.5984496  64.3891524  26.0732739  79.5987714  53.4343792
  26.3492583  79.4844308  54.3437666  25.2037238  79.2005199  53.3955965
  25.9773171  65.6224480  60.4748541  25.0636250  65.8528706  60.6430748
  26.4066272  65.7062924  61.3262573  25.7479629  73.8114372  62.9748435
  25.0951079  74.0590279  62.3200888  26.1260009  72.9978510  62.6410912
  22.7086803  83.8474065  57.0776605  22.8909197  83.0295721  57.5404358
  23.5319789  84.0641757  56.6401495  23.0428968  82.7742250  54.3391654
  23.5716735  82.2634704  53.7261816  23.3057188  82.4584780  55.2037187
  21.7967202  74.5534183  69.4614472  21.1207839  74.4528312  70.1316847
  22.6194836  74.3973396  69.9250469  13.5446061  80.7906119  62.0826987
  14.1299498  80.0449807  62.2154891  13.3470900  81.1010076  62.9663651
  16.3984716  83.8257367  57.0989430  15.7295092  84.3103494  56.6153470
  16.2597586  84.0726587  58.0132808   8.1363716  73.3611719  60.8031430
   8.1747815  72.8275310  61.5968548   7.6304009  72.8346925  60.1842408
  20.5389985  85.8601110  63.6972088  21.0908293  86.0232732  64.4621173
  20.8796178  86.4505548  63.0252113  15.5154478  68.2076260  64.2993973
  15.5795805  69.0691091  63.8871370  15.4521598  67.5950261  63.5666331
  14.9906751  70.2799392  67.9467007  15.6178790  69.8976470  68.5604531
  14.1334670  70.0613594  68.3122699  25.3900859  80.6862368  69.5520742
  25.9340763  81.2992326  69.0575697  24.8087704  81.2441946  70.0687755
  11.7672293  72.0875821  53.8785362  12.0625735  71.1786500  53.8252415
  10.8660329  72.0663561  53.5566364  23.6758372  83.8083086  60.6835770
  23.5509512  83.0072825  60.1746716  24.3337463  84.3029279  60.1949740
  15.2966540  70.1631818  59.8612910  14.5753126  70.7767786  59.7220384
  16.0859796  70.6989583  59.7829556  25.7393281  81.6092106  62.3115320
  24.7923616  81.4897457  62.2393647  26.0876054  80.7214604  62.3941582
  18.0992854  67.4986245  66.1353562  18.6227256  67.7448541  66.8979871
  17.8805187  68.3306279  65.7156699  13.4960135  69.7689919  54.0024687
  13.1672841  68.8887298  53.8199793  13.8499506  69.7137588  54.8901076
  22.7439714  81.4044822  58.5119672  22.5964676  80.4761529  58.6927242
  23.5693207  81.4264913  58.0276748  16.6101958  70.0562889  54.3700165
  16.9498031  70.5848810  53.6478773  17.0574079  70.3943295  55.1458731
  26.3473836  82.2273381  59.5984545  27.2720383  82.0216242  59.4608996
  26.1789139  81.9789782  60.5073887  19.3045399  68.4399940  63.8203233
  18.9642219  67.6407753  64.2223913  18.5984405  68.7401651  63.2480066
  19.9561871  65.5249252  62.2730556  20.7787940  65.0509730  62.1509446
  20.1999934  66.3039736  62.7729242  18.5970105  68.5537511  52.5693457
  19.3178468  68.9318763  52.0657174  17.9735409  69.2726387  52.6728435
  22.7401228  69.2582660  53.5051790  22.9564843  70.1407297  53.2040618
  22.2595295  68.8668873  52.7757432  17.4800450  72.2168373  60.0822534
  17.3345030  72.5308676  60.9746816  17.0025653  72.8353273  59.5293433
  19.3396832  69.2070921  60.1303424  19.3258401  68.3112014  59.7935722
  20.0569261  69.2141584  60.7641710  21.1922963  69.6408261  62.1756551
  20.9340741  70.5625332  62.1740882  20.6608004  69.2438695  62.8657015
  26.1369152  82.7459048  54.9546637  26.3106029  82.1805471  54.2020489
  26.6298043  83.5459943  54.7726127  11.9546112  74.7573717  63.0210195
  11.4099580  75.5333525  63.1530470  12.8325462  75.1044522  62.8629317
  18.7433728  68.0885301  55.3990994  18.8649640  67.1601947  55.5981881
  18.4535771  68.1023987  54.4869309  21.6124919  65.7740211  58.5357714
  21.6346616  65.8379545  57.5809693  22.0292978  64.9344720  58.7298220
  27.1244324  82.0625812  52.0543535  27.8195229  82.6832505  52.2730850
  27.4667475  81.2121164  52.3295913  12.7412134  73.8843613  65.9140352
  11.9993870  74.0326249  66.5004983  12.4204878  74.1451879  65.0507102
  29.0235748  79.5125518  53.5830866  29.5487072  79.8512791  52.8580186
  28.9358100  78.5772533  53.3994000  20.6855796  83.4259592  65.7120742
  20.9942923  83.1808738  66.5843442  21.4831278  83.6306230  65.2239613
  20.7076408  85.5797501  57.9426119  20.2681399  85.0873880  58.6358976
  21.4584525  85.0370469  57.7018194  13.1868747  81.7709042  57.9450747
  14.0126767  81.4712814  57.5649390  12.8362799  81.0016665  58.3940536
  18.1550280  81.1235510  60.0148421  17.5330290  80.4606215  59.7150648
  18.8255147  81.1496642  59.3322068  11.3877352  79.6895369  58.9039681
  10.5509261  79.2617543  58.7223682  11.3600998  79.8827812  59.8410472
  18.2274808  69.6017298  69.6080927  18.2762963  70.4779421  69.2258696
  18.7697322  69.0594691  69.0352570  28.7129654  80.1458422  68.8882064
  27.9225197  80.1282560  68.3486563  28.4763008  80.6846715  69.6431100
  28.8327529  76.9950888  66.2014792  28.8825534  76.8300895  67.1430315
  28.7241452  76.1278147  65.8112673  17.7163787  79.6739434  53.4906881
  17.8651908  80.3574898  52.8373554  18.5230231  79.6544524  54.0056337
  26.1231291  72.9781816  67.5174099  27.0241154  72.8388281  67.2258097
  26.1979266  73.1436271  68.4572276  20.4574096  70.3548671  66.3627285
  19.5877406  70.6482237  66.0909874  20.6933577  70.9389116  67.0834549
  30.3345726  79.4147829  66.4456814  30.0430534  79.7777810  67.2820275
  29.7217857  78.7014838  66.2670146  28.5832914  74.5380444  64.9136872
  29.0587035  74.7308090  64.1055723  27.6598479  74.5939630  64.6680255
  15.4716420  75.7004611  54.4967950  15.2262462  74.7966941  54.6948160
  15.6412335  75.7021762  53.5547428  23.1613130  66.5728288  63.8792706
  23.6795074  67.3089315  63.5539194  22.8068263  66.8792281  64.7139465
  14.7412068  71.4332969  51.9954111  14.0481313  71.5077324  51.3394147
  14.4963820  70.6693313  52.5175628  23.4125724  62.9928570  59.3993602
  23.6927478  62.3251759  60.0254029  24.1976331  63.1857666  58.8868266
  21.2159193  82.1687564  50.9618629  20.6433160  82.7877751  50.5089100
  21.7891987  82.7186926  51.4958550  27.2834583  71.4146204  63.1465177
  28.2352006  71.5144302  63.1677401  27.1138033  70.6224473  63.6563262
  25.3048962  68.5001787  63.3324578  24.7098894  68.7806800  62.6371067
  25.0198659  68.9895688  64.1041319  24.4356453  82.4524714  52.0927211
  25.3687126  82.3870276  52.2960086  24.3479666  83.2880981  51.6341743
  27.0644469  81.7690585  49.0531158  26.9858101  81.4350448  49.9466916
  27.8854136  82.2612353  49.0522631  29.7622661  74.6352324  62.2607477
  29.7298981  73.6968325  62.4467161  30.3723284  74.7136361  61.5273302
  21.6005991  73.5048377  48.3034681  22.5465096  73.3754585  48.3723099
  21.2220236  72.7663039  48.7804109  29.9117149  71.4263367  62.3065760
  29.3956198  70.6421824  62.1195689  30.7957098  71.0982084  62.4712280
  21.4844684  77.5566123  69.7635338  22.4047693  77.7344722  69.9575385
  21.4494267  76.6122168  69.6115037  19.7848909  71.4298353  48.2389566
  18.8780364  71.1331466  48.3152280  20.0624890  71.1328171  47.3723852
  10.7026849  72.7504717  58.6888613  10.3829633  71.8970025  58.3962987
  10.1560277  72.9653295  59.4446580  14.4806756  75.4667158  62.4058119
  14.6992766  76.3984265  62.4246153  14.8932530  75.1075132  63.1912923
  21.4010974  65.9735243  54.3933808  20.5911703  65.6282328  54.7689054
  22.0895391  65.6642787  54.9821419  23.3301523  65.0513290  56.0158104
  23.8832561  65.4708743  56.6748127  23.5671609  64.1249038  56.0581060
  19.3534622  71.0400363  71.7960868  19.2531349  71.9894720  71.7272959
  19.1356164  70.7118602  70.9236938  18.5547693  68.2885288  48.3801545
  19.4166857  68.6140187  48.6397363  18.7398037  67.5016784  47.8674611
  10.5715109  76.3707628  60.6581734   9.8778580  75.9561581  60.1451689
  11.3188100  76.4128165  60.0615153  26.7080330  67.1613815  55.5236768
  26.1278999  67.8198619  55.1414821  26.4416262  66.3391160  55.1124186
  25.1583896  66.5618873  57.7258089  25.6583674  66.6735407  56.9172408
  25.8019504  66.2579925  58.3658897  19.2165892  74.4697502  70.6125930
  18.7332974  75.2697862  70.8189819  19.3026831  74.4805447  69.6593374
  12.4851851  76.3025882  58.5347749  12.4622540  76.4013569  57.5829632
  12.7952488  77.1491033  58.8564915  15.1439229  78.3602037  62.6494364
  16.0982483  78.3285979  62.5824295  14.9451753  77.8992661  63.4644589
  15.7338611  76.9303153  65.2165161  16.5531500  77.4247232  65.2399998
  16.0075419  76.0135121  65.1882729  25.4905208  69.3213905  54.5793117
  24.6031063  69.6063556  54.3613311  25.9059197  69.1607669  53.7320394
  28.8419744  69.3460426  58.2947456  29.6180134  69.8356879  58.5672073
  28.1167878  69.7718481  58.7519325  31.2792302  70.0588046  59.3521397
  31.8736793  69.8183781  58.6414705  31.3518886  69.3395176  59.9794933
  13.4989458  83.9021656  59.6664561  13.3643926  83.1422057  59.1002559
  13.0821520  84.6262556  59.1993350  24.6348421  79.0858580  48.6741137
  25.3384271  79.2908582  49.2898792  23.9111070  79.6535342  48.9390220
  25.4646231  74.8368441  54.7943407  25.4081433  75.2936993  53.9551039
  26.0174574  74.0759126  54.6166250  29.2751037  70.6258173  55.6193526
  29.0187972  70.2254809  56.4501734  28.6503905  71.3401967  55.4943666
  16.6558584  84.7990973  59.8783004  16.5390968  85.7436406  59.7761694
  15.8351030  84.4964535  60.2668803  26.5435119  79.5241109  50.7239597
  27.3780722  79.0922308  50.5417072  26.3819461  79.3523123  51.6516491
  26.1981011  76.0273223  52.0895936  26.1429815  75.8617494  51.1484380
  25.5727066  76.7349255  52.2458126  10.9873526  71.2641287  65.9157358
  11.6332389  70.7540241  66.4044583  10.7790677  72.0009969  66.4900783
  23.5126918  78.3322134  71.4149499  24.3818078  78.5062787  71.0536134
  23.0333669  79.1516551  71.2925228  19.5077136  65.5281332  51.6681254
  19.4955806  66.4723171  51.8249525  20.4000558  65.3451477  51.3740716
  17.6813098  85.4519235  63.0938932  18.5840345  85.4842846  63.4105427
  17.4550468  84.5219686  63.1085268  19.4366700  84.2050222  59.7549011
  18.4862331  84.2052084  59.6413383  19.7399186  83.4582956  59.2385046
  23.3229256  62.1224108  55.9227191  22.5561651  61.5682595  56.0683874
  23.7339961  62.1945977  56.7841343  15.3271017  68.4108904  70.0132372
  16.1902478  68.0545709  70.2235697  14.7536427  68.0722799  70.7007777
  35.1719394  90.0410760  60.8194773  35.8097804  89.9217508  60.1158114
  35.0540237  90.9891604  60.8782726  31.9809100  89.9938188  60.7556298
  31.6427611  89.8779253  59.8676833  32.8498868  89.5929354  60.7357304
  27.8395916  91.8473665  56.7453189  27.2760781  91.7563602  55.9769477
  27.7248311  91.0273569  57.2255682  32.4628883  91.1473040  66.7142504
  32.4517524  90.7525838  65.8423007  32.6249522  90.4139113  67.3076275
  25.3860348  93.3424856  59.5837410  26.1781639  93.0015681  59.1683709
  25.6256998  93.4519831  60.5039563  33.4195474  95.5144633  52.0567654
  32.7683454  96.0998713  51.6701668  34.2139837  96.0450827  52.1162691
  27.3451101  92.6033770  52.4554788  28.1181977  92.0562757  52.3167664
  27.6976500  93.4678019  52.6669250  29.1836144  93.9310152  65.6621688
  28.8926010  94.8355783  65.5468354  29.8193128  93.9726680  66.3765757
  30.1092351  91.3087000  62.2523047  30.7055923  91.0843023  61.5380010
  30.1667322  90.5671746  62.8548495  29.6817379  88.7626436  50.0873238
  29.9342900  88.2407957  49.3256701  28.7441938  88.5992581  50.1899922
  34.7260662  87.7662214  57.8947982  35.5123751  87.3481637  57.5438399
  34.9899366  88.6708306  58.0629630  34.8970739  93.2035064  52.5936638
  34.2616572  93.2769691  53.3057543  34.5668146  93.7928663  51.9155718
  40.1269089  87.7037447  58.7980960  40.8594261  87.1336664  59.0318790
  39.3708445  87.3159048  59.2387466  29.4013668  90.6654542  52.2897613
  29.2849926  89.9899445  52.9578698  29.5115928  90.1786916  51.4729766
  31.7445209  90.1264689  55.9944302  31.3803416  89.5995310  56.7057224
  32.6012325  89.7363158  55.8210788  31.3850696  85.1554589  50.9905651
  31.5525098  86.0234825  51.3576122  31.1947865  85.3181870  50.0666940
  34.1426029  93.6171567  62.6571481  33.8426752  94.5196606  62.5487289
  33.7977089  93.3503751  63.5092634  27.5938511  90.0685364  58.6908186
  26.6689007  89.9361578  58.8985878  27.8422924  90.8479584  59.1878128
  37.5423173  86.1354108  60.3368919  36.6340050  86.0669516  60.0427680
  37.4910769  86.6126053  61.1650744  31.3639917  87.6112246  51.9752318
  31.2439542  88.0569297  52.8137798  30.6692505  87.9597564  51.4165856
  24.9547322  89.7118638  59.5251975  25.0839703  89.9653117  60.4391387
  24.2744773  90.3046346  59.2056630  29.1246809 100.3815888  55.6242449
  29.0470839 101.3323713  55.7030930  28.5208453 100.0361760  56.2817375
  31.6164039  87.5543753  68.2803816  30.8397373  88.1137673  68.2706681
  32.2554602  88.0400536  68.8018686  39.4084819  84.3370546  62.1146793
  38.7659200  84.6303079  61.4686587  38.9039748  84.2223466  62.9199989
  37.0624983  88.0833719  52.8032652  37.9742839  88.3161106  52.6280349
  36.5534630  88.6670763  52.2407730  29.8710411  90.3629207  67.8421783
  30.6125095  90.9014251  67.5656607  29.1647396  90.9895495  67.9993335
  35.3465751  92.5058347  66.4393944  35.7549107  92.0640758  65.6948577
  34.6243012  91.9310975  66.6928137  31.6996821  87.4430954  63.8127501
  32.5458016  87.8670367  63.9562150  31.6395458  86.7864578  64.5066065
  35.6694565  93.0659538  60.1946233  35.0403428  93.2305252  59.4922301
  35.2820227  93.4801147  60.9657197  39.5483797  94.0013976  57.5490597
  38.8634835  94.3812877  56.9987630  39.6327647  94.6109302  58.2822545
  34.8496266  85.1035322  65.4708675  34.6057198  85.8577383  64.9342951
  35.1256197  85.4820670  66.3055922  36.8034729  91.6473935  64.1485941
  37.0151624  92.2905694  63.4720322  36.7564477  90.8136251  63.6807871
  34.4060958  84.2591755  61.0522513  33.5445437  84.5573009  61.3439250
  34.4323392  84.4762154  60.1203545  31.2222527  92.8033946  57.4596318
  31.6860873  93.0821649  56.6700941  30.9579325  91.9017390  57.2769409
  28.1146608  92.3505427  60.3976082  28.6847965  92.7792696  59.7593566
  28.7054720  92.0688012  61.0960267  30.1591413  88.9257098  54.2685884
  30.8615457  89.3778142  54.7359810  29.8272042  88.2840917  54.8965777
  28.6071775  87.5168855  68.6437093  27.9770435  88.1985136  68.8772490
  28.5007863  87.4051936  67.6990231  23.9016747  87.1840651  59.5703017
  23.1115801  87.4398179  59.0943128  24.3927995  87.9988989  59.6755058
  37.9180557  94.5245890  62.3208298  38.7398000  94.1226077  62.0390980
  37.9142960  94.4214124  63.2724414  25.8531493  87.5485230  56.5286494
  25.0562656  87.6603924  57.0469990  25.6257085  87.8871882  55.6627384
  31.6837160  94.0729933  64.4769008  31.7481593  94.5350341  65.3127180
  30.9748084  93.4427298  64.6051318  22.1854450  87.4371141  62.0018008
  22.4362489  88.3218151  62.2675584  22.7213999  87.2575743  61.2293100
  46.0086550  90.8684638  58.6693269  45.2550258  90.2992037  58.5137274
  46.1434091  90.8347303  59.6163904  31.3985178  95.7398041  54.3447989
  31.2630853  96.5849576  54.7732837  31.9394990  95.9417318  53.5813923
  27.8852517  81.8189621  71.0062344  27.4919463  81.2655819  71.6809988
  28.7018658  82.1300199  71.3968862  24.8514575  93.2573479  54.9175914
  25.3639096  94.0516729  55.0681479  25.5037288  92.5599769  54.8509515
  26.6609460  96.3739235  56.9998667  26.8376088  97.2957200  56.8119651
  27.4566293  96.0597654  57.4293047  30.8020478  83.2347500  68.5982601
  31.5430192  83.8354653  68.5187063  31.0338401  82.4925137  68.0400643
  25.9461816  88.4203867  66.8760830  25.8315332  87.5189124  67.1767929
  25.0906334  88.6667564  66.5245647  33.0253654  96.3621607  68.4748331
  32.5817508  95.5757986  68.1569235  33.6870868  96.5500758  67.8092222
  27.7840775  97.8917409  63.0009009  28.3348201  97.7634472  62.2286003
  26.9452251  98.1912298  62.6503902  35.1234892  96.6424407  66.5029732
  35.1053368  97.4633288  66.0110001  36.0454812  96.5178482  66.7279873
  31.5807946  94.1568537  67.3453241  32.1136283  93.3956825  67.1152548
  31.0522028  93.8642188  68.0877395  22.8163492  91.5862133  55.6935484
  23.6538714  91.9959141  55.4769192  22.9941760  90.6461575  55.6635678
  34.7127924  89.2537214  51.3819317  34.1974548  90.0241818  51.6207705
  34.4405233  88.5802350  52.0052379  32.2975035  84.0986915  56.4404556
  31.4416632  83.7093765  56.2610194  32.7101987  84.1778875  55.5804341
  33.8274182  81.6333258  60.8396115  33.3238977  81.5963393  60.0263921
  34.1204789  82.5426001  60.8992772  30.0717068  81.7171988  59.8462297
  30.9370064  81.5214796  59.4868187  30.1394577  81.4882339  60.7731654
  39.6862198  92.0069568  53.3172491  38.9091641  91.6680728  52.8727653
  40.3653679  92.0122192  52.6427456  34.5014227  87.1264306  53.2079099
  34.1964363  87.4410455  54.0589242  35.4544669  87.2045726  53.2506432
  32.9460659  93.2854529  54.8572053  32.4182021  92.5507289  54.5445290
  32.4448162  94.0629206  54.6112021  37.9253505  91.4803550  59.9739099
  37.2677180  92.1702811  60.0619227  38.7293904  91.8699982  60.3173085
  27.6779387  83.9474195  57.2178664  28.2523139  83.7249377  56.4851857
  28.2650369  84.0162890  57.9707265  36.7358964  89.8347922  58.0243041
  37.2490846  90.4677914  58.5264750  37.3860188  89.2349118  57.6586401
  28.0048974  85.9778656  51.2374549  27.1686286  86.3153343  51.5583824
  27.8653744  85.8427636  50.3001686  29.9802054  80.8215444  55.9453733
  29.3266467  80.5064462  55.3210348  29.9382529  80.1991185  56.6713556
  31.0913259  91.1034739  47.8607026  30.1840321  90.8723993  48.0598175
  31.5884291  90.3072359  48.0481007  33.9981338  99.8132247  50.7803712
  33.3243037 100.1163943  51.3888670  34.3847160 100.6161327  50.4309169
  33.2139795  87.3097378  60.2701381  32.2962356  87.5312325  60.1123069
  33.6299938  87.3843688  59.4113088  33.9974843  88.7088794  55.4004061
  34.7446662  89.2210191  55.0911183  34.2666432  88.3872846  56.2608455
  32.2701493  91.2047334  52.3831016  31.3612712  90.9206367  52.4803485
  32.2996577  91.6246413  51.5234323  37.5020760  94.8153924  56.1522183
  37.0483087  93.9744834  56.2087374  36.8714727  95.4515322  56.4896963
  36.4453680  85.7445910  57.3822851  35.7076437  85.2323296  57.7133093
  36.6980453  85.3046291  56.5706128  35.9453699  96.6530420  57.0872001
  36.2376674  97.2135478  56.3684367  36.4552320  96.9458981  57.8425160
  36.5465307  78.5222162  57.9764620  36.8524184  77.6619525  57.6890535
  37.2717912  79.1139782  57.7763614  22.8389663  88.9252848  56.3646218
  22.6414063  88.3322209  55.6397284  22.2836327  88.6205059  57.0822157
  30.8186387  88.8175955  58.4840811  30.8734997  87.8649791  58.4083288
  30.0077589  88.9735394  58.9682109  31.9677581  92.7456078  49.7219094
  31.5297011  92.0291937  49.2624732  32.7088021  92.9732193  49.1604186
  28.7578747  87.4353015  56.2431190  27.9446612  87.7347185  56.6496382
  29.2537741  87.0408703  56.9605672  30.9087325  97.4310772  58.1765455
  30.8663503  97.6571618  57.2473987  31.8250023  97.1974146  58.3251256
  34.3552958  87.8994839  65.0746084  34.7102346  88.1266312  65.9340550
  35.0025090  88.2313216  64.4523339  40.0850695  91.0213275  55.7795413
  39.9468594  91.2114871  54.8516602  39.7286914  91.7832658  56.2363464
  28.2492821  85.0071370  61.8592425  28.8892201  84.8660129  61.1615388
  27.4170352  84.7205884  61.4831027  40.1120075  93.0889802  60.7906684
  40.5456582  92.9965091  61.6389738  40.8251656  93.0647302  60.1526700
  29.0253125  94.3073801  57.9727417  29.8193724  93.8124121  57.7709992
  28.3144818  93.7791664  57.6095123  33.8447970  96.6891896  62.3239785
  33.8984992  97.2582832  63.0917501  32.9762751  96.8593781  61.9593822
  25.3335889  88.4516882  54.0487170  24.4033477  88.3901338  54.2657132
  25.4293361  87.9292835  53.2523811  25.2521438  84.9771695  56.6365412
  25.5128255  85.8917028  56.5274572  26.0738610  84.5096138  56.7862024
  26.7246363  86.3909452  63.8064236  27.3969417  86.1826814  63.1576885
  25.8976150  86.1931538  63.3669468  40.9735625  93.1313503  63.3239570
  41.1671515  94.0359313  63.5698845  40.8736243  92.6720922  64.1578155
  32.6271935  83.0171393  65.8229897  31.9799850  83.7161343  65.7294373
  33.3972951  83.4507537  66.1906145  36.0350733  93.2820245  68.8980450
  35.8836240  93.0530797  67.9810534  36.0255413  94.2390847  68.9111795
  32.8036070  90.8552158  63.8826717  33.7328130  91.0063318  63.7095684
  32.3827100  90.9436179  63.0275363  31.6024401  94.8802823  61.6525254
  31.4635487  94.5121607  62.5251192  30.8138998  95.3950462  61.4809212
  32.1972553  99.9811919  52.9950791  32.3724309  99.5099962  53.8096414
  31.5105341 100.6077685  53.2232052  33.1529617  94.2584425  59.0414092
  32.8179449  94.2185195  59.9371742  32.6533562  93.5929141  58.5684502
  27.1273861  89.6652055  64.5666673  26.9893658  88.9332294  65.1678212
  28.0378784  89.5760955  64.2850861  36.0888808  91.6040460  49.3151152
  35.4717979  90.8787288  49.2184204  35.6205297  92.3649820  48.9718226
  29.7556161  89.3772015  64.0550353  30.4655780  88.7365207  64.0136971
  29.7125469  89.6284909  64.9776534  37.7442940  96.3139368  66.9756932
  37.6855486  95.6298588  66.3087515  38.1462458  97.0558358  66.5237558
  28.4685095  86.3637233  65.8745992  27.9322452  85.9127971  66.5267589
  27.8801804  86.4983141  65.1316457  26.7633639 103.1301282  59.7690651
  27.0030237 103.7619806  60.4469670  25.9202835 102.7789322  60.0556010
  27.8787354  85.8225884  48.4372456  27.0016820  85.7014685  48.0734703
  28.3545107  85.0311962  48.1851345  37.7460347  94.2778952  65.2070912
  36.8587126  93.9404874  65.3297311  38.3158898  93.5461983  65.4439677
  19.3989494  90.6103044  58.5313963  20.0860534  90.2964774  57.9434979
  19.2437623  91.5144408  58.2581215  24.2024216  85.4993240  62.9598987
  24.1182405  84.8918910  62.2249397  23.3806923  85.9902259  62.9608483
  31.2761501  98.9380404  62.1732155  31.2031672  99.7435376  62.6851460
  30.8338894  99.1372370  61.3480176  31.0651280  98.1752174  55.6834977
  30.2818802  98.7173854  55.7773201  31.7644025  98.6926154  56.0829218
  34.3747930  83.9846804  58.3269182  34.8716630  83.2316766  58.0070252
  33.6034912  84.0211120  57.7612391  42.2277688  89.6887169  59.9687473
  42.2167564  90.5711885  59.5981407  41.3595067  89.3358720  59.7742011
  33.7360184  98.8367238  64.3290314  34.4488156  99.4714703  64.2566215
  33.2450213  98.9331104  63.5130316  35.4577711  92.7418491  55.9007605
  34.5233990  92.8619953  55.7312310  35.6354379  91.8390958  55.6367615
  30.9582899  86.1264187  58.0540867  30.5880687  85.5735227  58.7421772
  31.4541991  85.5222320  57.5015867  38.8450262  88.5835810  56.4357640
  39.3110714  89.4163802  56.3617942  39.2957763  88.1180792  57.1402898
  28.7872098  96.5861682  65.1495885  29.4881557  97.2198165  65.3025279
  28.3167213  96.9276413  64.3891524  36.9126493  94.9279632  53.4343792
  37.1886337  94.8136226  54.3437666  36.0430992  94.5297116  53.3955965
  36.5873384  89.1406289  62.9748435  35.9344834  89.3882197  62.3200888
  36.9653763  88.3270427  62.6410912  33.5480557  99.1765982  57.0776605
  33.7302952  98.3587638  57.5404358  34.3713543  99.3933675  56.6401495
  33.8822723  98.1034168  54.3391654  34.4110489  97.5926622  53.7261816
  34.1450942  97.7876698  55.2037187  32.6360957  89.8826100  69.4614472
  31.9601594  89.7820230  70.1316847  33.4588590  89.7265314  69.9250469
  24.3839816  96.1198037  62.0826987  24.9693252  95.3741725  62.2154891
  24.1864654  96.4301994  62.9663651  27.2378471  99.1549284  57.0989430
  26.5688846  99.6395412  56.6153470  27.0991341  99.4018505  58.0132808
  18.9757470  88.6903637  60.8031430  19.0141570  88.1567228  61.5968548
  18.4697763  88.1638843  60.1842408  31.3783739 101.1893028  63.6972088
  31.9302047 101.3524649  64.4621173  31.7189933 101.7797466  63.0252113
  26.3548233  83.5368178  64.2993973  26.4189559  84.3983008  63.8871370
  26.2915353  82.9242179  63.5666331  25.8300505  85.6091310  67.9467007
  26.4572544  85.2268387  68.5604531  24.9728424  85.3905512  68.3122699
  36.2294614  96.0154285  69.5520742  36.7734518  96.6284243  69.0575697
  35.6481459  96.5733864  70.0687755  22.6066048  87.4167739  53.8785362
  22.9019489  86.5078418  53.8252415  21.7054084  87.3955479  53.5566364
  34.5152127  99.1375003  60.6835770  34.3903266  98.3364743  60.1746716
  35.1731218  99.6321197  60.1949740  26.1360295  85.4923736  59.8612910
  25.4146881  86.1059703  59.7220384  26.9253551  86.0281501  59.7829556
  36.5787035  96.9384023  62.3115320  35.6317371  96.8189374  62.2393647
  36.9269808  96.0506521  62.3941582  28.9386608  82.8278162  66.1353562
  29.4621010  83.0740459  66.8979871  28.7198942  83.6598197  65.7156699
  24.3353890  85.0981837  54.0024687  24.0066596  84.2179216  53.8199793
  24.6893260  85.0429506  54.8901076  33.5833468  96.7336740  58.5119672
  33.4358431  95.8053447  58.6927242  34.4086962  96.7556830  58.0276748
  27.4495713  85.3854807  54.3700165  27.7891785  85.9140728  53.6478773
  27.8967833  85.7235213  55.1458731  37.1867590  97.5565298  59.5984545
  38.1114138  97.3508160  59.4608996  37.0182894  97.3081699  60.5073887
  30.1439154  83.7691857  63.8203233  29.8035974  82.9699670  64.2223913
  29.4378160  84.0693568  63.2480066  30.7955625  80.8541170  62.2730556
  31.6181695  80.3801648  62.1509446  31.0393689  81.6331654  62.7729242
  29.4363860  83.8829428  52.5693457  30.1572222  84.2610681  52.0657174
  28.8129164  84.6018305  52.6728435  33.5794983  84.5874577  53.5051790
  33.7958597  85.4699215  53.2040618  33.0989050  84.1960791  52.7757432
  28.3194204  87.5460290  60.0822534  28.1738785  87.8600593  60.9746816
  27.8419408  88.1645191  59.5293433  30.1790587  84.5362838  60.1303424
  30.1652156  83.6403932  59.7935722  30.8963015  84.5433502  60.7641710
  32.0316718  84.9700179  62.1756551  31.7734496  85.8917249  62.1740882
  31.5001758  84.5730613  62.8657015  36.9762906  98.0750966  54.9546637
  37.1499784  97.5097388  54.2020489  37.4691798  98.8751861  54.7726127
  22.7939866  90.0865635  63.0210195  22.2493334  90.8625443  63.1530470
  23.6719216  90.4336439  62.8629317  29.5827483  83.4177219  55.3990994
  29.7043394  82.4893865  55.5981881  29.2929525  83.4315905  54.4869309
  32.4518673  81.1032129  58.5357714  32.4740370  81.1671462  57.5809693
  32.8686732  80.2636638  58.7298220  42.8302298  90.8387389  56.5736936
  43.2733444  90.0894714  56.1756060  41.9528808  90.8297525  56.1910668
  37.9638079  97.3917730  52.0543535  38.6588984  98.0124423  52.2730850
  38.3061229  96.5413081  52.3295913  23.5805888  89.2135531  65.9140352
  22.8387624  89.3618166  66.5004983  23.2598632  89.4743797  65.0507102
  39.8629502  94.8417436  53.5830866  40.3880826  95.1804708  52.8580186
  39.7751855  93.9064451  53.3994000  31.5249551  98.7551509  65.7120742
  31.8336677  98.5100656  66.5843442  32.3225033  98.9598148  65.2239613
  31.5470163 100.9089419  57.9426119  31.1075153 100.4165798  58.6358976
  32.2978280 100.3662387  57.7018194  24.0262502  97.1000960  57.9450747
  24.8520522  96.8004732  57.5649390  23.6756554  96.3308582  58.3940536
  28.9944035  96.4527428  60.0148421  28.3724044  95.7898133  59.7150648
  29.6648902  96.4788560  59.3322068  22.2271107  95.0187286  58.9039681
  21.3903015  94.5909461  58.7223682  22.1994752  95.2119730  59.8410472
  29.0668562  84.9309216  69.6080927  29.1156718  85.8071339  69.2258696
  29.6091077  84.3886609  69.0352570  39.5523408  95.4750339  68.8882064
  38.7618952  95.4574478  68.3486563  39.3156763  96.0138633  69.6431100
  39.6721283  92.3242806  66.2014792  39.7219288  92.1592813  67.1430315
  39.5635207  91.4570065  65.8112673  28.5557542  95.0031351  53.4906881
  28.7045662  95.6866816  52.8373554  29.3623985  94.9836441  54.0056337
  36.9625046  88.3073734  67.5174099  37.8634908  88.1680199  67.2258097
  37.0373020  88.4728189  68.4572276  31.2967851  85.6840588  66.3627285
  30.4271160  85.9774154  66.0909874  31.5327331  86.2681033  67.0834549
  41.1739480  94.7439747  66.4456814  40.8824288  95.1069728  67.2820275
  40.5611611  94.0306755  66.2670146  42.3735162  92.3092627  58.9659384
  43.2082054  92.7482431  59.1296944  42.5094291  91.8331280  58.1467630
  39.4226668  89.8672362  64.9136872  39.8980790  90.0600008  64.1055723
  38.4992234  89.9231548  64.6680255  26.3110175  91.0296529  54.4967950
  26.0656217  90.1258859  54.6948160  26.4806089  91.0313679  53.5547428
  34.0006885  81.9020205  63.8792706  34.5188829  82.6381232  63.5539194
  33.6462018  82.2084199  64.7139465  25.5805822  86.7624887  51.9954111
  24.8875067  86.8369242  51.3394147  25.3357574  85.9985230  52.5175628
  32.0552947  97.4979482  50.9618629  31.4826914  98.1169669  50.5089100
  32.6285741  98.0478843  51.4958550  38.1228337  86.7438122  63.1465177
  39.0745760  86.8436220  63.1677401  37.9531788  85.9516390  63.6563262
  35.2750207  97.7816632  52.0927211  36.2080880  97.7162194  52.2960086
  35.1873420  98.6172899  51.6341743  37.9038224  97.0982502  49.0531158
  37.8251855  96.7642366  49.9466916  38.7247891  97.5904270  49.0522631
  40.6016415  89.9644242  62.2607477  40.5692735  89.0260242  62.4467161
  41.2117039  90.0428278  61.5273302  32.4399746  88.8340295  48.3034681
  33.3858851  88.7046503  48.3723099  32.0613991  88.0954956  48.7804109
  40.7510904  86.7555285  62.3065760  40.2349952  85.9713742  62.1195689
  41.6350852  86.4274002  62.4712280  38.4121630  80.4996301  58.2661573
  38.2146452  80.1911389  59.1504905  39.0221336  81.2257939  58.3959503
  46.4192965  91.0260248  61.4013514  47.1496353  90.7645537  61.9621217
  45.8099910  90.2888970  61.4415582  44.5008262  89.1668111  61.9987965
  43.7741426  89.0324076  61.3904457  44.0855549  89.4744940  62.8044683
  32.3238438  92.8858041  69.7635338  33.2441448  93.0636640  69.9575385
  32.2888021  91.9414086  69.6115037  30.6242663  86.7590271  48.2389566
  29.7174118  86.4623384  48.3152280  30.9018644  86.4620089  47.3723852
  21.5420603  88.0796634  58.6888613  21.2223388  87.2261943  58.3962987
  20.9954032  88.2945212  59.4446580  25.3200511  90.7959075  62.4058119
  25.5386521  91.7276183  62.4246153  25.7326285  90.4367050  63.1912923
  32.2404729  81.3027161  54.3933808  31.4305457  80.9574246  54.7689054
  32.9289146  80.9934704  54.9821419  34.1695277  80.3805207  56.0158104
  34.7226316  80.8000661  56.6748127  34.4065363  79.4540956  56.0581060
  30.1928376  86.3692281  71.7960868  30.0925103  87.3186638  71.7272959
  29.9749918  86.0410520  70.9236938  29.3941448  83.6177206  48.3801545
  30.2560612  83.9432104  48.6397363  29.5791792  82.8308702  47.8674611
  21.4108863  91.6999546  60.6581734  20.7172335  91.2853499  60.1451689
  22.1581854  91.7420082  60.0615153  37.5474084  82.4905733  55.5236768
  36.9672753  83.1490537  55.1414821  37.2810017  81.6683077  55.1124186
  35.9977651  81.8910790  57.7258089  36.4977429  82.0027325  56.9172408
  36.6413258  81.5871843  58.3658897  30.0559646  89.7989420  70.6125930
  29.5726728  90.5989780  70.8189819  30.1420585  89.8097365  69.6593374
  23.3245606  91.6317800  58.5347749  23.3016294  91.7305487  57.5829632
  23.6346242  92.4782950  58.8564915  25.9832984  93.6893955  62.6494364
  26.9376237  93.6577897  62.5824295  25.7845507  93.2284578  63.4644589
  26.5732366  92.2595071  65.2165161  27.3925255  92.7539149  65.2399998
  26.8469174  91.3427039  65.1882729  36.3298962  84.6505823  54.5793117
  35.4424817  84.9355474  54.3613311  36.7452951  84.4899586  53.7320394
  24.3383213  99.2313574  59.6664561  24.2037681  98.4713975  59.1002559
  23.9215275  99.9554474  59.1993350  35.4742176  94.4150498  48.6741137
  36.1778026  94.6200500  49.2898792  34.7504824  94.9827260  48.9390220
  36.3039986  90.1660359  54.7943407  36.2475187  90.6228910  53.9551039
  36.8568328  89.4051044  54.6166250  44.4257130  88.6946164  58.1264818
  43.8656688  88.7639353  58.8996380  43.8200633  88.5187149  57.4064314
  27.4952338 100.1282891  59.8783004  27.3784723 101.0728324  59.7761694
  26.6744785  99.8256453  60.2668803  37.3828873  94.8533027  50.7239597
  38.2174477  94.4214225  50.5417072  37.2213216  94.6815041  51.6516491
  37.0374765  91.3565140  52.0895936  36.9823569  91.1909412  51.1484380
  36.4120820  92.0641173  52.2458126  21.8267280  86.5933205  65.9157358
  22.4726144  86.0832159  66.4044583  21.6184431  87.3301886  66.4900783
  34.3520672  93.6614052  71.4149499  35.2211832  93.8354704  71.0536134
  33.8727424  94.4808469  71.2925228  30.3470891  80.8573249  51.6681254
  30.3349561  81.8015089  51.8249525  31.2394313  80.6743395  51.3740716
  28.5206853 100.7811153  63.0938932  29.4234099 100.8134763  63.4105427
  28.2944223  99.8511604  63.1085268  30.2760455  99.5342140  59.7549011
  29.3256086  99.5344001  59.6413383  30.5792941  98.7874874  59.2385046
  26.1664771  83.7400822  70.0132372  27.0296233  83.3837626  70.2235697
  25.5930182  83.4014716  70.7007777  46.0113148 105.3702678  60.8194773
  46.6491558 105.2509425  60.1158114  45.8933991 106.3183522  60.8782726
  42.8202854 105.3230106  60.7556298  42.4821366 105.2071171  59.8676833
  43.6892623 104.9221271  60.7357304  38.6789670 107.1765583  56.7453189
  38.1154535 107.0855519  55.9769477  38.5642065 106.3565487  57.2255682
  43.3022637 106.4764958  66.7142504  43.2911278 106.0817756  65.8423007
  43.4643277 105.7431030  67.3076275  36.2254102 108.6716774  59.5837410
  37.0175394 108.3307599  59.1683709  36.4650752 108.7811749  60.5039563
  44.2589229 110.8436550  52.0567654  43.6077209 111.4290631  51.6701668
  45.0533592 111.3742745  52.1162691  38.1844856 107.9325687  52.4554788
  38.9575732 107.3854674  52.3167664  38.5370255 108.7969937  52.6669250
  40.0229899 109.2602070  65.6621688  39.7319765 110.1647700  65.5468354
  40.6586883 109.3018597  66.3765757  40.9486105 106.6378918  62.2523047
  41.5449678 106.4134941  61.5380010  41.0061077 105.8963664  62.8548495
  40.5211134 104.0918353  50.0873238  40.7736654 103.5699875  49.3256701
  39.5835693 103.9284499  50.1899922  45.5654417 103.0954132  57.8947982
  46.3517506 102.6773555  57.5438399  45.8293121 104.0000224  58.0629630
  45.7364494 108.5326982  52.5936638  45.1010327 108.6061609  53.3057543
  45.4061900 109.1220581  51.9155718  50.9662844 103.0329365  58.7980960
  51.6988016 102.4628582  59.0318790  50.2102199 102.6450965  59.2387466
  40.2407423 105.9946459  52.2897613  40.1243681 105.3191363  52.9578698
  40.3509682 105.5078833  51.4729766  42.5838963 105.4556607  55.9944302
  42.2197171 104.9287228  56.7057224  43.4406079 105.0655076  55.8210788
  48.4888264  96.7450939  63.2575569  48.1571589  97.6146350  63.0336784
  47.8933877  96.4287223  63.9369599  42.2244450 100.4846506  50.9905651
  42.3918853 101.3526743  51.3576122  42.0341620 100.6473788  50.0666940
  44.9819784 108.9463485  62.6571481  44.6820507 109.8488524  62.5487289
  44.6370843 108.6795668  63.5092634  38.4332265 105.3977282  58.6908186
  37.5082762 105.2653496  58.8985878  38.6816678 106.1771501  59.1878128
  48.3816927 101.4646025  60.3368919  47.4733805 101.3961434  60.0427680
  48.3304523 101.9417970  61.1650744  42.2033671 102.9404164  51.9752318
  42.0833297 103.3861214  52.8137798  41.5086260 103.2889481  51.4165856
  35.7941076 105.0410556  59.5251975  35.9233457 105.2945034  60.4391387
  35.1138527 105.6338264  59.2056630  42.4557793 102.8835671  68.2803816
  41.6791127 103.4429591  68.2706681  43.0948356 103.3692454  68.8018686
  50.2478574  99.6662464  62.1146793  49.6052954  99.9594997  61.4686587
  49.7433502  99.5515384  62.9199989  47.9018737 103.4125637  52.8032652
  48.8136594 103.6453024  52.6280349  47.3928385 103.9962681  52.2407730
  40.7104165 105.6921124  67.8421783  41.4518850 106.2306168  67.5656607
  40.0041151 106.3187413  67.9993335  46.1859505 107.8350265  66.4393944
  46.5942861 107.3932675  65.6948577  45.4636767 107.2602892  66.6928137
  42.5390575 102.7722872  63.8127501  43.3851770 103.1962285  63.9562150
  42.4789213 102.1156496  64.5066065  46.5088320 108.3951455  60.1946233
  45.8797182 108.5597169  59.4922301  46.1213982 108.8093065  60.9657197
  50.3877552 109.3305893  57.5490597  49.7028590 109.7104795  56.9987630
  50.4721401 109.9401220  58.2822545  45.6890021 100.4327240  65.4708675
  45.4450952 101.1869300  64.9342951  45.9649951 100.8112587  66.3055922
  47.6428483 106.9765852  64.1485941  47.8545379 107.6197612  63.4720322
  47.5958232 106.1428169  63.6807871  45.2454712  99.5883673  61.0522513
  44.3839191  99.8864926  61.3439250  45.2717147  99.8054072  60.1203545
  42.0616282 108.1325863  57.4596318  42.5254627 108.4113566  56.6700941
  41.7973080 107.2309308  57.2769409  38.9540363 107.6797345  60.3976082
  39.5241720 108.1084613  59.7593566  39.5448475 107.3979930  61.0960267
  40.9985168 104.2549016  54.2685884  41.7009211 104.7070059  54.7359810
  40.6665796 103.6132835  54.8965777  39.4465529 102.8460772  68.6437093
  38.8164190 103.5277053  68.8772490  39.3401617 102.7343854  67.6990231
  34.7410502 102.5132568  59.5703017  33.9509556 102.7690097  59.0943128
  35.2321749 103.3280906  59.6755058  48.7574311 109.8537808  62.3208298
  49.5791755 109.4517995  62.0390980  48.7536714 109.7506042  63.2724414
  36.6925247 102.8777148  56.5286494  35.8956410 102.9895842  57.0469990
  36.4650839 103.2163800  55.6627384  42.5230915 109.4021851  64.4769008
  42.5875347 109.8642258  65.3127180  41.8141839 108.7719216  64.6051318
  33.0248205 102.7663059  62.0018008  33.2756243 103.6510069  62.2675584
  33.5607753 102.5867660  61.2293100  56.8480304 106.1976556  58.6693269
  56.0944013 105.6283954  58.5137274  56.9827845 106.1639221  59.6163904
  42.2378932 111.0689958  54.3447989  42.1024607 111.9141494  54.7732837
  42.7788745 111.2709236  53.5813923  38.7246272  97.1481538  71.0062344
  38.3313218  96.5947737  71.6809988  39.5412412  97.4592117  71.3968862
  35.6908330 108.5865396  54.9175914  36.2032850 109.3808647  55.0681479
  36.3431043 107.8891687  54.8509515  37.5003214 111.7031153  56.9998667
  37.6769843 112.6249117  56.8119651  38.2960048 111.3889572  57.4293047
  41.6414233  98.5639417  68.5982601  42.3823946  99.1646571  68.5187063
  41.8732156  97.8217055  68.0400643  36.7855571 103.7495785  66.8760830
  36.6709086 102.8481042  67.1767929  35.9300089 103.9959481  66.5245647
  43.8647409 111.6913525  68.4748331  43.4211263 110.9049904  68.1569235
  44.5264622 111.8792675  67.8092222  38.6234530 113.2209327  63.0009009
  39.1741955 113.0926390  62.2286003  37.7846006 113.5204216  62.6503902
  45.9628647 111.9716325  66.5029732  45.9447122 112.7925206  66.0110001
  46.8848567 111.8470400  66.7279873  42.4201701 109.4860454  67.3453241
  42.9530038 108.7248743  67.1152548  41.8915782 109.1934106  68.0877395
  45.5871396  94.5920520  62.8746882  45.2435665  95.4822162  62.7985993
  45.9550359  94.4022178  62.0116467  33.6557247 106.9154051  55.6935484
  34.4932469 107.3251059  55.4769192  33.8335514 105.9753493  55.6635678
  45.5521679 104.5829131  51.3819317  45.0368302 105.3533736  51.6207705
  45.2798987 103.9094268  52.0052379  43.1368790  99.4278832  56.4404556
  42.2810386  99.0385683  56.2610194  43.5495741  99.5070793  55.5804341
  44.6667936  96.9625175  60.8396115  44.1632732  96.9255311  60.0263921
  44.9598543  97.8717918  60.8992772  40.9110822  97.0463905  59.8462297
  41.7763819  96.8506714  59.4868187  40.9788331  96.8174257  60.7731654
  50.5255953 107.3361486  53.3172491  49.7485396 106.9972646  52.8727653
  51.2047434 107.3414109  52.6427456  45.3407982 102.4556224  53.2079099
  45.0358117 102.7702373  54.0589242  46.2938424 102.5337643  53.2506432
  43.7854414 108.6146447  54.8572053  43.2575775 107.8799206  54.5445290
  43.2841916 109.3921123  54.6112021  48.7647260 106.8095467  59.9739099
  48.1070934 107.4994729  60.0619227  49.5687659 107.1991899  60.3173085
  38.5173141  99.2766113  57.2178664  39.0916893  99.0541295  56.4851857
  39.1044124  99.3454808  57.9707265  47.5752718 105.1639840  58.0243041
  48.0884600 105.7969832  58.5264750  48.2253942 104.5641036  57.6586401
  38.8442728 101.3070574  51.2374549  38.0080041 101.6445261  51.5583824
  38.7047498 101.1719554  50.3001686  40.8195809  96.1507362  55.9453733
  40.1660221  95.8356379  55.3210348  40.7776283  95.5283102  56.6713556
  41.9307014 106.4326657  47.8607026  41.0234076 106.2015911  48.0598175
  42.4278046 105.6364276  48.0481007  44.8375093 115.1424164  50.7803712
  44.1636791 115.4455861  51.3888670  45.2240915 115.9453245  50.4309169
  44.0533549 102.6389296  60.2701381  43.1356111 102.8604243  60.1123069
  44.4693693 102.7135606  59.4113088  44.8368597 104.0380711  55.4004061
  45.5840416 104.5502108  55.0911183  45.1060187 103.7164764  56.2608455
  43.1095247 106.5339252  52.3831016  42.2006467 106.2498285  52.4803485
  43.1390331 106.9538331  51.5234323  48.3414515 110.1445841  56.1522183
  47.8876842 109.3036751  56.2087374  47.7108481 110.7807240  56.4896963
  47.2847434 101.0737828  57.3822851  46.5470191 100.5615214  57.7133093
  47.5374208 100.6338209  56.5706128  46.7847454 111.9822338  57.0872001
  47.0770428 112.5427395  56.3684367  47.2946074 112.2750899  57.8425160
  47.3859062  93.8514080  57.9764620  47.6917938  92.9911443  57.6890535
  48.1111666  94.4431700  57.7763614  33.6783418 104.2544766  56.3646218
  33.4807817 103.6614127  55.6397284  33.1230082 103.9496976  57.0822157
  41.6580141 104.1467873  58.4840811  41.7128751 103.1941709  58.4083288
  40.8471343 104.3027312  58.9682109  42.8071335 108.0747996  49.7219094
  42.3690765 107.3583855  49.2624732  43.5481776 108.3024110  49.1604186
  39.5972501 102.7644932  56.2431190  38.7840367 103.0639103  56.6496382
  40.0931495 102.3700621  56.9605672  41.7481079 112.7602689  58.1765455
  41.7057258 112.9863536  57.2473987  42.6643778 112.5266064  58.3251256
  45.1946713 103.2286757  65.0746084  45.5496101 103.4558230  65.9340550
  45.8418844 103.5605134  64.4523339  50.9244450 106.3505193  55.7795413
  50.7862348 106.5406789  54.8516602  50.5680669 107.1124575  56.2363464
  39.0886576 100.3363288  61.8592425  39.7285955 100.1952047  61.1615388
  38.2564107 100.0497801  61.4831027  50.9513829 108.4181720  60.7906684
  51.3850336 108.3257009  61.6389738  51.6645410 108.3939220  60.1526700
  39.8646880 109.6365718  57.9727417  40.6587478 109.1416038  57.7709992
  39.1538572 109.1083581  57.6095123  44.6841724 112.0183814  62.3239785
  44.7378747 112.5874750  63.0917501  43.8156506 112.1885699  61.9593822
  36.1729643 103.7808800  54.0487170  35.2427231 103.7193255  54.2657132
  36.2687115 103.2584753  53.2523811  36.0915192 100.3063613  56.6365412
  36.3522010 101.2208946  56.5274572  36.9132365  99.8388055  56.7862024
  37.5640118 101.7201370  63.8064236  38.2363171 101.5118732  63.1576885
  36.7369904 101.5223456  63.3669468  51.8129379 108.4605420  63.3239570
  52.0065269 109.3651231  63.5698845  51.7129997 108.0012839  64.1578155
  43.4665690  98.3463311  65.8229897  42.8193605  99.0453261  65.7294373
  44.2366705  98.7799455  66.1906145  46.8744488 108.6112163  68.8980450
  46.7229994 108.3822715  67.9810534  46.8649167 109.5682765  68.9111795
  43.6429824 106.1844076  63.8826717  44.5721884 106.3355235  63.7095684
  43.2220854 106.2728097  63.0275363  42.4418156 110.2094740  61.6525254
  42.3029242 109.8413525  62.5251192  41.6532752 110.7242380  61.4809212
  43.0366308 115.3103837  52.9950791  43.2118064 114.8391880  53.8096414
  42.3499096 115.9369603  53.2232052  43.9923371 109.5876343  59.0414092
  43.6573204 109.5477113  59.9371742  43.4927317 108.9221059  58.5684502
  37.9667615 104.9943973  64.5666673  37.8287413 104.2624212  65.1678212
  38.8772538 104.9052873  64.2850861  46.9282563 106.9332377  49.3151152
  46.3111733 106.2079205  49.2184204  46.4599051 107.6941738  48.9718226
  40.5949916 104.7063932  64.0550353  41.3049534 104.0657124  64.0136971
  40.5519224 104.9576827  64.9776534  48.5836694 111.6431286  66.9756932
  48.5249240 110.9590506  66.3087515  48.9856213 112.3850276  66.5237558
  39.3078850 101.6929150  65.8745992  38.7716207 101.2419889  66.5267589
  38.7195558 101.8275059  65.1316457  38.7181109 101.1517802  48.4372456
  37.8410575 101.0306602  48.0734703  39.1938862 100.3603880  48.1851345
  48.5854102 109.6070870  65.2070912  47.6980880 109.2696791  65.3297311
  49.1552653 108.8753901  65.4439677  30.2383249 105.9394961  58.5313963
  30.9254289 105.6256691  57.9434979  30.0831377 106.8436326  58.2581215
  35.0417971 100.8285158  62.9598987  34.9576160 100.2210827  62.2249397
  34.2200677 101.3194176  62.9608483  42.1155255 114.2672322  62.1732155
  42.0425426 115.0727293  62.6851460  41.6732648 114.4664288  61.3480176
  41.9045035 113.5044092  55.6834977  41.1212557 114.0465772  55.7773201
  42.6037780 114.0218072  56.0829218  45.2141685  99.3138721  58.3269182
  45.7110384  98.5608684  58.0070252  44.4428666  99.3503038  57.7612391
  53.0671442 105.0179087  59.9687473  53.0561318 105.9003802  59.5981407
  52.1988822 104.6650638  59.7742011  44.5753939 114.1659156  64.3290314
  45.2881911 114.8006621  64.2566215  44.0843967 114.2623022  63.5130316
  46.2971465 108.0710409  55.9007605  45.3627744 108.1911871  55.7312310
  46.4748134 107.1682875  55.6367615  41.7976653 101.4556104  58.0540867
  41.4274441 100.9027145  58.7421772  42.2935746 100.8514238  57.5015867
  49.6844017 103.9127728  56.4357640  50.1504469 104.7455720  56.3617942
  50.1351517 103.4472709  57.1402898  39.6265852 111.9153599  65.1495885
  40.3275312 112.5490082  65.3025279  39.1560967 112.2568331  64.3891524
  47.7520248 110.2571549  53.4343792  48.0280092 110.1428144  54.3437666
  46.8824747 109.8589034  53.3955965  47.6560680  96.2808315  60.4748541
  46.7423759  96.5112542  60.6430748  48.0853781  96.3646759  61.3262573
  47.4267138 104.4698207  62.9748435  46.7738588 104.7174114  62.3200888
  47.8047518 103.6562345  62.6410912  44.3874312 114.5057900  57.0776605
  44.5696706 113.6879556  57.5404358  45.2107298 114.7225592  56.6401495
  44.7216477 113.4326085  54.3391654  45.2504244 112.9218540  53.7261816
  44.9844697 113.1168615  55.2037187  43.4754711 105.2118018  69.4614472
  42.7995348 105.1112147  70.1316847  44.2982345 105.0557232  69.9250469
  35.2233570 111.4489954  62.0826987  35.8087007 110.7033642  62.2154891
  35.0258409 111.7593911  62.9663651  29.8151225 104.0195555  60.8031430
  29.8535324 103.4859145  61.5968548  29.3091518 103.4930760  60.1842408
  37.1941987  98.8660095  64.2993973  37.2583314  99.7274926  63.8871370
  37.1309107  98.2534097  63.5666331  36.6694260 100.9383228  67.9467007
  37.2966298 100.5560305  68.5604531  35.8122179 100.7197430  68.3122699
  47.0688368 111.3446203  69.5520742  47.6128272 111.9576161  69.0575697
  46.4875213 111.9025781  70.0687755  33.4459802 102.7459657  53.8785362
  33.7413244 101.8370335  53.8252415  32.5447838 102.7247396  53.5566364
  45.3545881 114.4666921  60.6835770  45.2297021 113.6656661  60.1746716
  46.0124972 114.9613114  60.1949740  36.9754049 100.8215653  59.8612910
  36.2540635 101.4351621  59.7220384  37.7647305 101.3573418  59.7829556
  47.4180790 112.2675941  62.3115320  46.4711125 112.1481292  62.2393647
  47.7663563 111.3798439  62.3941582  39.7780363  98.1570080  66.1353562
  40.3014765  98.4032376  66.8979871  39.5592696  98.9890115  65.7156699
  35.1747644 100.4273754  54.0024687  34.8460350  99.5471133  53.8199793
  35.5287015 100.3721423  54.8901076  44.4227223 112.0628657  58.5119672
  44.2752185 111.1345365  58.6927242  45.2480716 112.0848748  58.0276748
  38.2889467 100.7146724  54.3700165  38.6285540 101.2432646  53.6478773
  38.7361588 101.0527130  55.1458731  48.0261345 112.8857216  59.5984545
  48.9507892 112.6800077  59.4608996  47.8576648 112.6373617  60.5073887
  40.9832908  99.0983775  63.8203233  40.6429728  98.2991588  64.2223913
  40.2771914  99.3985486  63.2480066  41.6349380  96.1833087  62.2730556
  42.4575449  95.7093566  62.1509446  41.8787443  96.9623571  62.7729242
  40.2757614  99.2121346  52.5693457  40.9965977  99.5902599  52.0657174
  39.6522918  99.9310223  52.6728435  44.4188737  99.9166495  53.5051790
  44.6352352 100.7991133  53.2040618  43.9382804  99.5252708  52.7757432
  39.1587959 102.8752208  60.0822534  39.0132539 103.1892511  60.9746816
  38.6813162 103.4937108  59.5293433  41.0184341  99.8654756  60.1303424
  41.0045910  98.9695849  59.7935722  41.7356770  99.8725420  60.7641710
  42.8710472 100.2992096  62.1756551  42.6128250 101.2209167  62.1740882
  42.3395513  99.9022531  62.8657015  47.8156661 113.4042883  54.9546637
  47.9893538 112.8389306  54.2020489  48.3085552 114.2043778  54.7726127
  33.6333621 105.4157552  63.0210195  33.0887089 106.1917360  63.1530470
  34.5112971 105.7628357  62.8629317  40.4221237  98.7469136  55.3990994
  40.5437149  97.8185783  55.5981881  40.1323280  98.7607822  54.4869309
  43.2912428  96.4324047  58.5357714  43.3134125  96.4963380  57.5809693
  43.7080487  95.5928555  58.7298220  53.6696052 106.1679306  56.5736936
  54.1127198 105.4186632  56.1756060  52.7922562 106.1589443  56.1910668
  48.8031833 112.7209648  52.0543535  49.4982738 113.3416340  52.2730850
  49.1454984 111.8704999  52.3295913  34.4199643 104.5427449  65.9140352
  33.6781379 104.6910084  66.5004983  34.0992387 104.8035714  65.0507102
  50.7023257 110.1709353  53.5830866  51.2274581 110.5096626  52.8580186
  50.6145609 109.2356369  53.3994000  42.3643305 114.0843427  65.7120742
  42.6730432 113.8392574  66.5843442  43.1618787 114.2890065  65.2239613
  34.8656256 112.4292877  57.9450747  35.6914276 112.1296649  57.5649390
  34.5150308 111.6600500  58.3940536  39.8337789 111.7819346  60.0148421
  39.2117799 111.1190051  59.7150648  40.5042656 111.8080478  59.3322068
  33.0664861 110.3479204  58.9039681  32.2296770 109.9201378  58.7223682
  33.0388507 110.5411647  59.8410472  39.9062317 100.2601134  69.6080927
  39.9550472 101.1363257  69.2258696  40.4484831  99.7178527  69.0352570
  50.3917163 110.8042257  68.8882064  49.6012706 110.7866396  68.3486563
  50.1550517 111.3430551  69.6431100  50.5115038 107.6534723  66.2014792
  50.5613043 107.4884731  67.1430315  50.4028961 106.7861982  65.8112673
  39.3951296 110.3323269  53.4906881  39.5439417 111.0158733  52.8373554
  40.2017740 110.3128359  54.0056337  47.8018800 103.6365651  67.5174099
  48.7028663 103.4972116  67.2258097  47.8766775 103.8020106  68.4572276
  42.1361605 101.0132506  66.3627285  41.2664915 101.3066072  66.0909874
  42.3721086 101.5972951  67.0834549  52.0133234 110.0731665  66.4456814
  51.7218043 110.4361645  67.2820275  51.4005366 109.3598673  66.2670146
  53.2128917 107.6384545  58.9659384  54.0475808 108.0774349  59.1296944
  53.3488046 107.1623198  58.1467630  50.2620423 105.1964279  64.9136872
  50.7374544 105.3891926  64.1055723  49.3385988 105.2523465  64.6680255
  37.1503929 106.3588447  54.4967950  36.9049971 105.4550777  54.6948160
  37.3199844 106.3605597  53.5547428  44.8400639  97.2312123  63.8792706
  45.3582583  97.9673150  63.5539194  44.4855772  97.5376116  64.7139465
  36.4199577 102.0916804  51.9954111  35.7268822 102.1661159  51.3394147
  36.1751329 101.3277148  52.5175628  45.0913233  93.6512406  59.3993602
  45.3714987  92.9835595  60.0254029  45.8763840  93.8441501  58.8868266
  42.8946702 112.8271399  50.9618629  42.3220669 113.4461587  50.5089100
  43.4679496 113.3770761  51.4958550  48.9622092 102.0730040  63.1465177
  49.9139515 102.1728137  63.1677401  48.7925542 101.2808308  63.6563262
  46.9836471  99.1585623  63.3324578  46.3886403  99.4390635  62.6371067
  46.6986168  99.6479524  64.1041319  46.1143962 113.1108550  52.0927211
  47.0474635 113.0454111  52.2960086  46.0267174 113.9464816  51.6341743
  48.7431978 112.4274420  49.0531158  48.6645610 112.0934284  49.9466916
  49.5641645 112.9196188  49.0522631  51.4410170 105.2936159  62.2607477
  51.4086490 104.3552160  62.4467161  52.0510793 105.3720196  61.5273302
  43.2793500 104.1632212  48.3034681  44.2252605 104.0338420  48.3723099
  42.9007745 103.4246874  48.7804109  51.5904658 102.0847203  62.3065760
  51.0743707 101.3005659  62.1195689  52.4744607 101.7565919  62.4712280
  49.2515385  95.8288218  58.2661573  49.0540206  95.5203306  59.1504905
  49.8615090  96.5549857  58.3959503  57.2586719 106.3552166  61.4013514
  57.9890108 106.0937454  61.9621217  56.6493665 105.6180888  61.4415582
  55.3402016 104.4960029  61.9987965  54.6135180 104.3615994  61.3904457
  54.9249303 104.8036857  62.8044683  43.1632193 108.2149958  69.7635338
  44.0835202 108.3928557  69.9575385  43.1281776 107.2706004  69.6115037
  41.4636418 102.0882189  48.2389566  40.5567873 101.7915301  48.3152280
  41.7412399 101.7912007  47.3723852  32.3814358 103.4088552  58.6888613
  32.0617142 102.5553860  58.3962987  31.8347786 103.6237130  59.4446580
  36.1594265 106.1250993  62.4058119  36.3780275 107.0568101  62.4246153
  36.5720039 105.7658967  63.1912923  43.0798483  96.6319078  54.3933808
  42.2699212  96.2866163  54.7689054  43.7682900  96.3226622  54.9821419
  45.0089032  95.7097125  56.0158104  45.5620070  96.1292579  56.6748127
  45.2459118  94.7832873  56.0581060  41.0322131 101.6984199  71.7960868
  40.9318858 102.6478556  71.7272959  40.8143673 101.3702438  70.9236938
  40.2335202  98.9469124  48.3801545  41.0954366  99.2724022  48.6397363
  40.4185546  98.1600620  47.8674611  32.2502618 107.0291464  60.6581734
  31.5566089 106.6145416  60.1451689  32.9975609 107.0712000  60.0615153
  48.3867839  97.8197650  55.5236768  47.8066508  98.4782454  55.1414821
  48.1203771  96.9974995  55.1124186  46.8371405  97.2202708  57.7258089
  47.3371183  97.3319243  56.9172408  47.4807013  96.9163761  58.3658897
  40.8953401 105.1281338  70.6125930  40.4120483 105.9281698  70.8189819
  40.9814340 105.1389282  69.6593374  34.1639360 106.9609717  58.5347749
  34.1410049 107.0597405  57.5829632  34.4739997 107.8074868  58.8564915
  36.8226738 109.0185872  62.6494364  37.7769992 108.9869815  62.5824295
  36.6239262 108.5576496  63.4644589  37.4126120 107.5886988  65.2165161
  38.2319009 108.0831067  65.2399998  37.6862928 106.6718957  65.1882729
  47.1692717  99.9797741  54.5793117  46.2818572 100.2647391  54.3613311
  47.5846706  99.8191504  53.7320394  50.5207253 100.0044262  58.2947456
  51.2967643 100.4940714  58.5672073  49.7955387 100.4302316  58.7519325
  52.9579811 100.7171881  59.3521397  53.5524302 100.4767617  58.6414705
  53.0306395  99.9979011  59.9794933  46.3135930 109.7442415  48.6741137
  47.0171780 109.9492418  49.2898792  45.5898579 110.3119177  48.9390220
  47.1433740 105.4952277  54.7943407  47.0868942 105.9520828  53.9551039
  47.6962083 104.7342961  54.6166250  50.9538546 101.2842008  55.6193526
  50.6975481 100.8838644  56.4501734  50.3291414 101.9985802  55.4943666
  55.2650884 104.0238082  58.1264818  54.7050442 104.0931271  58.8996380
  54.6594388 103.8479066  57.4064314  48.2222628 110.1824945  50.7239597
  49.0568231 109.7506143  50.5417072  48.0606970 110.0106958  51.6516491
  47.8768520 106.6857058  52.0895936  47.8217323 106.5201329  51.1484380
  47.2514575 107.3933091  52.2458126  32.6661035 101.9225122  65.9157358
  33.3119898 101.4124076  66.4044583  32.4578186 102.6593804  66.4900783
  45.1914427 108.9905970  71.4149499  46.0605587 109.1646622  71.0536134
  44.7121178 109.8100387  71.2925228  41.1864645  96.1865167  51.6681254
  41.1743315  97.1307007  51.8249525  42.0788067  96.0035312  51.3740716
  41.1154209 114.8634057  59.7549011  40.1649840 114.8635919  59.6413383
  41.4186695 114.1166792  59.2385046  45.0016765  92.7807943  55.9227191
  44.2349160  92.2266430  56.0683874  45.4127470  92.8529812  56.7841343
  37.0058526  99.0692739  70.0132372  37.8689987  98.7129544  70.2235697
  36.4323936  98.7306634  70.7007777  56.4048171 118.4246050  57.8947982
  57.1911260 118.0065473  57.5438399  56.6686875 119.3292142  58.0629630
  61.8056598 118.3621283  58.7980960  62.5381770 117.7920500  59.0318790
  61.0495954 117.9742883  59.2387466  59.3282019 112.0742857  63.2575569
  58.9965343 112.9438268  63.0336784  58.7327632 111.7579141  63.9369599
  53.0638205 115.8138424  50.9905651  53.2312607 116.6818660  51.3576122
  52.8735374 115.9765706  50.0666940  59.2210682 116.7937943  60.3368919
  58.3127559 116.7253351  60.0427680  59.1698278 117.2709888  61.1650744
  53.0427426 118.2696081  51.9752318  52.9227051 118.7153132  52.8137798
  52.3480014 118.6181399  51.4165856  53.2951548 118.2127589  68.2803816
  52.5184882 118.7721509  68.2706681  53.9342111 118.6984372  68.8018686
  61.0872328 114.9954381  62.1146793  60.4446709 115.2886915  61.4686587
  60.5827257 114.8807302  62.9199989  58.7412492 118.7417555  52.8032652
  59.6530348 118.9744941  52.6280349  58.2322139 119.3254599  52.2407730
  53.3784330 118.1014789  63.8127501  54.2245525 118.5254203  63.9562150
  53.3182967 117.4448413  64.5066065  56.5283775 115.7619158  65.4708675
  56.2844707 116.5161218  64.9342951  56.8043706 116.1404505  66.3055922
  56.0848467 114.9175591  61.0522513  55.2232946 115.2156844  61.3439250
  56.1110901 115.1345989  60.1203545  67.6874059 121.5268474  58.6693269
  66.9337767 120.9575872  58.5137274  67.8221600 121.4931138  59.6163904
  49.5640026 112.4773456  71.0062344  49.1706972 111.9239655  71.6809988
  50.3806167 112.7884034  71.3968862  52.4807987 113.8931335  68.5982601
  53.2217701 114.4938488  68.5187063  52.7125910 113.1508973  68.0400643
  56.4265150 109.9212438  62.8746882  56.0829420 110.8114080  62.7985993
  56.7944113 109.7314096  62.0116467  56.3915433 119.9121049  51.3819317
  55.8762057 120.6825654  51.6207705  56.1192742 119.2386185  52.0052379
  53.9762544 114.7570750  56.4404556  53.1204140 114.3677600  56.2610194
  54.3889496 114.8362711  55.5804341  55.5061691 112.2917093  60.8396115
  55.0026486 112.2547228  60.0263921  55.7992298 113.2009836  60.8992772
  51.7504577 112.3755823  59.8462297  52.6157573 112.1798632  59.4868187
  51.8182086 112.1466175  60.7731654  61.3649707 122.6653404  53.3172491
  60.5879150 122.3264563  52.8727653  62.0441188 122.6706027  52.6427456
  56.1801736 117.7848141  53.2079099  55.8751872 118.0994290  54.0589242
  57.1332178 117.8629561  53.2506432  49.3566896 114.6058031  57.2178664
  49.9310648 114.3833212  56.4851857  49.9437878 114.6746725  57.9707265
  58.4146473 120.4931758  58.0243041  58.9278355 121.1261750  58.5264750
  59.0647697 119.8932953  57.6586401  49.6836483 116.6362492  51.2374549
  48.8473795 116.9737178  51.5583824  49.5441252 116.5011472  50.3001686
  51.6589563 111.4799280  55.9453733  51.0053976 111.1648297  55.3210348
  51.6170038 110.8575020  56.6713556  54.8927304 117.9681213  60.2701381
  53.9749865 118.1896160  60.1123069  55.3087447 118.0427524  59.4113088
  55.6762352 119.3672629  55.4004061  56.4234171 119.8794026  55.0911183
  55.9453941 119.0456682  56.2608455  58.1241189 116.4029745  57.3822851
  57.3863946 115.8907131  57.7133093  58.3767962 115.9630127  56.5706128
  58.2252816 109.1805997  57.9764620  58.5311693 108.3203361  57.6890535
  58.9505421 109.7723617  57.7763614  50.4366256 118.0936850  56.2431190
  49.6234121 118.3931021  56.6496382  50.9325250 117.6992539  56.9605672
  56.0340467 118.5578674  65.0746084  56.3889855 118.7850148  65.9340550
  56.6812599 118.8897051  64.4523339  61.7638204 121.6797110  55.7795413
  61.6256103 121.8698706  54.8516602  61.4074423 122.4416493  56.2363464
  49.9280330 115.6655206  61.8592425  50.5679710 115.5243965  61.1615388
  49.0957861 115.3789719  61.4831027  46.9308947 115.6355531  56.6365412
  47.1915764 116.5500864  56.5274572  47.7526119 115.1679973  56.7862024
  48.4033872 117.0493288  63.8064236  49.0756926 116.8410650  63.1576885
  47.5763659 116.8515374  63.3669468  54.3059444 113.6755229  65.8229897
  53.6587359 114.3745178  65.7294373  55.0760460 114.1091373  66.1906145
  50.1472604 117.0221068  65.8745992  49.6109961 116.5711806  66.5267589
  49.5589313 117.1566977  65.1316457  49.5574863 116.4809719  48.4372456
  48.6804329 116.3598520  48.0734703  50.0332616 115.6895798  48.1851345
  45.8811725 116.1577076  62.9598987  45.7969914 115.5502745  62.2249397
  45.0594432 116.6486094  62.9608483  56.0535439 114.6430639  58.3269182
  56.5504139 113.8900601  58.0070252  55.2822421 114.6794956  57.7612391
  63.9065197 120.3471005  59.9687473  63.8955073 121.2295720  59.5981407
  63.0382576 119.9942555  59.7742011  52.6370408 116.7848022  58.0540867
  52.2668196 116.2319062  58.7421772  53.1329500 116.1806156  57.5015867
  60.5237771 119.2419646  56.4357640  60.9898223 120.0747637  56.3617942
  60.9745272 118.7764627  57.1402898  58.4954434 111.6100233  60.4748541
  57.5817514 111.8404459  60.6430748  58.9247535 111.6938677  61.3262573
  58.2660893 119.7990125  62.9748435  57.6132343 120.0466032  62.3200888
  58.6441272 118.9854263  62.6410912  48.0335742 114.1952013  64.2993973
  48.0977068 115.0566844  63.8871370  47.9702862 113.5826015  63.5666331
  47.5088014 116.2675145  67.9467007  48.1360053 115.8852223  68.5604531
  46.6515933 116.0489347  68.3122699  47.8147804 116.1507571  59.8612910
  47.0934390 116.7643539  59.7220384  48.6041060 116.6865336  59.7829556
  50.6174117 113.4861998  66.1353562  51.1408519 113.7324294  66.8979871
  50.3986451 114.3182032  65.7156699  46.0141399 115.7565672  54.0024687
  45.6854105 114.8763051  53.8199793  46.3680769 115.7013341  54.8901076
  49.1283222 116.0438642  54.3700165  49.4679294 116.5724563  53.6478773
  49.5755342 116.3819048  55.1458731  51.8226662 114.4275693  63.8203233
  51.4823483 113.6283506  64.2223913  51.1165669 114.7277404  63.2480066
  52.4743134 111.5125005  62.2730556  53.2969204 111.0385483  62.1509446
  52.7181198 112.2915489  62.7729242  51.1151369 114.5413264  52.5693457
  51.8359731 114.9194516  52.0657174  50.4916673 115.2602140  52.6728435
  55.2582492 115.2458413  53.5051790  55.4746106 116.1283050  53.2040618
  54.7776559 114.8544626  52.7757432  51.8578096 115.1946674  60.1303424
  51.8439665 114.2987767  59.7935722  52.5750524 115.2017337  60.7641710
  53.7104227 115.6284014  62.1756551  53.4522004 116.5501085  62.1740882
  53.1789267 115.2314448  62.8657015  51.2614992 114.0761054  55.3990994
  51.3830903 113.1477700  55.5981881  50.9717034 114.0899740  54.4869309
  54.1306182 111.7615964  58.5357714  54.1527879 111.8255298  57.5809693
  54.5474241 110.9220473  58.7298220  64.5089807 121.4971224  56.5736936
  64.9520953 120.7478549  56.1756060  63.6316317 121.4881360  56.1910668
  50.7456071 115.5893051  69.6080927  50.7944227 116.4655174  69.2258696
  51.2878586 115.0470444  69.0352570  58.6412555 118.9657569  67.5174099
  59.5422417 118.8264034  67.2258097  58.7160529 119.1312024  68.4572276
  52.9755360 116.3424424  66.3627285  52.1058669 116.6357990  66.0909874
  53.2114840 116.9264869  67.0834549  64.0522671 122.9676462  58.9659384
  64.8869563 123.4066266  59.1296944  64.1881800 122.4915116  58.1467630
  61.1014177 120.5256197  64.9136872  61.5768299 120.7183843  64.1055723
  60.1779743 120.5815383  64.6680255  55.6794394 112.5604041  63.8792706
  56.1976338 113.2965068  63.5539194  55.3249526 112.8668034  64.7139465
  47.2593331 117.4208722  51.9954111  46.5662576 117.4953077  51.3394147
  47.0145083 116.6569066  52.5175628  55.9306988 108.9804323  59.3993602
  56.2108742 108.3127512  60.0254029  56.7157595 109.1733419  58.8868266
  59.8015846 117.4021957  63.1465177  60.7533269 117.5020055  63.1677401
  59.6319297 116.6100226  63.6563262  57.8230226 114.4877540  63.3324578
  57.2280158 114.7682553  62.6371067  57.5379922 114.9771441  64.1041319
  62.2803924 120.6228077  62.2607477  62.2480244 119.6844078  62.4467161
  62.8904548 120.7012114  61.5273302  54.1187255 119.4924130  48.3034681
  55.0646360 119.3630338  48.3723099  53.7401500 118.7538792  48.7804109
  62.4298412 117.4139120  62.3065760  61.9137461 116.6297577  62.1195689
  63.3138361 117.0857837  62.4712280  60.0909139 111.1580136  58.2661573
  59.8933961 110.8495224  59.1504905  60.7008845 111.8841775  58.3959503
  68.0980474 121.6844084  61.4013514  68.8283862 121.4229372  61.9621217
  67.4887419 120.9472806  61.4415582  66.1795771 119.8251946  61.9987965
  65.4528935 119.6907911  61.3904457  65.7643058 120.1328775  62.8044683
  52.3030172 117.4174106  48.2389566  51.3961627 117.1207219  48.3152280
  52.5806153 117.1203924  47.3723852  53.9192238 111.9610996  54.3933808
  53.1092966 111.6158081  54.7689054  54.6076655 111.6518540  54.9821419
  55.8482786 111.0389043  56.0158104  56.4013825 111.4584496  56.6748127
  56.0852872 110.1124791  56.0581060  51.8715885 117.0276116  71.7960868
  51.7712612 117.9770473  71.7272959  51.6537427 116.6994355  70.9236938
  51.0728957 114.2761042  48.3801545  51.9348121 114.6015940  48.6397363
  51.2579301 113.4892537  47.8674611  59.2261593 113.1489568  55.5236768
  58.6460262 113.8074372  55.1414821  58.9597526 112.3266913  55.1124186
  57.6765159 112.5494626  57.7258089  58.1764938 112.6611160  56.9172408
  58.3200767 112.2455679  58.3658897  58.0086471 115.3089658  54.5793117
  57.1212326 115.5939309  54.3613311  58.4240460 115.1483422  53.7320394
  61.3601007 115.3336179  58.2947456  62.1361397 115.8232632  58.5672073
  60.6349141 115.7594234  58.7519325  63.7973566 116.0463799  59.3521397
  64.3918057 115.8059535  58.6414705  63.8700150 115.3270929  59.9794933
  57.9827495 120.8244194  54.7943407  57.9262696 121.2812746  53.9551039
  58.5355837 120.0634879  54.6166250  61.7932301 116.6133926  55.6193526
  61.5369235 116.2130562  56.4501734  61.1685169 117.3277720  55.4943666
  66.1044639 119.3529999  58.1264818  65.5444197 119.4223189  58.8996380
  65.4988142 119.1770984  57.4064314  52.0258400 111.5157085  51.6681254
  52.0137069 112.4598924  51.8249525  52.9181822 111.3327230  51.3740716
  55.8410519 108.1099861  55.9227191  55.0742915 107.5558348  56.0683874
  56.2521224 108.1821730  56.7841343  47.8452280 114.3984657  70.0132372
  48.7083742 114.0421462  70.2235697  47.2717691 114.0598552  70.7007777
  69.0646571 124.5097915  57.9764620  69.3705447 123.6495278  57.6890535
  69.7899175 125.1015535  57.7763614  66.7700742 124.3096241  59.3993602
  67.0502496 123.6419430  60.0254029  67.5551349 124.5025337  58.8868266
  66.6804274 123.4391779  55.9227191  65.9136669 122.8850266  56.0683874
  67.0914979 123.5113648  56.7841343   2.6538131  21.0597130  47.5440080
   3.2916541  20.9403877  46.8403420   2.5358974  22.0077974  47.6028032
   2.2079400  18.7848584  44.6193288   2.9942489  18.3668007  44.2683705
   2.4718104  19.6894676  44.7874937   2.3789477  24.2221434  39.3181945
   1.7435310  24.2956061  40.0302850   2.0486884  24.8115033  38.6401024
   7.6087827  18.7223817  45.5226267   8.3412999  18.1523034  45.7564096
   6.8527183  18.3345417  45.9632772   1.6244767  24.6357937  49.3816788
   1.3245490  25.5382976  49.2732595   1.2795826  24.3690120  50.2337941
   5.0241911  17.1540477  47.0614225   4.1158788  17.0855886  46.7672986
   4.9729506  17.6312422  47.8896051   6.8903557  15.3556916  48.8392099
   6.2477937  15.6489449  48.1931894   6.3858486  15.2409836  49.6445296
   4.5443721  19.1020089  39.5277959   5.4561577  19.3347476  39.3525656
   4.0353368  19.6857133  38.9653037   2.8284488  23.5244717  53.1639251
   3.2367844  23.0827127  52.4193883   2.1061750  22.9497344  53.4173444
   3.1513303  24.0845907  46.9191540   2.5222166  24.2491621  46.2167608
   2.7638965  24.4987517  47.6902504   7.0302535  25.0200345  44.2735904
   6.3453573  25.3999246  43.7232937   7.1146384  25.6295672  45.0067851
   4.2853467  22.6660304  50.8731247   4.4970362  23.3092064  50.1965628
   4.2383215  21.8322621  50.4053177   5.3999295  25.5432260  49.0453605
   6.2216738  25.1412447  48.7636286   5.3961697  25.4400494  49.9969720
  13.4905288  21.8871008  45.3938576  12.7368996  21.3178406  45.2382580
  13.6252829  21.8533673  46.3409211   2.6053630  27.6610777  53.2275039
   2.5872105  28.4819658  52.7355308   3.5273550  27.5364852  53.4525180
   2.1946662  20.2723583  38.1064624   1.6793285  21.0428188  38.3453011
   1.9223970  19.5988719  38.7297685   7.1680936  23.0255938  40.0417797
   6.3910379  22.6867097  39.5972960   7.8472417  23.0308561  39.3672763
   1.9832965  18.1450675  39.9324405   1.6783101  18.4596825  40.7834548
   2.9363407  18.2232095  39.9751738   5.4072243  22.4989919  46.6984405
   4.7495917  23.1889181  46.7864534   6.2112642  22.8886351  47.0418392
   4.2177702  20.8534292  44.7488347   4.7309584  21.4864284  45.2510057
   4.8678926  20.2535487  44.3831707   1.4800076  30.8318616  37.5049018
   0.8061775  31.1350313  38.1133976   1.8665898  31.6347697  37.1554475
   1.4793580  19.7275163  42.1249368   2.2265399  20.2396560  41.8156490
   1.7485170  19.4059216  42.9853762   4.9839498  25.8340293  42.8767490
   4.5301825  24.9931203  42.9332680   4.3533465  26.4701692  43.2142270
   3.9272418  16.7632279  44.1068157   3.1895174  16.2509666  44.4378400
   4.1799191  16.3232661  43.2951434   3.4272437  27.6716790  43.8117308
   3.7195412  28.2321847  43.0929674   3.9371058  27.9645351  44.5670467
   1.8371696  18.9181209  51.7991390   2.1921084  19.1452682  52.6585856
   2.4843827  19.2499585  51.1768646   7.5669433  22.0399645  42.5040719
   7.4287332  22.2301241  41.5761909   7.2105652  22.8019027  42.9608771
   7.5938813  24.1076172  47.5151991   8.0275319  24.0151461  48.3635045
   8.3070393  24.0833672  46.8772007   1.3266708  27.7078266  49.0485092
   1.3803730  28.2769202  49.8162807   0.4581489  27.8780151  48.6839129
   8.4554362  24.1499872  50.0484876   8.6490252  25.0545683  50.2944151
   8.3554980  23.6907291  50.8823461   3.5169471  24.3006615  55.6225757
   3.3654977  24.0717167  54.7055841   3.5074150  25.2577216  55.6357102
   3.5707546  22.6226829  36.0396458   2.9536717  21.8973657  35.9429511
   3.1024034  23.3836189  35.6963533   5.2261678  27.3325738  53.7002239
   5.1674224  26.6484958  53.0332822   5.6281196  28.0744728  53.2482865
   5.2279085  25.2965321  51.9316218   4.3405864  24.9591243  52.0542617
   5.7977636  24.5648353  52.1684984   9.7096425  20.7073539  46.6932780
   9.6986302  21.5898254  46.3226713   8.8413805  20.3545090  46.4987317
   1.2178922  29.8553608  51.0535620   1.9306894  30.4901073  50.9811522
   0.7268950  29.9517474  50.2375622   2.9396449  23.7604861  42.6252912
   2.0052727  23.8806323  42.4557616   3.1173117  22.8577327  42.3612922
   6.3269000  19.6022180  43.1602946   6.7929452  20.4350171  43.0863249
   6.7776501  19.1367161  43.8648205   4.3945231  25.9466001  40.1589098
   4.6705075  25.8322596  41.0682972   3.5249730  25.5483486  40.1201271
   4.0692121  20.1592659  49.6993742   3.4163572  20.4068566  49.0446194
   4.4472501  19.3456797  49.3656219   1.0299295  30.1952352  43.8021912
   1.2121690  29.3774008  44.2649664   1.8532281  30.4120044  43.3646802
   1.3641461  29.1220537  41.0636960   1.8929227  28.6112992  40.4507122
   1.6269680  28.8063067  41.9282493   3.7113352  27.0340655  56.2766049
   4.2553256  27.6470613  55.7821004   3.1300196  27.5920233  56.7933062
   1.9970864  30.1561373  47.4081077   1.8722004  29.3551113  46.8992022
   2.6549956  30.6507566  46.9195047   4.0605773  27.9570393  49.0360627
   3.1136108  27.8375744  48.9638954   4.4088546  27.0692891  49.1186888
   1.0652206  27.7523109  45.2364979   0.9177169  26.8239817  45.4172549
   1.8905700  27.7743200  44.7522054   4.6686328  28.5751668  46.3229852
   5.5932875  28.3694529  46.1854303   4.5001631  28.3268069  47.2319193
   4.4581644  29.0937335  41.6791943   4.6318522  28.5283758  40.9265796
   4.9510535  29.8938230  41.4971433  10.3121035  21.8573758  43.2982243
  10.7552181  21.1081083  42.9001366   9.4347546  21.8483895  42.9155975
   5.4456817  28.4104100  38.7788842   6.1407721  29.0310792  38.9976156
   5.7879967  27.5599451  39.0541219   7.3448240  25.8603805  40.3076172
   7.8699564  26.1991078  39.5825492   7.2570592  24.9250821  40.1239307
   7.0342146  26.4936709  55.6127370   6.2437690  26.4760848  55.0731870
   6.7975500  27.0325003  56.3676407   7.1540021  23.3429175  52.9260099
   7.2038026  23.1779183  53.8675622   7.0453944  22.4756434  52.5357980
   4.4443783  19.3260103  54.2419406   5.3453646  19.1866568  53.9503403
   4.5191758  19.4914558  55.1817583   8.6558218  25.7626117  53.1702120
   8.3643026  26.1256097  54.0065581   8.0430349  25.0493125  52.9915452
   9.8553900  23.3278997  45.6904691  10.6900791  23.7668801  45.8542251
   9.9913029  22.8517650  44.8712936   6.9045406  20.8858731  51.6382178
   7.3799528  21.0786378  50.8301030   5.9810971  20.9417917  51.3925562
   5.6047075  17.7624491  49.8710484   6.5564498  17.8622589  49.8922708
   5.4350525  16.9702760  50.3808568   2.7568945  28.8003001  38.8172517
   3.6899618  28.7348563  39.0205393   2.6692158  29.6359268  38.3587050
   5.3856962  28.1168872  35.7776465   5.3070593  27.7828735  36.6712223
   6.2066628  28.6090640  35.7767937   8.0835153  20.9830611  48.9852784
   8.0511473  20.0446612  49.1712467   8.6935776  21.0614648  48.2518608
   8.2329641  17.7741655  49.0311067   7.7168690  16.9900111  48.8440996
   9.1169590  17.4460371  49.1957586  13.9011703  22.0446618  48.1258820
  14.6315091  21.7831906  48.6866524  13.2918648  21.3075340  48.1660888
  11.9827000  20.1854481  48.7233272  11.2560163  20.0510446  48.1149763
  11.5674287  20.4931309  49.5289990   3.8117700  15.6692193  41.3038423
   2.9243555  15.9541843  41.0858618   4.2271689  15.5085956  40.4565700
   7.1632236  15.6938714  45.0192763   7.9392626  16.1835166  45.2917379
   6.4380370  16.1196768  45.4764632   9.6004795  16.4066333  46.0766703
  10.1949286  16.1662069  45.3660011   9.6731378  15.6873463  46.7040239
   2.9560913  25.4336867  35.3986443   3.6596764  25.6386870  36.0144099
   2.2323562  26.0013629  35.6635527   3.7858724  21.1846729  41.5188713
   3.7293925  21.6415280  40.6796346   4.3387066  20.4237413  41.3411556
   7.5963530  16.9736460  42.3438833   7.3400464  16.5733096  43.1747041
   6.9716398  17.6880254  42.2188972  11.9075867  19.7132534  44.8510124
  11.3475425  19.7825723  45.6241686  11.3019371  19.5373518  44.1309621
   4.8647611  25.8719396  37.4484903   5.6993215  25.4400595  37.2662378
   4.7031954  25.7001410  38.3761798   4.5193503  22.3751510  38.8141243
   4.4642307  22.2095781  37.8729687   3.8939558  23.0827543  38.9703432
   1.8339410  24.6800422  58.1394805   2.7030570  24.8541074  57.7781440
   1.3546162  25.4994838  58.0170535  13.4931886  36.3889048  47.5440080
  14.1310296  36.2695795  46.8403420  13.3752729  37.3369892  47.6028032
  10.3021592  36.3416476  47.4801605   9.9640104  36.2257540  46.5922140
  11.1711360  35.9407641  47.4602611   6.1608408  38.1951952  43.4698496
   5.5973273  38.1041889  42.7014784   6.0460803  37.3751857  43.9500988
  10.7841375  37.4951327  53.4387810  10.7730016  37.1004126  52.5668314
  10.9462015  36.7617400  54.0321582   3.7072840  39.6903144  46.3082716
   4.4994132  39.3493968  45.8929016   3.9469490  39.7998119  47.2284870
  11.7407967  41.8622920  38.7812961  11.0895946  42.4477000  38.3946974
  12.5352329  42.3929115  38.8407998   5.6663594  38.9512057  39.1800095
   6.4394470  38.4041044  39.0412971   6.0188993  39.8156306  39.3914556
   7.5048636  40.2788439  52.3866994   7.2138502  41.1834070  52.2713661
   8.1405621  40.3204967  53.1011064   8.4304843  37.6565288  48.9768354
   9.0268415  37.4321310  48.2625317   8.4879815  36.9150033  49.5793802
   8.0029872  35.1104723  36.8118545   8.2555392  34.5886244  36.0502008
   7.0654431  34.9470868  36.9145229  13.0473154  34.1140501  44.6193288
  13.8336244  33.6959925  44.2683705  13.3111859  35.0186594  44.7874937
  13.2183232  39.5513352  39.3181945  12.5829065  39.6247978  40.0302850
  12.8880638  40.1406951  38.6401024  18.4481582  34.0515735  45.5226267
  19.1806753  33.4814951  45.7564096  17.6920937  33.6637335  45.9632772
   7.7226160  37.0132829  39.0142920   7.6062418  36.3377732  39.6824004
   7.8328420  36.5265203  38.1975073  10.0657701  36.4742976  42.7189609
   9.7015908  35.9473597  43.4302531  10.9224817  36.0841445  42.5456095
  15.9707002  27.7637309  49.9820875  15.6390327  28.6332720  49.7582090
  15.3752615  27.4473593  50.6614906   9.7063188  31.5032876  37.7150958
   9.8737591  32.3713112  38.0821429   9.5160357  31.6660157  36.7912247
  12.4638521  39.9649855  49.3816788  12.1639244  40.8674894  49.2732595
  12.1189581  39.6982038  50.2337941   5.9151003  36.4163652  45.4153492
   4.9901499  36.2839866  45.6231184   6.1635416  37.1957871  45.9123435
  15.8635665  32.4832395  47.0614225  14.9552543  32.4147803  46.7672986
  15.8123261  32.9604340  47.8896051   9.6852409  33.9590533  38.6997624
   9.5652034  34.4047584  39.5383105   8.9904997  34.3075851  38.1411163
   3.2759814  36.0596925  46.2497281   3.4052195  36.3131404  47.1636693
   2.5957265  36.6524633  45.9301937   7.4459301  46.7294175  42.3487756
   7.3683331  47.6802000  42.4276236   6.8420945  46.3840048  43.0062682
   9.9376531  33.9022040  55.0049123   9.1609865  34.4615961  54.9951987
  10.5767094  34.3878823  55.5263993  17.7297312  30.6848833  48.8392099
  17.0871692  30.9781366  48.1931894  17.2252240  30.5701754  49.6445296
  15.3837475  34.4312006  39.5277959  16.2955331  34.6639393  39.3525656
  14.8747122  35.0149051  38.9653037   8.1922903  36.7107494  54.5667090
   8.9337588  37.2492538  54.2901913   7.4859889  37.3373783  54.7238641
  13.6678243  38.8536634  53.1639251  14.0761599  38.4119045  52.4193883
  12.9455504  38.2789262  53.4173444  10.0209313  33.7909241  50.5372808
  10.8670508  34.2148655  50.6807457   9.9607951  33.1342865  51.2311371
  13.9907058  39.4137825  46.9191540  13.3615920  39.5783539  46.2167608
  13.6032720  39.8279434  47.6902504  17.8696289  40.3492263  44.2735904
  17.1847328  40.7291164  43.7232937  17.9540139  40.9587589  45.0067851
  13.1708758  31.4513609  52.1953982  12.9269690  32.2055670  51.6588257
  13.4468689  31.8298957  53.0301229  15.1247221  37.9952222  50.8731247
  15.3364116  38.6383982  50.1965628  15.0776969  37.1614538  50.4053177
  12.7273450  30.6070042  47.7767819  11.8657929  30.9051296  48.0684557
  12.7535885  30.8240441  46.8448852   9.5435019  39.1512233  44.1841625
  10.0073365  39.4299936  43.3946248   9.2791818  38.2495678  44.0014716
   6.4359101  38.6983715  47.1221388   7.0060458  39.1270983  46.4838873
   7.0267212  38.4166299  47.8205574   8.4803906  35.2735385  40.9931190
   9.1827949  35.7256429  41.4605117   8.1484534  34.6319204  41.6211083
   6.9284267  33.8647142  55.3682400   6.2982928  34.5463423  55.6017796
   6.8220355  33.7530224  54.4235538   2.2229239  33.5318938  46.2948324
   1.4328293  33.7876467  45.8188434   2.7140487  34.3467276  46.4000364
  16.2393049  40.8724177  49.0453605  17.0610493  40.4704364  48.7636286
  16.2355452  40.7692411  49.9969720   4.1743985  33.8963517  43.2531800
   3.3775148  34.0082212  43.7715296   3.9469577  34.2350170  42.3872691
  10.0049652  40.4208221  51.2014315  10.0694085  40.8828628  52.0372487
   9.2960576  39.7905585  51.3296625   0.5066942  33.7849428  48.7263315
   0.7574981  34.6696438  48.9920891   1.0426491  33.6054030  47.9538406
  24.3299042  37.2162926  45.3938576  23.5762750  36.6470324  45.2382580
  24.4646583  37.1825590  46.3409211   9.7197670  42.0876328  41.0693295
   9.5843345  42.9327864  41.4978143  10.2607483  42.2895606  40.3059229
   6.2065010  28.1667908  57.7307651   5.8131955  27.6134106  58.4055295
   7.0231150  28.4778486  58.1214168   3.1727068  39.6051766  41.6421221
   3.6851588  40.3995016  41.7926785   3.8249780  38.9078056  41.5754822
   4.9821952  42.7217522  43.7243974   5.1588581  43.6435487  43.5364958
   5.7778786  42.4075942  44.1538353   9.1232971  29.5825787  55.3227907
   9.8642684  30.1832940  55.2432370   9.3550894  28.8403425  54.7645950
   4.2674309  34.7682154  53.6006137   4.1527824  33.8667411  53.9013236
   3.4118827  35.0145851  53.2490953  11.3466147  42.7099895  55.1993638
  10.9030001  41.9236273  54.8814542  12.0083360  42.8979045  54.5337528
   6.1053268  44.2395696  49.7254316   6.6560693  44.1112759  48.9531310
   5.2664744  44.5390585  49.3749209  13.4447385  42.9902694  53.2275039
  13.4265860  43.8111575  52.7355308  14.3667305  42.8656770  53.4525180
   9.9020439  40.5046824  54.0698547  10.4348776  39.7435112  53.8397855
   9.3734520  40.2120476  54.8122702  13.0690134  25.6106890  49.5992189
  12.7254403  26.5008532  49.5231299  13.4369096  25.4208548  48.7361774
   1.1375984  37.9340420  42.4180791   1.9751206  38.3437429  42.2014499
   1.3154252  36.9939863  42.3880985  13.0340416  35.6015501  38.1064624
  12.5187040  36.3720106  38.3453011  12.7617725  34.9280637  38.7297685
  10.6187527  30.4465202  43.1649862   9.7629124  30.0572052  42.9855501
  11.0314479  30.5257163  42.3049648  12.1486674  27.9811545  47.5641422
  11.6451470  27.9441680  46.7509227  12.4417281  28.8904288  47.6238079
   8.3929560  28.0650275  46.5707604   9.2582557  27.8693083  46.2113493
   8.4607069  27.8360627  47.4976961  18.0074691  38.3547856  40.0417797
  17.2304133  38.0159015  39.5972960  18.6866172  38.3600479  39.3672763
  12.8226720  33.4742593  39.9324405  12.5176855  33.7888742  40.7834548
  13.7757162  33.5524013  39.9751738  11.2673151  39.6332816  41.5817359
  10.7394513  38.8985576  41.2690597  10.7660654  40.4107493  41.3357327
  16.2465997  37.8281837  46.6984405  15.5889672  38.5181098  46.7864534
  17.0506397  38.2178269  47.0418392   5.9991879  30.2952483  43.9423971
   6.5735631  30.0727664  43.2097164   6.5862861  30.3641177  44.6952572
  15.0571456  36.1826210  44.7488347  15.5703338  36.8156201  45.2510057
  15.7072680  35.5827405  44.3831707   6.3261466  32.3256944  37.9619856
   5.4898778  32.6631630  38.2829131   6.1866236  32.1905924  37.0246993
   8.3014547  27.1693732  42.6699040   7.6478959  26.8542749  42.0455655
   8.2595021  26.5469472  43.3958863   9.4125752  37.4513027  34.5852332
   8.5052813  37.2202280  34.7843481   9.9096784  36.6550646  34.7726314
  12.3193830  46.1610534  37.5049018  11.6455529  46.4642231  38.1133976
  12.7059652  46.9639614  37.1554475  11.5352287  33.6575665  46.9946688
  10.6174848  33.8790612  46.8368376  11.9512431  33.7321976  46.1358395
  12.3187335  35.0567081  42.1249368  13.0659154  35.5688478  41.8156490
  12.5878924  34.7351134  42.9853762  10.5913985  37.5525622  39.1076322
   9.6825204  37.2684654  39.2048792  10.6209069  37.9724700  38.2479629
  15.8233252  41.1632211  42.8767490  15.3695580  40.3223121  42.9332680
  15.1927219  41.7993609  43.2142270  14.7666172  32.0924197  44.1068157
  14.0288929  31.5801583  44.4378400  15.0192946  31.6524579  43.2951434
  14.2666192  43.0008708  43.8117308  14.5589166  43.5613765  43.0929674
  14.7764812  43.2937269  44.5670467  14.8677799  24.8700449  44.7009927
  15.1736676  24.0097812  44.4135842  15.5930404  25.4618069  44.5008920
   1.1602155  35.2731136  43.0891524   0.9626555  34.6800496  42.3642591
   0.6048819  34.9683346  43.8067463   9.1398879  35.1654242  45.2086118
   9.1947489  34.2128079  45.1328594   8.3290081  35.3213681  45.6927416
  10.2890073  39.0934365  36.4464401   9.8509503  38.3770224  35.9870038
  11.0300514  39.3210480  35.8849492   7.0791239  33.7831302  42.9676496
   6.2659105  34.0825472  43.3741689   7.5750233  33.3886991  43.6850979
   9.2299817  43.7789059  44.9010761   9.1875996  44.0049905  43.9719293
  10.1462516  43.5452433  45.0496562  12.6765451  34.2473126  51.7991390
  13.0314838  34.4744599  52.6585856  13.3237582  34.5791503  51.1768646
  18.4063188  37.3691562  42.5040719  18.2681086  37.5593158  41.5761909
  18.0499406  38.1310945  42.9608771   6.5705314  31.3549657  48.5837731
   7.2104693  31.2138417  47.8860695   5.7382844  31.0684171  48.2076333
  18.4332567  39.4368089  47.5151991  18.8669074  39.3443378  48.3635045
  19.1464148  39.4125590  46.8772007   7.3465618  40.6552088  44.6972724
   8.1406216  40.1602408  44.4955299   6.6357310  40.1269951  44.3340429
  12.1660462  43.0370183  49.0485092  12.2197484  43.6061120  49.8162807
  11.2975244  43.2072068  48.6839129   3.6548381  34.7995170  40.7732477
   2.7245969  34.7379625  40.9902439   3.7505853  34.2771122  39.9769118
   3.5733930  31.3249982  43.3610718   3.8340747  32.2395316  43.2519879
   4.3951103  30.8574425  43.5107331   5.0458856  32.7387740  50.5309543
   5.7181909  32.5305102  49.8822192   4.2188642  32.5409826  50.0914775
  19.2948117  39.4791790  50.0484876  19.4884007  40.3837600  50.2944151
  19.1948735  39.0199209  50.8823461  10.9484428  29.3649680  52.5475204
  10.3012343  30.0639630  52.4539680  11.7185443  29.7985824  52.9151452
  14.3563225  39.6298533  55.6225757  14.2048732  39.4009084  54.7055841
  14.3467905  40.5869134  55.6357102  11.1248562  37.2030445  50.6072023
  12.0540622  37.3541605  50.4340991  10.7039592  37.2914466  49.7520670
   9.9236894  41.2281110  48.3770561   9.7847979  40.8599894  49.2496499
   9.1351490  41.7428749  48.2054519  10.5185046  46.3290206  39.7196098
  10.6936801  45.8578249  40.5341720   9.8317834  46.9555972  39.9477358
  11.4742109  40.6062713  45.7659399  11.1391941  40.5663482  46.6617049
  10.9746054  39.9407428  45.2929809   5.4486353  36.0130343  51.2911980
   5.3106151  35.2810581  51.8923519   6.3591276  35.9239243  51.0096168
  14.4101300  37.9518747  36.0396458  13.7930471  37.2265575  35.9429511
  13.9417789  38.7128107  35.6963533   8.0768653  35.7250302  50.7795660
   8.7868272  35.0843494  50.7382278   8.0337962  35.9763197  51.7021840
  16.0655432  42.6617655  53.7002239  16.0067978  41.9776875  53.0332822
  16.4674951  43.4036645  53.2482865   6.7897587  32.7115520  52.5991299
   6.2534944  32.2606258  53.2512895   6.2014296  32.8461429  51.8561763
   5.0846131  49.4779569  46.4935958   5.3242729  50.1098093  47.1714976
   4.2415327  49.1267609  46.7801317   6.1999846  32.1704171  35.1617763
   5.3229313  32.0492972  34.7980009   6.6757599  31.3790249  34.9096651
  16.0672839  40.6257239  51.9316218  15.1799618  40.2883161  52.0542617
  16.6371390  39.8940270  52.1684984   2.5236709  31.8471527  49.6844294
   2.4394897  31.2397197  48.9494704   1.7019415  32.3380546  49.6853790
   9.5973993  45.2858691  48.8977462   9.5244164  46.0913663  49.4096766
   9.1551386  45.4850657  48.0725483   9.3863772  44.5230462  42.4080283
   8.6031294  45.0652142  42.5018508  10.0856518  45.0404441  42.8074524
  12.6960423  30.3325091  45.0514489  13.1929122  29.5795053  44.7315559
  11.9247404  30.3689408  44.4857698  20.5490180  36.0365457  46.6932780
  20.5380056  36.9190172  46.3226713  19.6807559  35.6837007  46.4987317
  12.0572676  45.1845526  51.0535620  12.7700649  45.8192990  50.9811522
  11.5662705  45.2809392  50.2375622  13.7790203  39.0896778  42.6252912
  12.8446482  39.2098241  42.4557616  13.9566872  38.1869245  42.3612922
   9.2795391  32.4742474  44.7786173   8.9093179  31.9213514  45.4667079
   9.7754484  31.8700607  44.2261173  17.1662755  34.9314097  43.1602946
  17.6323207  35.7642089  43.0863249  17.6170255  34.4659079  43.8648205
   7.1084590  42.9339969  51.8741191   7.8094049  43.5676452  52.0270585
   6.6379705  43.2754701  51.1136830  15.2338986  41.2757919  40.1589098
  15.5098830  41.1614513  41.0682972  14.3643484  40.8775404  40.1201271
  15.1379417  27.2994684  47.1993847  14.2242497  27.5298911  47.3676054
  15.5672519  27.3833129  48.0507880  14.9085876  35.4884576  49.6993742
  14.2557326  35.7360484  49.0446194  15.2866256  34.6748715  49.3656219
  11.8693050  45.5244270  43.8021912  12.0515444  44.7065926  44.2649664
  12.6926036  45.7411962  43.3646802  12.2035215  44.4512455  41.0636960
  12.7322982  43.9404909  40.4507122  12.4663435  44.1354985  41.9282493
  10.9573449  36.2304387  56.1859779  10.2814086  36.1298517  56.8562154
  11.7801083  36.0743601  56.6495776   2.7052308  42.4676324  48.8072294
   3.2905745  41.7220012  48.9400198   2.5077146  42.7780281  49.6908958
   5.5590963  45.5027571  43.8234736   4.8901338  45.9873699  43.3398776
   5.4203833  45.7496792  44.7378115   9.6996232  47.5371315  50.4217395
  10.2514540  47.7002936  51.1866480  10.0402425  48.1275753  49.7497419
   4.6760725  29.8846465  51.0239279   4.7402051  30.7461296  50.6116677
   4.6127845  29.2720466  50.2911638   4.1512997  31.9569597  54.6712314
   4.7785036  31.5746675  55.2849838   3.2940916  31.7383799  55.0368006
  14.5507106  42.3632572  56.2766049  15.0947010  42.9762531  55.7821004
  13.9693951  42.9212151  56.7933062  12.8364619  45.4853290  47.4081077
  12.7115758  44.6843030  46.8992022  13.4943710  45.9799484  46.9195047
   4.4572787  31.8402023  46.5858217   3.7359373  32.4537991  46.4465690
   5.2466043  32.3759788  46.5074863  14.8999527  43.2862311  49.0360627
  13.9529863  43.1667662  48.9638954  15.2482300  42.3984809  49.1186888
   7.2599101  29.1756449  52.8598869   7.7833503  29.4218746  53.6225178
   7.0411434  30.0076484  52.4402006   2.6566382  31.4460124  40.7269994
   2.3279088  30.5657503  40.5445099   3.0105752  31.3907793  41.6146383
  11.9045961  43.0815027  45.2364979  11.7570923  42.1531734  45.4172549
  12.7299454  43.1035117  44.7522054   5.7708205  31.7333094  41.0945471
   6.1104277  32.2619015  40.3724080   6.2180325  32.0713500  41.8704038
  15.5080083  43.9043585  46.3229852  16.4326630  43.6986447  46.1854303
  15.3395386  43.6559987  47.2319193   8.4651646  30.1170145  50.5448539
   8.1248466  29.3177958  50.9469219   7.7590652  30.4171855  49.9725372
   9.1168118  27.2019457  48.9975862   9.9394187  26.7279935  48.8754753
   9.3606181  27.9809941  49.4974549   7.7576352  30.2307715  39.2938764
   8.4784715  30.6088968  38.7902481   7.1341656  30.9496592  39.3973742
  11.9007475  30.9352864  40.2297096  12.1171089  31.8177502  39.9285924
  11.4201542  30.5439078  39.5002738   6.6406696  33.8938578  46.8067841
   6.4951277  34.2078881  47.6992122   6.1631900  34.5123478  46.2538740
   8.5003079  30.8841126  46.8548730   8.4864648  29.9882219  46.5181028
   9.2175507  30.8911789  47.4887017  10.3529210  31.3178466  48.9001858
  10.0946988  32.2395536  48.8986188   9.8214250  30.9208900  49.5902322
  15.2975399  44.4229253  41.6791943  15.4712276  43.8575675  40.9265796
  15.7904290  45.2230148  41.4971433   1.1152359  36.4343922  49.7455502
   0.5705827  37.2103730  49.8775776   1.9931708  36.7814727  49.5874624
   7.9039975  29.7655506  42.1236301   8.0255886  28.8372152  42.3227188
   7.6142018  29.7794192  41.2114616  10.7731166  27.4510416  45.2603020
  10.7952862  27.5149749  44.3055000  11.1899225  26.6114925  45.4543527
  21.1514790  37.1865676  43.2982243  21.5945936  36.4373001  42.9001366
  20.2741300  37.1775812  42.9155975  16.2850571  43.7396017  38.7788842
  16.9801476  44.3602710  38.9976156  16.6273721  42.8891369  39.0541219
   1.9018380  35.5613818  52.6385659   1.1600116  35.7096454  53.2250289
   1.5811125  35.8222084  51.7752408  18.1841994  41.1895723  40.3076172
  18.7093318  41.5282996  39.5825492  18.0964347  40.2542738  40.1239307
   9.8462043  45.1029797  52.4366049  10.1549169  44.8578943  53.3088749
  10.6437525  45.3076435  51.9484919   9.8682655  47.2567706  44.6671426
   9.4287645  46.7644085  45.3604282  10.6190772  46.7140674  44.4263501
   2.3474994  43.4479247  44.6696054   3.1733014  43.1483019  44.2894697
   1.9969046  42.6786869  45.1185842   7.3156527  42.8005715  46.7393727
   6.6936537  42.1376420  46.4395955   7.9861394  42.8266847  46.0567375
   7.3881055  31.2787503  56.3326233   7.4369210  32.1549626  55.9504003
   7.9303569  30.7364896  55.7597876  17.8735900  41.8228627  55.6127370
  17.0831444  41.8052765  55.0731870  17.6369255  42.3616920  56.3676407
  17.9933775  38.6721093  52.9260099  18.0431780  38.5071100  53.8675622
  17.8847699  37.8048352  52.5357980   6.8770034  41.3509639  40.2152188
   7.0258155  42.0345103  39.5618860   7.6836478  41.3314729  40.7301643
  15.2837538  34.6552021  54.2419406  16.1847401  34.5158486  53.9503403
  15.3585512  34.8206476  55.1817583   9.6180343  32.0318876  53.0872592
   8.7483653  32.3252442  52.8155180   9.8539824  32.6159321  53.8079855
  19.4951972  41.0918034  53.1702120  19.2036781  41.4548015  54.0065581
  18.8824104  40.3785043  52.9915452  20.6947655  38.6570914  45.6904691
  21.5294546  39.0960718  45.8542251  20.8306783  38.1809567  44.8712936
  17.7439161  36.2150649  51.6382178  18.2193282  36.4078295  50.8301030
  16.8204726  36.2709835  51.3925562   4.6322667  37.3774816  41.2213257
   4.3868709  36.4737146  41.4193467   4.8018582  37.3791967  40.2792735
  12.3219377  28.2498493  50.6038012  12.8401321  28.9859520  50.2784501
  11.9674510  28.5562486  51.4384771   3.9018315  33.1103174  38.7199418
   3.2087560  33.1847529  38.0639454   3.6570067  32.3463517  39.2420935
  12.5731971  24.6698775  46.1238909  12.8533725  24.0021964  46.7499335
  13.3582578  24.8627871  45.6113573  10.3765440  43.8457769  37.6863935
   9.8039407  44.4647956  37.2334407  10.9498233  44.3957131  38.2203857
  16.4440830  33.0916409  49.8710484  17.3958252  33.1914507  49.8922708
  16.2744280  32.2994678  50.3808568  14.4655209  30.1771992  50.0569885
  13.8705141  30.4577005  49.3616373  14.1804906  30.6665893  50.8286626
  13.5962699  44.1294919  38.8172517  14.5293373  44.0640481  39.0205393
  13.5085912  44.9651186  38.3587050  16.2250716  43.4460790  35.7776465
  16.1464348  43.1120653  36.6712223  17.0460383  43.9382557  35.7767937
  18.9228907  36.3122529  48.9852784  18.8905227  35.3738530  49.1712467
  19.5329531  36.3906566  48.2518608  10.7612238  35.1818582  35.0279988
  11.7071343  35.0524790  35.0968406  10.3826483  34.4433244  35.5049416
  19.0723396  33.1033572  49.0311067  18.5562444  32.3192029  48.8440996
  19.9563344  32.7752289  49.1957586  16.7334123  26.8474588  44.9906879
  16.5358944  26.5389676  45.8750211  17.3433828  27.5736227  45.1204809
  24.7405457  37.3738536  48.1258820  25.4708846  37.1123824  48.6866524
  24.1312403  36.6367258  48.1660888  22.8220754  35.5146398  48.7233272
  22.0953918  35.3802363  48.1149763  22.4068041  35.8223227  49.5289990
  10.6450931  39.2336328  56.4880645  11.5653940  39.4114927  56.6820691
  10.6100514  38.2892373  56.3360344   8.9455155  33.1068558  34.9634873
   8.0386611  32.8101671  35.0397586   9.2231136  32.8098376  34.0969159
   3.6413003  37.1437363  49.1303426   3.8599013  38.0754470  49.1491460
   4.0538777  36.7845337  49.9158230  10.5617221  27.6505448  41.1179114
   9.7517949  27.3052533  41.4934360  11.2501638  27.3412992  41.7066726
  12.4907769  26.7283495  42.7403411  13.0438808  27.1478948  43.3993434
  12.7277856  25.8019243  42.7826367   8.5140869  32.7170568  58.5206175
   8.4137595  33.6664925  58.4518266   8.2962411  32.3888807  57.6482245
   7.7153940  29.9655493  35.1046852   8.5773104  30.2910392  35.3642669
   7.9004284  29.1786989  34.5919918  15.8686576  28.8384020  42.2482075
  15.2885245  29.4968824  41.8660127  15.6022509  28.0161364  41.8369493
  14.3190143  28.2389078  44.4503395  14.8189921  28.3505612  43.6417714
  14.9625751  27.9350130  45.0904204   8.3772139  36.1467707  57.3371236
   7.8939220  36.9468067  57.5435125   8.4633078  36.1575652  56.3838680
   1.6458098  37.9796087  45.2593056   1.6228786  38.0783774  44.3074939
   1.9558735  38.8261238  45.5810222   4.3045476  40.0372242  49.3739670
   5.2588730  40.0056184  49.3069602   4.1058000  39.5762866  50.1889896
   4.8944858  38.6073358  51.9410468   5.7137747  39.1017437  51.9645305
   5.1681666  37.6905326  51.9128035  14.6511454  30.9984110  41.3038423
  13.7637309  31.2833761  41.0858618  15.0665444  30.8377874  40.4565700
  18.0025991  31.0230631  45.0192763  18.7786381  31.5127084  45.2917379
  17.2774125  31.4488685  45.4764632  20.4398549  31.7358250  46.0766703
  21.0343040  31.4953986  45.3660011  20.5125133  31.0165381  46.7040239
   2.6595705  45.5791861  46.3909868   2.5250173  44.8192262  45.8247866
   2.2427767  46.3032761  45.9238657  13.7954668  40.7628785  35.3986443
  14.4990518  40.9678787  36.0144099  13.0717317  41.3305547  35.6635527
  14.6252478  36.5138646  41.5188713  14.5687680  36.9707198  40.6796346
  15.1780821  35.7529331  41.3411556  18.4357284  32.3028378  42.3438833
  18.1794218  31.9025014  43.1747041  17.8110152  33.0172172  42.2188972
  22.7469622  35.0424451  44.8510124  22.1869180  35.1117641  45.6241686
  22.1413125  34.8665436  44.1309621   5.8164831  46.4761178  46.6028311
   5.6997215  47.4206611  46.5007001   4.9957277  46.1734740  46.9914110
  15.7041365  41.2011314  37.4484903  16.5386969  40.7692513  37.2662378
  15.5425708  41.0293328  38.3761798  15.3587257  37.7043427  38.8141243
  15.3036061  37.5387699  37.8729687  14.7333313  38.4119460  38.9703432
  12.6733165  40.0092339  58.1394805  13.5424324  40.1832992  57.7781440
  12.1939916  40.8286756  58.0170535   8.6683383  27.2051536  38.3926561
   8.6562053  28.1493376  38.5494832   9.5606805  27.0221682  38.0986022
   6.8419345  47.1289440  49.8184239   7.7446592  47.1613051  50.1350734
   6.6156715  46.1989891  49.8330575   8.5972947  45.8820427  46.4794318
   7.6468578  45.8822288  46.3658690   8.9005433  45.1353161  45.9630352
  12.4835502  23.7994313  42.6472498  11.7167898  23.2452800  42.7929180
  12.8946207  23.8716182  43.5086649   4.4877263  30.0879109  56.7377679
   5.3508725  29.7315914  56.9481004   3.9142674  29.7493004  57.4253083
  24.3325640  51.7180965  47.5440080  24.9704050  51.5987713  46.8403420
  24.2146483  52.6661809  47.6028032  21.1415347  51.6708393  47.4801605
  20.8033858  51.5549458  46.5922140  22.0105115  51.2699558  47.4602611
  17.0002162  53.5243870  43.4698496  16.4367028  53.4333807  42.7014784
  16.8854557  52.7043774  43.9500988  21.6235130  52.8243245  53.4387810
  21.6123770  52.4296043  52.5668314  21.7855769  52.0909318  54.0321582
  14.5466594  55.0195061  46.3082716  15.3387886  54.6785886  45.8929016
  14.7863244  55.1290036  47.2284870  22.5801721  57.1914837  38.7812961
  21.9289701  57.7768918  38.3946974  23.3746084  57.7221032  38.8407998
  16.5057348  54.2803975  39.1800095  17.2788224  53.7332962  39.0412971
  16.8582747  55.1448224  39.3914556  18.3442391  55.6080357  52.3866994
  18.0532257  56.5125988  52.2713661  18.9799375  55.6496884  53.1011064
  19.2698598  52.9857205  48.9768354  19.8662170  52.7613228  48.2625317
  19.3273569  52.2441951  49.5793802  18.8423626  50.4396641  36.8118545
  19.0949147  49.9178162  36.0502008  17.9048185  50.2762786  36.9145229
  23.8866909  49.4432419  44.6193288  24.6729998  49.0251842  44.2683705
  24.1505613  50.3478511  44.7874937  24.0576986  54.8805269  39.3181945
  23.4222819  54.9539896  40.0302850  23.7274393  55.4698868  38.6401024
  18.5619915  52.3424747  39.0142920  18.4456173  51.6669650  39.6824004
  18.6722175  51.8557121  38.1975073  20.9051456  51.8034894  42.7189609
  20.5409663  51.2765515  43.4302531  21.7618572  51.4133363  42.5456095
  26.8100756  43.0929226  49.9820875  26.4784081  43.9624637  49.7582090
  26.2146370  42.7765510  50.6614906  20.5456943  46.8324793  37.7150958
  20.7131345  47.7005030  38.0821429  20.3554112  46.9952075  36.7912247
  23.3032276  55.2941772  49.3816788  23.0032999  56.1966811  49.2732595
  22.9583335  55.0273956  50.2337941  16.7544757  51.7455569  45.4153492
  15.8295254  51.6131783  45.6231184  17.0029171  52.5249788  45.9123435
  26.7029420  47.8124313  47.0614225  25.7946297  47.7439721  46.7672986
  26.6517015  48.2896257  47.8896051  20.5246164  49.2882451  38.6997624
  20.4045789  49.7339502  39.5383105  19.8298752  49.6367769  38.1411163
  14.1153568  51.3888843  46.2497281  14.2445950  51.6423322  47.1636693
  13.4351020  51.9816551  45.9301937  18.2853056  62.0586093  42.3487756
  18.2077085  63.0093918  42.4276236  17.6814699  61.7131965  43.0062682
  20.7770285  49.2313958  55.0049123  20.0003620  49.7907878  54.9951987
  21.4160849  49.7170741  55.5263993  28.5691066  46.0140751  48.8392099
  27.9265446  46.3073284  48.1931894  28.0645995  45.8993671  49.6445296
  26.2231230  49.7603924  39.5277959  27.1349086  49.9931311  39.3525656
  25.7140877  50.3440968  38.9653037  19.0316658  52.0399412  54.5667090
  19.7731342  52.5784455  54.2901913  18.3253643  52.6665700  54.7238641
  24.5071997  54.1828552  53.1639251  24.9155353  53.7410962  52.4193883
  23.7849259  53.6081179  53.4173444  20.8603067  49.1201159  50.5372808
  21.7064263  49.5440572  50.6807457  20.8001705  48.4634783  51.2311371
  24.8300812  54.7429743  46.9191540  24.2009675  54.9075457  46.2167608
  24.4426474  55.1571352  47.6902504  24.0102513  46.7805527  52.1953982
  23.7663445  47.5347588  51.6588257  24.2862443  47.1590875  53.0301229
  25.9640976  53.3244139  50.8731247  26.1757871  53.9675899  50.1965628
  25.9170724  52.4906456  50.4053177  23.5667205  45.9361960  47.7767819
  22.7051684  46.2343214  48.0684557  23.5929639  46.1532359  46.8448852
  20.3828774  54.4804151  44.1841625  20.8467119  54.7591854  43.3946248
  20.1185572  53.5787595  44.0014716  17.2752855  54.0275632  47.1221388
  17.8454212  54.4562901  46.4838873  17.8660967  53.7458217  47.8205574
  19.3197660  50.6027303  40.9931190  20.0221703  51.0548347  41.4605117
  18.9878288  49.9611122  41.6211083  17.7678022  49.1939060  55.3682400
  17.1376682  49.8755341  55.6017796  17.6614109  49.0822141  54.4235538
  13.0622994  48.8610856  46.2948324  12.2722048  49.1168384  45.8188434
  13.5534241  49.6759194  46.4000364  27.0786804  56.2016095  49.0453605
  27.9004247  55.7996282  48.7636286  27.0749206  56.0984329  49.9969720
  15.0137739  49.2255435  43.2531800  14.2168903  49.3374129  43.7715296
  14.7863332  49.5642087  42.3872691  20.8443407  55.7500138  51.2014315
  20.9087839  56.2120545  52.0372487  20.1354331  55.1197503  51.3296625
  11.3460697  49.1141346  48.7263315  11.5968735  49.9988356  48.9920891
  11.8820245  48.9345948  47.9538406  20.5591425  57.4168246  41.0693295
  20.4237099  58.2619781  41.4978143  21.1001237  57.6187523  40.3059229
  17.0458764  43.4959826  57.7307651  16.6525710  42.9426024  58.4055295
  17.8624905  43.8070404  58.1214168  14.0120822  54.9343684  41.6421221
  14.5245343  55.7286934  41.7926785  14.6643535  54.2369974  41.5754822
  15.8215707  58.0509440  43.7243974  15.9982335  58.9727405  43.5364958
  16.6172540  57.7367859  44.1538353  19.9626725  44.9117705  55.3227907
  20.7036439  45.5124858  55.2432370  20.1944648  44.1695342  54.7645950
  15.1068063  50.0974072  53.6006137  14.9921578  49.1959329  53.9013236
  14.2512581  50.3437769  53.2490953  22.1859901  58.0391812  55.1993638
  21.7423755  57.2528191  54.8814542  22.8477115  58.2270963  54.5337528
  16.9447022  59.5687614  49.7254316  17.4954447  59.4404677  48.9531310
  16.1058498  59.8682503  49.3749209  24.2841139  58.3194612  53.2275039
  24.2659614  59.1403493  52.7355308  25.2061059  58.1948687  53.4525180
  20.7414193  55.8338742  54.0698547  21.2742530  55.0727030  53.8397855
  20.2128274  55.5412393  54.8122702  23.9083888  40.9398808  49.5992189
  23.5648158  41.8300449  49.5231299  24.2762851  40.7500465  48.7361774
  11.9769739  53.2632338  42.4180791  12.8144961  53.6729346  42.2014499
  12.1548006  52.3231780  42.3880985  23.8734171  50.9307419  38.1064624
  23.3580794  51.7012023  38.3453011  23.6011479  50.2572555  38.7297685
  21.4581282  45.7757119  43.1649862  20.6022878  45.3863970  42.9855501
  21.8708234  45.8549080  42.3049648  22.9880429  43.3103463  47.5641422
  22.4845224  43.2733598  46.7509227  23.2811035  44.2196205  47.6238079
  19.2323314  43.3942192  46.5707604  20.0976311  43.1985001  46.2113493
  19.3000823  43.1652544  47.4976961  28.8468445  53.6839773  40.0417797
  28.0697888  53.3450933  39.5972960  29.5259926  53.6892396  39.3672763
  23.6620474  48.8034511  39.9324405  23.3570610  49.1180660  40.7834548
  24.6150916  48.8815931  39.9751738  22.1066906  54.9624734  41.5817359
  21.5788267  54.2277494  41.2690597  21.6054409  55.7399410  41.3357327
  27.0859752  53.1573755  46.6984405  26.4283426  53.8473016  46.7864534
  27.8900151  53.5470187  47.0418392  16.8385634  45.6244400  43.9423971
  17.4129385  45.4019582  43.2097164  17.4256616  45.6933095  44.6952572
  25.8965211  51.5118127  44.7488347  26.4097092  52.1448119  45.2510057
  26.5466435  50.9119323  44.3831707  17.1655221  47.6548861  37.9619856
  16.3292533  47.9923548  38.2829131  17.0259990  47.5197841  37.0246993
  19.1408301  42.4985649  42.6699040  18.4872714  42.1834666  42.0455655
  19.0988775  41.8761390  43.3958863  20.2519506  52.7804944  34.5852332
  19.3446568  52.5494198  34.7843481  20.7490538  51.9842564  34.7726314
  23.1587585  61.4902452  37.5049018  22.4849284  61.7934148  38.1133976
  23.5453407  62.2931532  37.1554475  22.3746042  48.9867583  46.9946688
  21.4568603  49.2082530  46.8368376  22.7906185  49.0613893  46.1358395
  23.1581089  50.3858998  42.1249368  23.9052908  50.8980396  41.8156490
  23.4272679  50.0643051  42.9853762  21.4307740  52.8817539  39.1076322
  20.5218959  52.5976572  39.2048792  21.4602823  53.3016618  38.2479629
  26.6627007  56.4924129  42.8767490  26.2089334  55.6515039  42.9332680
  26.0320974  57.1285527  43.2142270  25.6059927  47.4216115  44.1068157
  24.8682683  46.9093501  44.4378400  25.8586700  46.9816496  43.2951434
  25.1059946  58.3300625  43.8117308  25.3982921  58.8905683  43.0929674
  25.6158567  58.6229186  44.5670467  25.7071554  40.1992367  44.7009927
  26.0130431  39.3389730  44.4135842  26.4324159  40.7909987  44.5008920
  11.9995910  50.6023053  43.0891524  11.8020310  50.0092414  42.3642591
  11.4442574  50.2975264  43.8067463  19.9792634  50.4946160  45.2086118
  20.0341243  49.5419996  45.1328594  19.1683836  50.6505599  45.6927416
  21.1283827  54.4226283  36.4464401  20.6903257  53.7062142  35.9870038
  21.8694268  54.6502398  35.8849492  17.9184994  49.1123220  42.9676496
  17.1052859  49.4117390  43.3741689  18.4143988  48.7178908  43.6850979
  20.0693571  59.1080976  44.9010761  20.0269750  59.3341823  43.9719293
  20.9856270  58.8744351  45.0496562  23.5159205  49.5765044  51.7991390
  23.8708593  49.8036517  52.6585856  24.1631336  49.9083421  51.1768646
  17.4099068  46.6841575  48.5837731  18.0498448  46.5430334  47.8860695
  16.5776599  46.3976088  48.2076333  18.1859372  55.9844005  44.6972724
  18.9799971  55.4894326  44.4955299  17.4751065  55.4561869  44.3340429
  23.0054217  58.3662101  49.0485092  23.0591239  58.9353037  49.8162807
  22.1368998  58.5363986  48.6839129  14.4942136  50.1287087  40.7732477
  13.5639724  50.0671543  40.9902439  14.5899608  49.6063040  39.9769118
  14.4127685  46.6541900  43.3610718  14.6734502  47.5687233  43.2519879
  15.2344857  46.1866343  43.5107331  15.8852610  48.0679657  50.5309543
  16.5575663  47.8597019  49.8822192  15.0582397  47.8701743  50.0914775
  21.7878182  44.6941598  52.5475204  21.1406097  45.3931548  52.4539680
  22.5579197  45.1277742  52.9151452  25.1956980  54.9590450  55.6225757
  25.0442486  54.7301002  54.7055841  25.1861659  55.9161052  55.6357102
  21.9642316  52.5322363  50.6072023  22.8934376  52.6833523  50.4340991
  21.5433346  52.6206384  49.7520670  20.7630648  56.5573027  48.3770561
  20.6241734  56.1891812  49.2496499  19.9745244  57.0720667  48.2054519
  21.3578800  61.6582124  39.7196098  21.5330556  61.1870167  40.5341720
  20.6711588  62.2847890  39.9477358  22.3135863  55.9354630  45.7659399
  21.9785696  55.8955400  46.6617049  21.8139809  55.2699346  45.2929809
  16.2880107  51.3422260  51.2911980  16.1499905  50.6102499  51.8923519
  17.1985031  51.2531160  51.0096168  25.2495055  53.2810665  36.0396458
  24.6324226  52.5557493  35.9429511  24.7811543  54.0420025  35.6963533
  18.9162408  51.0542220  50.7795660  19.6262026  50.4135412  50.7382278
  18.8731716  51.3055114  51.7021840  26.9049187  57.9909573  53.7002239
  26.8461733  57.3068793  53.0332822  27.3068705  58.7328563  53.2482865
  17.6291342  48.0407437  52.5991299  17.0928699  47.5898176  53.2512895
  17.0408050  48.1753346  51.8561763  15.9239885  64.8071487  46.4935958
  16.1636484  65.4390011  47.1714976  15.0809082  64.4559527  46.7801317
  17.0393601  47.4996089  35.1617763  16.1623067  47.3784890  34.7980009
  17.5151354  46.7082167  34.9096651  26.9066594  55.9549157  51.9316218
  26.0193373  55.6175079  52.0542617  27.4765145  55.2232188  52.1684984
   8.5595741  52.2873249  45.2559270   9.2466781  51.9734979  44.6680285
   8.4043870  53.1914613  44.9826521  13.3630463  47.1763445  49.6844294
  13.2788652  46.5689115  48.9494704  12.5413170  47.6672463  49.6853790
  20.4367747  60.6150609  48.8977462  20.3637919  61.4205581  49.4096766
  19.9945140  60.8142575  48.0725483  20.2257527  59.8522379  42.4080283
  19.4425049  60.3944059  42.5018508  20.9250272  60.3696359  42.8074524
  23.5354177  45.6617009  45.0514489  24.0322877  44.9086971  44.7315559
  22.7641159  45.6981325  44.4857698  22.8966431  60.5137443  51.0535620
  23.6094403  61.1484908  50.9811522  22.4056459  60.6101309  50.2375622
  24.6183958  54.4188696  42.6252912  23.6840236  54.5390158  42.4557616
  24.7960626  53.5161163  42.3612922  20.1189146  47.8034392  44.7786173
  19.7486933  47.2505432  45.4667079  20.6148238  47.1992525  44.2261173
  17.9478344  58.2631887  51.8741191  18.6487804  58.8968370  52.0270585
  17.4773459  58.6046618  51.1136830  26.0732740  56.6049836  40.1589098
  26.3492584  56.4906431  41.0682972  25.2037239  56.2067321  40.1201271
  25.9773172  42.6286602  47.1993847  25.0636252  42.8590829  47.3676054
  26.4066273  42.7125046  48.0507880  25.7479630  50.8176494  49.6993742
  25.0951081  51.0652402  49.0446194  26.1260010  50.0040632  49.3656219
  22.7086804  60.8536187  43.8021912  22.8909199  60.0357843  44.2649664
  23.5319790  61.0703880  43.3646802  23.0428970  59.7804372  41.0636960
  23.5716736  59.2696827  40.4507122  23.3057189  59.4646903  41.9282493
  21.7967203  51.5596305  56.1859779  21.1207840  51.4590434  56.8562154
  22.6194837  51.4035519  56.6495776  13.5446062  57.7968242  48.8072294
  14.1299499  57.0511930  48.9400198  13.3470901  58.1072198  49.6908958
  16.3984718  60.8319489  43.8234736  15.7295093  61.3165617  43.3398776
  16.2597587  61.0788710  44.7378115   8.1363717  50.3673842  47.5276737
   8.1747817  49.8337433  48.3213855   7.6304010  49.8409047  46.9087714
  20.5389986  62.8663233  50.4217395  21.0908294  63.0294854  51.1866480
  20.8796180  63.4567670  49.7497419  15.5154479  45.2138382  51.0239279
  15.5795806  46.0753213  50.6116677  15.4521600  44.6012384  50.2911638
  14.9906752  47.2861515  54.6712314  15.6178791  46.9038592  55.2849838
  14.1334671  47.0675717  55.0368006  25.3900861  57.6924490  56.2766049
  25.9340765  58.3054448  55.7821004  24.8087705  58.2504069  56.7933062
  11.7672295  49.0937944  40.6030668  12.0625736  48.1848622  40.5497722
  10.8660330  49.0725684  40.2811671  23.6758373  60.8145208  47.4081077
  23.5509513  60.0134948  46.8992022  24.3337465  61.3091402  46.9195047
  15.2966542  47.1693941  46.5858217  14.5753127  47.7829908  46.4465690
  16.0859797  47.7051705  46.5074863  25.7393282  58.6154228  49.0360627
  24.7923617  58.4959579  48.9638954  26.0876055  57.7276726  49.1186888
  18.0992855  44.5048367  52.8598869  18.6227257  44.7510664  53.6225178
  17.8805189  45.3368402  52.4402006  13.4960136  46.7752042  40.7269994
  13.1672842  45.8949421  40.5445099  13.8499507  46.7199710  41.6146383
  22.7439715  58.4106944  45.2364979  22.5964678  57.4823652  45.4172549
  23.5693209  58.4327035  44.7522054  16.6101959  47.0625012  41.0945471
  16.9498032  47.5910933  40.3724080  17.0574080  47.4005418  41.8704038
  26.3473837  59.2335503  46.3229852  27.2720384  59.0278365  46.1854303
  26.1789140  58.9851904  47.2319193  19.3045400  45.4462062  50.5448539
  18.9642221  44.6469875  50.9469219  18.5984407  45.7463773  49.9725372
  19.9561872  42.5311375  48.9975862  20.7787941  42.0571853  48.8754753
  20.1999936  43.3101858  49.4974549  18.5970107  45.5599633  39.2938764
  19.3178469  45.9380886  38.7902481  17.9735411  46.2788510  39.3973742
  22.7401229  46.2644782  40.2297096  22.9564844  47.1469420  39.9285924
  22.2595297  45.8730996  39.5002738  17.4800451  49.2230495  46.8067841
  17.3345032  49.5370798  47.6992122  17.0025654  49.8415396  46.2538740
  19.3396834  46.2133043  46.8548730  19.3258402  45.3174137  46.5181028
  20.0569262  46.2203707  47.4887017  21.1922964  46.6470384  48.9001858
  20.9340742  47.5687454  48.8986188  20.6608005  46.2500818  49.5902322
  26.1369153  59.7521171  41.6791943  26.3106031  59.1867593  40.9265796
  26.6298044  60.5522066  41.4971433  11.9546113  51.7635840  49.7455502
  11.4099581  52.5395648  49.8775776  12.8325463  52.1106644  49.5874624
  18.7433730  45.0947424  42.1236301  18.8649641  44.1664070  42.3227188
  18.4535772  45.1086110  41.2114616  21.6124920  42.7802334  45.2603020
  21.6346617  42.8441667  44.3055000  22.0292979  41.9406843  45.4543527
  27.1244326  59.0687935  38.7788842  27.8195230  59.6894628  38.9976156
  27.4667476  58.2183286  39.0541219  12.7412135  50.8905736  52.6385659
  11.9993871  51.0388371  53.2250289  12.4204879  51.1514002  51.7752408
  29.0235749  56.5187641  40.3076172  29.5487073  56.8574913  39.5825492
  28.9358101  55.5834656  40.1239307  20.6855798  60.4321714  52.4366049
  20.9942924  60.1870861  53.3088749  21.4831280  60.6368353  51.9484919
  20.7076410  62.5859624  44.6671426  20.2681400  62.0936003  45.3604282
  21.4584527  62.0432592  44.4263501  13.1868749  58.7771165  44.6696054
  14.0126768  58.4774937  44.2894697  12.8362801  58.0078787  45.1185842
  18.1550282  58.1297633  46.7393727  17.5330291  57.4668338  46.4395955
  18.8255149  58.1558765  46.0567375  11.3877354  56.6957491  45.6284987
  10.5509262  56.2679666  45.4468988  11.3600999  56.8889935  46.5655778
  18.2274809  46.6079421  56.3326233  18.2762965  47.4841544  55.9504003
  18.7697323  46.0656814  55.7597876  17.7163789  56.6801556  40.2152188
  17.8651909  57.3637021  39.5618860  18.5230232  56.6606646  40.7301643
  26.1231292  49.9843939  54.2419406  27.0241155  49.8450403  53.9503403
  26.1979267  50.1498393  55.1817583  20.4574098  47.3610793  53.0872592
  19.5877407  47.6544359  52.8155180  20.6933578  47.9451238  53.8079855
  30.3345727  56.4209952  53.1702120  30.0430535  56.7839933  54.0065581
  29.7217858  55.7076960  52.9915452  28.5832915  51.5442567  51.6382178
  29.0587037  51.7370213  50.8301030  27.6598480  51.6001753  51.3925562
  15.4716422  52.7066734  41.2213257  15.2262464  51.8029064  41.4193467
  15.6412336  52.7083884  40.2792735  23.1613131  43.5790410  50.6038012
  23.6795075  44.3151437  50.2784501  22.8068264  43.8854404  51.4384771
  14.7412069  48.4395091  38.7199418  14.0481314  48.5139446  38.0639454
  14.4963821  47.6755435  39.2420935  23.4125726  39.9990693  46.1238909
  23.6927479  39.3313882  46.7499335  24.1976333  40.1919788  45.6113573
  21.2159194  59.1749687  37.6863935  20.6433161  59.7939874  37.2334407
  21.7891988  59.7249048  38.2203857  27.2834584  48.4208327  49.8710484
  28.2352007  48.5206424  49.8922708  27.1138034  47.6286595  50.3808568
  25.3048963  45.5063910  50.0569885  24.7098896  45.7868923  49.3616373
  25.0198660  45.9957811  50.8286626  24.4356454  59.4586837  38.8172517
  25.3687127  59.3932399  39.0205393  24.3479667  60.2943104  38.3587050
  27.0644471  58.7752707  35.7776465  26.9858102  58.4412571  36.6712223
  27.8854137  59.2674475  35.7767937  21.6005993  50.5110499  35.0279988
  22.5465097  50.3816708  35.0968406  21.2220238  49.7725161  35.5049416
  27.5727877  42.1766506  44.9906879  27.3752698  41.8681594  45.8750211
  28.1827583  42.9028144  45.1204809  21.4844685  54.5628246  56.4880645
  22.4047695  54.7406845  56.6820691  21.4494268  53.6184291  56.3360344
  19.7848910  48.4360476  34.9634873  18.8780365  48.1393589  35.0397586
  20.0624891  48.1390294  34.0969159  10.7026850  49.7566839  45.4133919
  10.3829635  48.9032147  45.1208293  10.1560278  49.9715417  46.1691887
  14.4806758  52.4729280  49.1303426  14.6992768  53.4046388  49.1491460
  14.8932532  52.1137255  49.9158230  21.4010976  42.9797366  41.1179114
  20.5911704  42.6344451  41.4934360  22.0895392  42.6704909  41.7066726
  23.3301524  42.0575412  42.7403411  23.8832562  42.4770866  43.3993434
  23.5671610  41.1311160  42.7826367  19.3534623  48.0462486  58.5206175
  19.2531350  48.9956843  58.4518266  19.1356165  47.7180725  57.6482245
  18.5547694  45.2947411  35.1046852  19.4166858  45.6202309  35.3642669
  18.7398039  44.5078907  34.5919918  10.5715110  53.3769751  47.3827041
   9.8778582  52.9623704  46.8696995  11.3188101  53.4190287  46.7860460
  26.7080331  44.1675938  42.2482075  26.1279000  44.8260742  41.8660127
  26.4416264  43.3453282  41.8369493  25.1583897  43.5680995  44.4503395
  25.6583676  43.6797530  43.6417714  25.8019505  43.2642048  45.0904204
  19.2165893  51.4759625  57.3371236  18.7332975  52.2759985  57.5435125
  19.3026832  51.4867570  56.3838680  12.4851853  53.3088005  45.2593056
  12.4622541  53.4075692  44.3074939  12.7952489  54.1553155  45.5810222
  15.1439231  55.3664160  49.3739670  16.0982484  55.3348102  49.3069602
  14.9451754  54.9054783  50.1889896  15.7338613  53.9365276  51.9410468
  16.5531502  54.4309354  51.9645305  16.0075420  53.0197244  51.9128035
  25.4905209  46.3276028  41.3038423  24.6031064  46.6125679  41.0858618
  25.9059198  46.1669791  40.4565700  13.4989459  60.9083779  46.3909868
  13.3643927  60.1484180  45.8247866  13.0821522  61.6324679  45.9238657
  24.6348422  56.0920703  35.3986443  25.3384273  56.2970705  36.0144099
  23.9111071  56.6597464  35.6635527  25.4646233  51.8430564  41.5188713
  25.4081434  52.2999115  40.6796346  26.0174575  51.0821248  41.3411556
  16.6558585  61.8053096  46.6028311  16.5390969  62.7498529  46.5007001
  15.8351032  61.5026658  46.9914110  26.5435120  56.5303232  37.4484903
  27.3780724  56.0984430  37.2662378  26.3819463  56.3585245  38.3761798
  26.1981012  53.0335345  38.8141243  26.1429816  52.8679617  37.8729687
  25.5727067  53.7411378  38.9703432  10.9873527  48.2703409  52.6402665
  11.6332391  47.7602363  53.1289890  10.7790678  49.0072091  53.2146090
  23.5126919  55.3384257  58.1394805  24.3818079  55.5124909  57.7781440
  23.0333671  56.1578674  58.0170535  19.5077137  42.5343454  38.3926561
  19.4955807  43.4785294  38.5494832  20.4000559  42.3513600  38.0986022
  17.6813099  62.4581358  49.8184239  18.5840346  62.4904968  50.1350734
  17.4550469  61.5281809  49.8330575  19.4366701  61.2112345  46.4794318
  18.4862332  61.2114206  46.3658690  19.7399188  60.4645079  45.9630352
  23.3229257  39.1286231  42.6472498  22.5561653  38.5744717  42.7929180
  23.7339962  39.2008100  43.5086649  15.3271018  45.4171027  56.7377679
  16.1902480  45.0607831  56.9481004  14.7536429  45.0784921  57.4253083
  27.8395917  68.8535787  43.4698496  27.2760782  68.7625724  42.7014784
  27.7248312  68.0335692  43.9500988  25.3860349  70.3486979  46.3082716
  26.1781641  70.0077804  45.8929016  25.6256999  70.4581954  47.2284870
  29.6817381  65.7688558  36.8118545  29.9342901  65.2470080  36.0502008
  28.7441940  65.6054704  36.9145229  31.3850697  62.1616711  37.7150958
  31.5525100  63.0296948  38.0821429  31.1947866  62.3243993  36.7912247
  31.3639918  64.6174369  38.6997624  31.2439543  65.0631419  39.5383105
  30.6692506  64.9659686  38.1411163  24.9547323  66.7180760  46.2497281
  25.0839704  66.9715239  47.1636693  24.2744774  67.3108468  45.9301937
  30.1591414  65.9319221  40.9931190  30.8615458  66.3840264  41.4605117
  29.8272043  65.2903040  41.6211083  23.9016748  64.1902773  46.2948324
  23.1115802  64.4460302  45.8188434  24.3927996  65.0051111  46.4000364
  25.8531494  64.5547353  43.2531800  25.0562657  64.6666047  43.7715296
  25.6257086  64.8934005  42.3872691  22.1854451  64.4433264  48.7263315
  22.4362490  65.3280274  48.9920891  22.7214000  64.2637865  47.9538406
  27.8852519  58.8251743  57.7307651  27.4919464  58.2717942  58.4055295
  28.7018659  59.1362322  58.1214168  24.8514576  70.2635601  41.6421221
  25.3639097  71.0578852  41.7926785  25.5037289  69.5661892  41.5754822
  26.6609461  73.3801358  43.7243974  26.8376090  74.3019322  43.5364958
  27.4566295  73.0659777  44.1538353  25.9461818  65.4265990  53.6006137
  25.8315333  64.5251247  53.9013236  25.0906335  65.6729686  53.2490953
  27.7840777  74.8979531  49.7254316  28.3348202  74.7696595  48.9531310
  26.9452253  75.1974420  49.3749209  22.8163493  68.5924256  42.4180791
  23.6538715  69.0021264  42.2014499  22.9941761  67.6523698  42.3880985
  27.6779388  60.9536318  43.9423971  28.2523140  60.7311500  43.2097164
  28.2650370  61.0225013  44.6952572  28.0048975  62.9840779  37.9619856
  27.1686287  63.3215466  38.2829131  27.8653745  62.8489759  37.0246993
  22.8389664  65.9314971  43.0891524  22.6414064  65.3384332  42.3642591
  22.2836328  65.6267181  43.8067463  28.7578748  64.4415137  42.9676496
  27.9446614  64.7409308  43.3741689  29.2537742  64.0470826  43.6850979
  28.2492823  62.0133493  48.5837731  28.8892202  61.8722252  47.8860695
  27.4170353  61.7268006  48.2076333  25.3335890  65.4579005  40.7732477
  24.4033478  65.3963460  40.9902439  25.4293362  64.9354958  39.9769118
  25.2521439  61.9833818  43.3610718  25.5128256  62.8979151  43.2519879
  26.0738611  61.5158260  43.5107331  26.7246365  63.3971575  50.5309543
  27.3969418  63.1888937  49.8822192  25.8976151  63.1993661  50.0914775
  27.1273862  66.6714178  51.2911980  26.9893660  65.9394417  51.8923519
  28.0378785  66.5823078  51.0096168  28.4685096  63.3699355  52.5991299
  27.9322453  62.9190094  53.2512895  27.8801805  63.5045264  51.8561763
  26.7633640  80.1363404  46.4935958  27.0030238  80.7681929  47.1714976
  25.9202836  79.7851444  46.7801317  27.8787355  62.8288007  35.1617763
  27.0016822  62.7076807  34.7980009  28.3545108  62.0374085  34.9096651
  19.3989495  67.6165166  45.2559270  20.0860535  67.3026896  44.6680285
  19.2437624  68.5206531  44.9826521  24.2024218  62.5055363  49.6844294
  24.1182406  61.8981032  48.9494704  23.3806924  62.9964381  49.6853790
  24.3839817  73.1260159  48.8072294  24.9693254  72.3803847  48.9400198
  24.1864655  73.4364116  49.6908958  18.9757472  65.6965760  47.5276737
  19.0141571  65.1629350  48.3213855  18.4697764  65.1700965  46.9087714
  26.3548234  60.5430300  51.0239279  26.4189560  61.4045131  50.6116677
  26.2915354  59.9304302  50.2911638  25.8300506  62.6153433  54.6712314
  26.4572545  62.2330510  55.2849838  24.9728425  62.3967635  55.0368006
  22.6066049  64.4229862  40.6030668  22.9019490  63.5140540  40.5497722
  21.7054085  64.4017601  40.2811671  26.1360296  62.4985858  46.5858217
  25.4146882  63.1121826  46.4465690  26.9253552  63.0343623  46.5074863
  28.9386610  59.8340285  52.8598869  29.4621012  60.0802581  53.6225178
  28.7198943  60.6660320  52.4402006  24.3353891  62.1043959  40.7269994
  24.0066597  61.2241338  40.5445099  24.6893261  62.0491628  41.6146383
  27.4495714  62.3916929  41.0945471  27.7891786  62.9202850  40.3724080
  27.8967834  62.7297335  41.8704038  29.4363861  60.8891551  39.2938764
  30.1572224  61.2672804  38.7902481  28.8129165  61.6080428  39.3973742
  30.1790588  61.5424961  46.8548730  30.1652157  60.6466054  46.5181028
  30.8963016  61.5495625  47.4887017  22.7939868  67.0927757  49.7455502
  22.2493336  67.8687565  49.8775776  23.6719217  67.4398562  49.5874624
  23.5805889  66.2197654  52.6385659  22.8387625  66.3680289  53.2250289
  23.2598634  66.4805919  51.7752408  24.0262503  74.1063082  44.6696054
  24.8520523  73.8066854  44.2894697  23.6756555  73.3370705  45.1185842
  22.2271108  72.0249409  45.6284987  21.3903016  71.5971583  45.4468988
  22.1994754  72.2181852  46.5655778  29.0668564  61.9371339  56.3326233
  29.1156719  62.8133461  55.9504003  29.6091078  61.3948732  55.7597876
  26.3110176  68.0358652  41.2213257  26.0656218  67.1320982  41.4193467
  26.4806091  68.0375802  40.2792735  25.5805824  63.7687009  38.7199418
  24.8875069  63.8431364  38.0639454  25.3357576  63.0047353  39.2420935
  32.4399747  65.8402417  35.0279988  33.3858852  65.7108625  35.0968406
  32.0613992  65.1017079  35.5049416  30.6242664  63.7652394  34.9634873
  29.7174120  63.4685506  35.0397586  30.9018645  63.4682212  34.0969159
  21.5420605  65.0858757  45.4133919  21.2223389  64.2324065  45.1208293
  20.9954033  65.3007335  46.1691887  25.3200512  67.8021198  49.1303426
  25.5386522  68.7338306  49.1491460  25.7326286  67.4429172  49.9158230
  29.3941449  60.6239329  35.1046852  30.2560613  60.9494227  35.3642669
  29.5791793  59.8370825  34.5919918  21.4108865  68.7061668  47.3827041
  20.7172336  68.2915621  46.8696995  22.1581856  68.7482205  46.7860460
  23.3245607  68.6379922  45.2593056  23.3016295  68.7367609  44.3074939
  23.6346244  69.4845073  45.5810222  25.9832985  70.6956077  49.3739670
  26.9376239  70.6640020  49.3069602  25.7845509  70.2346701  50.1889896
  26.5732367  69.2657193  51.9410468  27.3925256  69.7601272  51.9645305
  26.8469175  68.3489161  51.9128035  24.3383214  76.2375697  46.3909868
  24.2037682  75.4776098  45.8247866  23.9215276  76.9616597  45.9238657
  27.4952340  77.1345014  46.6028311  27.3784724  78.0790446  46.5007001
  26.6744786  76.8318575  46.9914110  21.8267281  63.5995327  52.6402665
  22.4726145  63.0894281  53.1289890  21.6184433  64.3364009  53.2146090
  28.5206854  77.7873276  49.8184239  29.4234101  77.8196886  50.1350734
  28.2944224  76.8573727  49.8330575  26.1664772  60.7462944  56.7377679
  27.0296234  60.3899749  56.9481004  25.5930183  60.4076839  57.4253083
  40.0229900  86.2664192  52.3866994  39.7319766  87.1709823  52.2713661
  40.6586884  86.3080720  53.1011064  38.6234531  90.2271449  49.7254316
  39.1741956  90.0988512  48.9531310  37.7846007  90.5266338  49.3749209
  37.6027394  95.4655322  46.4935958  37.8423993  96.0973846  47.1714976
  36.7596591  95.1143362  46.7801317  30.2383250  82.9457084  45.2559270
  30.9254290  82.6318814  44.6680285  30.0831379  83.8498449  44.9826521
  42.1155256  91.2734445  48.8977462  42.0425428  92.0789416  49.4096766
  41.6732649  91.4726410  48.0725483  39.6265853  88.9215722  51.8741191
  40.3275313  89.5552205  52.0270585  39.1560968  89.2630454  51.1136830
  35.2233571  88.4552077  48.8072294  35.8087008  87.7095765  48.9400198
  35.0258410  88.7656034  49.6908958  29.8151226  81.0257677  47.5276737
  29.8535326  80.4921268  48.3213855  29.3091519  80.4992883  46.9087714
  42.3643306  91.0905550  52.4366049  42.6730433  90.8454696  53.3088749
  43.1618789  91.2952188  51.9484919  52.0133236  87.0793787  53.1702120
  51.7218044  87.4423768  54.0065581  51.4005367  86.3660796  52.9915452
  36.8226740  86.0247995  49.3739670  37.7769993  85.9931937  49.3069602
  36.6239263  85.5638619  50.1889896  37.4126122  84.5949111  51.9410468
  38.2319011  85.0893190  51.9645305  37.6862929  83.6781079  51.9128035
  35.1776968  91.5667614  46.3909868  35.0431436  90.8068015  45.8247866
  34.7609031  92.2908514  45.9238657  39.3600608  93.1165193  49.8184239
  40.2627855  93.1488804  50.1350734  39.1337978  92.1865644  49.8330575
  54.1416393  98.8118998  53.4387810  54.1305034  98.4171796  52.5668314
  54.3037033  98.0785071  54.0321582  55.0982985 103.1790590  38.7812961
  54.4470964 103.7644671  38.3946974  55.8927347 103.7096785  38.8407998
  49.0238612 100.2679728  39.1800095  49.7969488  99.7208715  39.0412971
  49.3764011 101.1323977  39.3914556  50.8623654 101.5956110  52.3866994
  50.5713520 102.5001741  52.2713661  51.4980639 101.6372638  53.1011064
  51.3604890  96.4272394  36.8118545  51.6130410  95.9053915  36.0502008
  50.4229449  96.2638539  36.9145229  56.5758250 100.8681022  39.3181945
  55.9404083 100.9415649  40.0302850  56.2455656 101.4574621  38.6401024
  61.8056599  95.3683405  45.5226267  62.5381771  94.7982622  45.7564096
  61.0495955  94.9805006  45.9632772  51.0801178  98.3300500  39.0142920
  50.9637436  97.6545403  39.6824004  51.1903438  97.8432874  38.1975073
  59.3282020  89.0804979  49.9820875  58.9965345  89.9500390  49.7582090
  58.7327633  88.7641263  50.6614906  53.0638206  92.8200546  37.7150958
  53.2312609  93.6880783  38.0821429  52.8735375  92.9827828  36.7912247
  55.8213539 101.2817525  49.3816788  55.5214262 102.1842564  49.2732595
  55.4764599 101.0149709  50.2337941  59.2210683  93.8000066  47.0614225
  58.3127560  93.7315474  46.7672986  59.1698279  94.2772011  47.8896051
  50.8034319 108.0461846  42.3487756  50.7258349 108.9969671  42.4276236
  50.1995963 107.7007718  43.0062682  53.2951549  95.2189711  55.0049123
  52.5184883  95.7783631  54.9951987  53.9342112  95.7046494  55.5263993
  61.0872330  92.0016504  48.8392099  60.4446710  92.2949037  48.1931894
  60.5827258  91.8869424  49.6445296  58.7412493  95.7479677  39.5277959
  59.6530349  95.9807064  39.3525656  58.2322140  96.3316721  38.9653037
  51.5497921  98.0275165  54.5667090  52.2912606  98.5660209  54.2901913
  50.8434907  98.6541453  54.7238641  57.0253261 100.1704305  53.1639251
  57.4336617  99.7286716  52.4193883  56.3030522  99.5956933  53.4173444
  57.3482076 100.7305496  46.9191540  56.7190938 100.8951210  46.2167608
  56.9607738 101.1447105  47.6902504  61.2271307 101.6659933  44.2735904
  60.5422346 102.0458835  43.7232937  61.3115157 102.2755260  45.0067851
  56.5283776  92.7681280  52.1953982  56.2844708  93.5223341  51.6588257
  56.8043707  93.1466628  53.0301229  58.4822239  99.3119893  50.8731247
  58.6939134  99.9551652  50.1965628  58.4351987  98.4782209  50.4053177
  56.0848468  91.9237713  47.7767819  55.2232947  92.2218967  48.0684557
  56.1110903  92.1408112  46.8448852  52.9010037 100.4679904  44.1841625
  53.3648383 100.7467607  43.3946248  52.6366836  99.5663348  44.0014716
  50.2859285  95.1814813  55.3682400  49.6557946  95.8631094  55.6017796
  50.1795373  95.0697894  54.4235538  59.5968067 102.1891848  49.0453605
  60.4185511 101.7872035  48.7636286  59.5930470 102.0860082  49.9969720
  53.3624670 101.7375891  51.2014315  53.4269103 102.1996298  52.0372487
  52.6535594 101.1073256  51.3296625  67.6874060  98.5330596  45.3938576
  66.9337768  97.9637994  45.2382580  67.8221601  98.4993261  46.3409211
  53.0772688 103.4043999  41.0693295  52.9418363 104.2495534  41.4978143
  53.6182501 103.6063276  40.3059229  46.5302085 100.9219437  41.6421221
  47.0426606 101.7162687  41.7926785  47.1824798 100.2245727  41.5754822
  48.3396970 104.0385193  43.7243974  48.5163599 104.9603158  43.5364958
  49.1353804 103.7243612  44.1538353  52.4807989  90.8993458  55.3227907
  53.2217702  91.5000611  55.2432370  52.7125912  90.1571095  54.7645950
  54.7041164 104.0267565  55.1993638  54.2605019 103.2403944  54.8814542
  55.3658378 104.2146716  54.5337528  49.4628286 105.5563367  49.7254316
  50.0135711 105.4280430  48.9531310  48.6239762 105.8558256  49.3749209
  56.8022403 104.3070365  53.2275039  56.7840878 105.1279246  52.7355308
  57.7242323 104.1824440  53.4525180  53.2595457 101.8214495  54.0698547
  53.7923793 101.0602783  53.8397855  52.7309538 101.5288146  54.8122702
  56.3915434  96.9183172  38.1064624  55.8762058  97.6887776  38.3453011
  56.1192743  96.2448308  38.7297685  61.3649709  99.6715526  40.0417797
  60.5879151  99.3326686  39.5972960  62.0441189  99.6768150  39.3672763
  56.1801738  94.7910264  39.9324405  55.8751873  95.1056413  40.7834548
  57.1332180  94.8691684  39.9751738  54.6248169 100.9500487  41.5817359
  54.0969531 100.2153247  41.2690597  54.1235672 101.7275163  41.3357327
  59.6041015  99.1449508  46.6984405  58.9464690  99.8348769  46.7864534
  60.4081415  99.5345940  47.0418392  58.4146474  97.4993880  44.7488347
  58.9278356  98.1323872  45.2510057  59.0647698  96.8995076  44.3831707
  52.7700770  98.7680697  34.5852332  51.8627831  98.5369951  34.7843481
  53.2671802  97.9718317  34.7726314  55.6768848 107.4778205  37.5049018
  55.0030547 107.7809901  38.1133976  56.0634670 108.2807285  37.1554475
  53.9489003  98.8693292  39.1076322  53.0400222  98.5852325  39.2048792
  53.9784087  99.2892371  38.2479629  59.1808270 102.4799882  42.8767490
  58.7270598 101.6390792  42.9332680  58.5502237 103.1161280  43.2142270
  58.1241190  93.4091868  44.1068157  57.3863947  92.8969254  44.4378400
  58.3767964  92.9692249  43.2951434  57.6241210 104.3176378  43.8117308
  57.9164184 104.8781436  43.0929674  58.1339830 104.6104939  44.5670467
  53.6465091 100.4102036  36.4464401  53.2084521  99.6937895  35.9870038
  54.3875532 100.6378151  35.8849492  52.5874835 105.0956730  44.9010761
  52.5451014 105.3217576  43.9719293  53.5037534 104.8620104  45.0496562
  56.0340469  95.5640797  51.7991390  56.3889856  95.7912270  52.6585856
  56.6812600  95.8959174  51.1768646  61.7638206  98.6859233  42.5040719
  61.6256104  98.8760829  41.5761909  61.4074424  99.4478616  42.9608771
  61.7907585 100.7535760  47.5151991  62.2244092 100.6611049  48.3635045
  62.5039166 100.7293260  46.8772007  50.7040636 101.9719759  44.6972724
  51.4981234 101.4770079  44.4955299  49.9932328 101.4437622  44.3340429
  55.5235480 104.3537854  49.0485092  55.5772502 104.9228790  49.8162807
  54.6550261 104.5239739  48.6839129  62.6523135 100.7959461  50.0484876
  62.8459025 101.7005271  50.2944151  62.5523753 100.3366880  50.8823461
  54.3059445  90.6817351  52.5475204  53.6587361  91.3807301  52.4539680
  55.0760461  91.1153495  52.9151452  57.7138243 100.9466203  55.6225757
  57.5623750 100.7176755  54.7055841  57.7042923 101.9036805  55.6357102
  54.4823580  98.5198116  50.6072023  55.4115640  98.6709276  50.4340991
  54.0614610  98.6082137  49.7520670  53.2811912 102.5448781  48.3770561
  53.1422997 102.1767565  49.2496499  52.4926508 103.0596420  48.2054519
  53.8760064 107.6457877  39.7196098  54.0511819 107.1745920  40.5341720
  53.1892852 108.2723643  39.9477358  54.8317127 101.9230383  45.7659399
  54.4966959 101.8831153  46.6617049  54.3321072 101.2575099  45.2929809
  57.7676318  99.2686418  36.0396458  57.1505489  98.5433246  35.9429511
  57.2992807 100.0295778  35.6963533  59.4230450 103.9785326  53.7002239
  59.3642996 103.2944546  53.0332822  59.8249968 104.7204316  53.2482865
  48.4421149 110.7947240  46.4935958  48.6817747 111.4265764  47.1714976
  47.5990345 110.4435280  46.7801317  59.4247857 101.9424910  51.9316218
  58.5374636 101.6050832  52.0542617  59.9946408 101.2107941  52.1684984
  41.0777004  98.2749002  45.2559270  41.7648044  97.9610732  44.6680285
  40.9225133  99.1790366  44.9826521  52.9549011 106.6026362  48.8977462
  52.8819182 107.4081334  49.4096766  52.5126404 106.8018328  48.0725483
  52.7438790 105.8398132  42.4080283  51.9606312 106.3819812  42.5018508
  53.4431536 106.3572112  42.8074524  56.0535440  91.6492762  45.0514489
  56.5504140  90.8962724  44.7315559  55.2822422  91.6857078  44.4857698
  63.9065198  97.3533127  46.6932780  63.8955074  98.2357843  46.3226713
  63.0382577  97.0004678  46.4987317  55.4147694 106.5013196  51.0535620
  56.1275666 107.1360661  50.9811522  54.9237723 106.5977062  50.2375622
  57.1365221 100.4064449  42.6252912  56.2021500 100.5265911  42.4557616
  57.3141890  99.5036916  42.3612922  60.5237773  96.2481768  43.1602946
  60.9898225  97.0809760  43.0863249  60.9745273  95.7826750  43.8648205
  50.4659608 104.2507640  51.8741191  51.1669067 104.8844123  52.0270585
  49.9954723 104.5922371  51.1136830  58.5914004 102.5925589  40.1589098
  58.8673848 102.4782184  41.0682972  57.7218502 102.1943074  40.1201271
  58.4954435  88.6162355  47.1993847  57.5817515  88.8466582  47.3676054
  58.9247537  88.7000799  48.0507880  58.2660894  96.8052247  49.6993742
  57.6132344  97.0528155  49.0446194  58.6441274  95.9916385  49.3656219
  55.2268068 106.8411940  43.8021912  55.4090462 106.0233596  44.2649664
  56.0501054 107.0579633  43.3646802  55.5610233 105.7680125  41.0636960
  56.0898000 105.2572580  40.4507122  55.8238453 105.4522656  41.9282493
  54.3148467  97.5472058  56.1859779  53.6389104  97.4466188  56.8562154
  55.1376101  97.3911272  56.6495776  46.0627326 103.7843995  48.8072294
  46.6480763 103.0387683  48.9400198  45.8652164 104.0947951  49.6908958
  48.9165981 106.8195242  43.8234736  48.2476356 107.3041370  43.3398776
  48.7778851 107.0664463  44.7378115  40.6544981  96.3549595  47.5276737
  40.6929080  95.8213186  48.3213855  40.1485273  95.8284800  46.9087714
  53.0571250 108.8538986  50.4217395  53.6089558 109.0170607  51.1866480
  53.3977443 109.4443423  49.7497419  47.5088015  93.2737268  54.6712314
  48.1360054  92.8914345  55.2849838  46.6515934  93.0551470  55.0368006
  57.9082124 103.6800243  56.2766049  58.4522028 104.2930201  55.7821004
  57.3268969 104.2379822  56.7933062  56.1939637 106.8020961  47.4081077
  56.0690776 106.0010701  46.8992022  56.8518728 107.2967155  46.9195047
  58.2574545 104.6029981  49.0360627  57.3104881 104.4835332  48.9638954
  58.6057318 103.7152479  49.1186888  55.2620979 104.3982697  45.2364979
  55.1145941 103.4699405  45.4172549  56.0874472 104.4202788  44.7522054
  58.8655100 105.2211256  46.3229852  59.7901648 105.0154118  46.1854303
  58.6970404 104.9727657  47.2319193  55.2582493  92.2520535  40.2297096
  55.4746107  93.1345173  39.9285924  54.7776560  91.8606749  39.5002738
  58.6550417 105.7396924  41.6791943  58.8287294 105.1743346  40.9265796
  59.1479308 106.5397819  41.4971433  64.5089808  98.5033347  43.2982243
  64.9520954  97.7540672  42.9001366  63.6316318  98.4943483  42.9155975
  59.6425589 105.0563688  38.7788842  60.3376494 105.6770381  38.9976156
  59.9848739 104.2059039  39.0541219  61.5417012 102.5063394  40.3076172
  62.0668336 102.8450666  39.5825492  61.4539365 101.5710409  40.1239307
  53.2037061 106.4197467  52.4366049  53.5124187 106.1746614  53.3088749
  54.0012543 106.6244106  51.9484919  53.2257673 108.5735377  44.6671426
  52.7862663 108.0811756  45.3604282  53.9765790 108.0308345  44.4263501
  45.7050012 104.7646918  44.6696054  46.5308032 104.4650690  44.2894697
  45.3544064 103.9954540  45.1185842  50.6731545 104.1173386  46.7393727
  50.0511554 103.4544091  46.4395955  51.3436412 104.1434518  46.0567375
  43.9058617 102.6833244  45.6284987  43.0690525 102.2555419  45.4468988
  43.8782262 102.8765688  46.5655778  50.7456073  92.5955174  56.3326233
  50.7944228  93.4717297  55.9504003  51.2878587  92.0532567  55.7597876
  61.2310918 103.1396297  55.6127370  60.4406462 103.1220436  55.0731870
  60.9944273 103.6784591  56.3676407  61.3508793  99.9888764  52.9260099
  61.4006798  99.8238771  53.8675622  61.2422717  99.1216023  52.5357980
  50.2345052 102.6677309  40.2152188  50.3833172 103.3512774  39.5618860
  51.0411496 102.6482399  40.7301643  58.6412556  95.9719692  54.2419406
  59.5422419  95.8326156  53.9503403  58.7160530  96.1374146  55.1817583
  52.9755361  93.3486546  53.0872592  52.1058671  93.6420112  52.8155180
  53.2114841  93.9326991  53.8079855  62.8526990 102.4085705  53.1702120
  62.5611799 102.7715686  54.0065581  62.2399122 101.6952713  52.9915452
  64.0522673  99.9738585  45.6904691  64.8869564 100.4128389  45.8542251
  64.1881801  99.4977238  44.8712936  61.1014178  97.5318320  51.6382178
  61.5768300  97.7245966  50.8301030  60.1779744  97.5877506  51.3925562
  55.6794395  89.5666163  50.6038012  56.1976339  90.3027190  50.2784501
  55.3249528  89.8730157  51.4384771  53.7340458 105.1625440  37.6863935
  53.1614425 105.7815627  37.2334407  54.3073251 105.7124801  38.2203857
  59.8015847  94.4084080  49.8710484  60.7533270  94.5082178  49.8922708
  59.6319298  93.6162348  50.3808568  57.8230227  91.4939663  50.0569885
  57.2280159  91.7744676  49.3616373  57.5379924  91.9833564  50.8286626
  56.9537717 105.4462590  38.8172517  57.8868391 105.3808152  39.0205393
  56.8660930 106.2818857  38.3587050  59.5825734 104.7628460  35.7776465
  59.5039366 104.4288324  36.6712223  60.4035401 105.2550228  35.7767937
  62.2803925  97.6290200  48.9852784  62.2480245  96.6906200  49.1712467
  62.8904549  97.7074236  48.2518608  54.1187256  96.4986253  35.0279988
  55.0646361  96.3692461  35.0968406  53.7401501  95.7600914  35.5049416
  62.4298414  94.4201243  49.0311067  61.9137462  93.6359700  48.8440996
  63.3138362  94.0919960  49.1957586  60.0909141  88.1642259  44.9906879
  59.8933962  87.8557347  45.8750211  60.7008846  88.8903897  45.1204809
  68.0980475  98.6906206  48.1258820  68.8283864  98.4291494  48.6866524
  67.4887421  97.9534928  48.1660888  66.1795772  96.8314069  48.7233272
  65.4528936  96.6970034  48.1149763  65.7643059  97.1390898  49.5289990
  54.0025949 100.5503999  56.4880645  54.9228958 100.7282598  56.6820691
  53.9675532  99.6060044  56.3360344  52.3030173  94.4236229  34.9634873
  51.3961629  94.1269342  35.0397586  52.5806154  94.1266047  34.0969159
  51.8715887  94.0338239  58.5206175  51.7712613  94.9832596  58.4518266
  51.6537429  93.7056478  57.6482245  59.2261594  90.1551691  42.2482075
  58.6460263  90.8136495  41.8660127  58.9597527  89.3329035  41.8369493
  57.6765161  89.5556748  44.4503395  58.1764939  89.6673283  43.6417714
  58.3200769  89.2517801  45.0904204  51.7347157  97.4635378  57.3371236
  51.2514238  98.2635738  57.5435125  51.8208096  97.4743323  56.3838680
  58.0086472  92.3151781  41.3038423  57.1212327  92.6001432  41.0858618
  58.4240461  92.1545544  40.4565700  61.3601009  92.3398302  45.0192763
  62.1361399  92.8294754  45.2917379  60.6349143  92.7656356  45.4764632
  63.7973567  93.0525921  46.0766703  64.3918058  92.8121657  45.3660011
  63.8700151  92.3333052  46.7040239  46.0170723 106.8959532  46.3909868
  45.8825191 106.1359933  45.8247866  45.6002785 107.6200432  45.9238657
  57.1529686 102.0796456  35.3986443  57.8565536 102.2846458  36.0144099
  56.4292335 102.6473218  35.6635527  57.9827496  97.8306317  41.5188713
  57.9262698  98.2874868  40.6796346  58.5355839  97.0697001  41.3411556
  61.7932302  93.6196049  42.3438833  61.5369236  93.2192684  43.1747041
  61.1685170  94.3339843  42.2188972  66.1044640  96.3592122  44.8510124
  65.5444198  96.4285311  45.6241686  65.4988143  96.1833107  44.1309621
  49.1739849 107.7928849  46.6028311  49.0572233 108.7374282  46.5007001
  48.3532295 107.4902411  46.9914110  59.0616383 102.5178985  37.4484903
  59.8961987 102.0860183  37.2662378  58.9000726 102.3460999  38.3761798
  58.7162275  99.0211098  38.8141243  58.6611079  98.8555370  37.8729687
  58.0908331  99.7287131  38.9703432  56.0308183 101.3260010  58.1394805
  56.8999342 101.5000662  57.7781440  55.5514934 102.1454427  58.0170535
  50.1994363 108.4457111  49.8184239  51.1021610 108.4780721  50.1350734
  49.9731733 107.5157562  49.8330575  51.9547965 107.1988098  46.4794318
  51.0043596 107.1989959  46.3658690  52.2580451 106.4520832  45.9630352
  47.8452281  91.4046780  56.7377679  48.7083743  91.0483584  56.9481004
  47.2717692  91.0660674  57.4253083  67.6900658 113.0348636  47.5440080
  68.3279068 112.9155383  46.8403420  67.5721501 113.9829480  47.6028032
  64.4990365 112.9876064  47.4801605  64.1608876 112.8717129  46.5922140
  65.3680133 112.5867229  47.4602611  60.3577180 114.8411540  43.4698496
  59.7942045 114.7501477  42.7014784  60.2429575 114.0211445  43.9500988
  64.9810148 114.1410916  53.4387810  64.9698788 113.7463714  52.5668314
  65.1430787 113.4076988  54.0321582  57.9041612 116.3362732  46.3082716
  58.6962904 115.9953557  45.8929016  58.1438262 116.4457707  47.2284870
  65.9376739 118.5082508  38.7812961  65.2864719 119.0936589  38.3946974
  66.7321102 119.0388703  38.8407998  59.8632366 115.5971645  39.1800095
  60.6363242 115.0500632  39.0412971  60.2157765 116.4615895  39.3914556
  61.7017409 116.9248028  52.3866994  61.4107275 117.8293658  52.2713661
  62.3374393 116.9664555  53.1011064  62.6273616 114.3024876  48.9768354
  63.2237188 114.0780898  48.2625317  62.6848587 113.5609622  49.5793802
  62.1998644 111.7564311  36.8118545  62.4524165 111.2345833  36.0502008
  61.2623203 111.5930457  36.9145229  67.2441927 110.7600090  44.6193288
  68.0305016 110.3419513  44.2683705  67.5080631 111.6646182  44.7874937
  67.4152004 116.1972940  39.3181945  66.7797837 116.2707567  40.0302850
  67.0849411 116.7866539  38.6401024  72.6450354 110.6975323  45.5226267
  73.3775526 110.1274540  45.7564096  71.8889710 110.3096923  45.9632772
  61.9194933 113.6592417  39.0142920  61.8031191 112.9837321  39.6824004
  62.0297193 113.1724791  38.1975073  64.2626474 113.1202564  42.7189609
  63.8984681 112.5933185  43.4302531  65.1193590 112.7301034  42.5456095
  70.1675774 104.4096897  49.9820875  69.8359099 105.2792308  49.7582090
  69.5721388 104.0933181  50.6614906  63.9031961 108.1492464  37.7150958
  64.0706363 109.0172701  38.0821429  63.7129130 108.3119746  36.7912247
  66.6607294 116.6109443  49.3816788  66.3608017 117.5134482  49.2732595
  66.3158353 116.3441626  50.2337941  60.1119775 113.0623240  45.4153492
  59.1870272 112.9299454  45.6231184  60.3604189 113.8417459  45.9123435
  70.0604438 109.1291983  47.0614225  69.1521315 109.0607392  46.7672986
  70.0092033 109.6063928  47.8896051  63.8821182 110.6050122  38.6997624
  63.7620807 111.0507172  39.5383105  63.1873770 110.9535439  38.1411163
  57.4728586 112.7056513  46.2497281  57.6020968 112.9590992  47.1636693
  56.7926038 113.2984221  45.9301937  64.1345303 110.5481629  55.0049123
  63.3578637 111.1075549  54.9951987  64.7735866 111.0338412  55.5263993
  71.9266084 107.3308422  48.8392099  71.2840464 107.6240955  48.1931894
  71.4221013 107.2161342  49.6445296  69.5806248 111.0771595  39.5277959
  70.4924104 111.3098982  39.3525656  69.0715895 111.6608639  38.9653037
  62.3891676 113.3567082  54.5667090  63.1306360 113.8952126  54.2901913
  61.6828661 113.9833371  54.7238641  67.8647015 115.4996223  53.1639251
  68.2730371 115.0578633  52.4193883  67.1424277 114.9248850  53.4173444
  64.2178085 110.4368829  50.5372808  65.0639281 110.8608243  50.6807457
  64.1576723 109.7802454  51.2311371  68.1875830 116.0597413  46.9191540
  67.5584692 116.2243127  46.2167608  67.8001492 116.4739023  47.6902504
  72.0665062 116.9951851  44.2735904  71.3816100 117.3750753  43.7232937
  72.1508911 117.6047178  45.0067851  67.3677531 108.0973198  52.1953982
  67.1238463 108.8515258  51.6588257  67.6437461 108.4758545  53.0301229
  69.3215994 114.6411810  50.8731247  69.5332889 115.2843570  50.1965628
  69.2745742 113.8074127  50.4053177  66.9242222 107.2529631  47.7767819
  66.0626702 107.5510884  48.0684557  66.9504657 107.4700030  46.8448852
  63.7403792 115.7971821  44.1841625  64.2042137 116.0759524  43.3946248
  63.4760590 114.8955266  44.0014716  60.6327873 115.3443303  47.1221388
  61.2029230 115.7730571  46.4838873  61.2235985 115.0625888  47.8205574
  62.6772678 111.9194974  40.9931190  63.3796721 112.3716017  41.4605117
  62.3453306 111.2778793  41.6211083  61.1253039 110.5106730  55.3682400
  60.4951700 111.1923011  55.6017796  61.0189127 110.3989812  54.4235538
  56.4198012 110.1778526  46.2948324  55.6297066 110.4336055  45.8188434
  56.9109259 110.9926864  46.4000364  70.4361821 117.5183766  49.0453605
  71.2579265 117.1163953  48.7636286  70.4324224 117.4152000  49.9969720
  58.3712757 110.5423106  43.2531800  57.5743921 110.6541800  43.7715296
  58.1438349 110.8809758  42.3872691  64.2018425 117.0667809  51.2014315
  64.2662857 117.5288216  52.0372487  63.4929349 116.4365174  51.3296625
  54.7035715 110.4309017  48.7263315  54.9543753 111.3156027  48.9920891
  55.2395263 110.2513618  47.9538406  78.5267815 113.8622514  45.3938576
  77.7731523 113.2929912  45.2382580  78.6615356 113.8285179  46.3409211
  63.9166443 118.7335916  41.0693295  63.7812117 119.5787452  41.4978143
  64.4576255 118.9355194  40.3059229  60.4033782 104.8127496  57.7307651
  60.0100728 104.2593695  58.4055295  61.2199923 105.1238075  58.1214168
  57.3695840 116.2511354  41.6421221  57.8820361 117.0454605  41.7926785
  58.0218553 115.5537645  41.5754822  59.1790725 119.3677111  43.7243974
  59.3557353 120.2895075  43.5364958  59.9747558 119.0535530  44.1538353
  63.3201743 106.2285375  55.3227907  64.0611457 106.8292528  55.2432370
  63.5519666 105.4863013  54.7645950  58.4643081 111.4141743  53.6006137
  58.3496596 110.5127000  53.9013236  57.6087599 111.6605439  53.2490953
  65.5434919 119.3559483  55.1993638  65.0998773 118.5695861  54.8814542
  66.2052133 119.5438633  54.5337528  60.3022040 120.8855284  49.7254316
  60.8529465 120.7572348  48.9531310  59.4633516 121.1850174  49.3749209
  67.6416157 119.6362283  53.2275039  67.6234632 120.4571164  52.7355308
  68.5636077 119.5116358  53.4525180  64.0989211 117.1506412  54.0698547
  64.6317548 116.3894700  53.8397855  63.5703292 116.8580064  54.8122702
  67.2658906 102.2566478  49.5992189  66.9223176 103.1468120  49.5231299
  67.6337869 102.0668136  48.7361774  55.3344757 114.5800009  42.4180791
  56.1719979 114.9897017  42.2014499  55.5123024 113.6399451  42.3880985
  67.2309189 112.2475089  38.1064624  66.7155812 113.0179694  38.3453011
  66.9586497 111.5740226  38.7297685  64.8156300 107.0924790  43.1649862
  63.9597896 106.7031641  42.9855501  65.2283252 107.1716751  42.3049648
  66.3455447 104.6271133  47.5641422  65.8420242 104.5901269  46.7509227
  66.6386053 105.5363876  47.6238079  62.5898332 104.7109863  46.5707604
  63.4551329 104.5152672  46.2113493  62.6575841 104.4820215  47.4976961
  72.2043463 115.0007444  40.0417797  71.4272906 114.6618604  39.5972960
  72.8834944 115.0060067  39.3672763  67.0195492 110.1202181  39.9324405
  66.7145628 110.4348331  40.7834548  67.9725934 110.1983601  39.9751738
  65.4641924 116.2792405  41.5817359  64.9363285 115.5445164  41.2690597
  64.9629427 117.0567081  41.3357327  70.4434770 114.4741425  46.6984405
  69.7858444 115.1640687  46.7864534  71.2475169 114.8637857  47.0418392
  60.1960651 106.9412071  43.9423971  60.7704403 106.7187253  43.2097164
  60.7831634 107.0100766  44.6952572  69.2540229 112.8285798  44.7488347
  69.7672110 113.4615790  45.2510057  69.9041453 112.2286993  44.3831707
  60.5230239 108.9716532  37.9619856  59.6867551 109.3091219  38.2829131
  60.3835008 108.8365512  37.0246993  62.4983319 103.8153320  42.6699040
  61.8447732 103.5002337  42.0455655  62.4563793 103.1929060  43.3958863
  63.6094524 114.0972615  34.5852332  62.7021586 113.8661869  34.7843481
  64.1065556 113.3010234  34.7726314  66.5162603 122.8070122  37.5049018
  65.8424302 123.1101819  38.1133976  66.9028425 123.6099203  37.1554475
  65.7321060 110.3035254  46.9946688  64.8143621 110.5250201  46.8368376
  66.1481203 110.3781564  46.1358395  66.5156107 111.7026669  42.1249368
  67.2627926 112.2148066  41.8156490  66.7847697 111.3810722  42.9853762
  64.7882757 114.1985210  39.1076322  63.8793977 113.9144243  39.2048792
  64.8177841 114.6184288  38.2479629  70.0202025 117.8091799  42.8767490
  69.5664352 116.9682709  42.9332680  69.3895992 118.4453198  43.2142270
  68.9634944 108.7383785  44.1068157  68.2257701 108.2261172  44.4378400
  69.2161718 108.2984167  43.2951434  68.4634964 119.6468296  43.8117308
  68.7557939 120.2073353  43.0929674  68.9733585 119.9396857  44.5670467
  69.0646572 101.5160037  44.7009927  69.3705449 100.6557401  44.4135842
  69.7899177 102.1077658  44.5008920  55.3570928 111.9190724  43.0891524
  55.1595328 111.3260085  42.3642591  54.8017592 111.6142934  43.8067463
  63.3367652 111.8113831  45.2086118  63.3916261 110.8587667  45.1328594
  62.5258854 111.9673270  45.6927416  64.4858845 115.7393954  36.4464401
  64.0478275 115.0229813  35.9870038  65.2269286 115.9670068  35.8849492
  61.2760011 110.4290890  42.9676496  60.4627877 110.7285061  43.3741689
  61.7719006 110.0346579  43.6850979  63.4268589 120.4248647  44.9010761
  63.3844768 120.6509494  43.9719293  64.3431288 120.1912022  45.0496562
  66.8734223 110.8932715  51.7991390  67.2283611 111.1204188  52.6585856
  67.5206354 111.2251092  51.1768646  72.6031960 114.0151151  42.5040719
  72.4649859 114.2052747  41.5761909  72.2468179 114.7770533  42.9608771
  60.7674086 108.0009246  48.5837731  61.4073466 107.8598005  47.8860695
  59.9351617 107.7143759  48.2076333  72.6301340 116.0827678  47.5151991
  73.0637846 115.9902967  48.3635045  73.3432920 116.0585178  46.8772007
  61.5434390 117.3011676  44.6972724  62.3374989 116.8061996  44.4955299
  60.8326083 116.7729539  44.3340429  66.3629235 119.6829772  49.0485092
  66.4166257 120.2520708  49.8162807  65.4944016 119.8531657  48.6839129
  57.8517154 111.4454758  40.7732477  56.9214742 111.3839213  40.9902439
  57.9474626 110.9230711  39.9769118  57.7702703 107.9709571  43.3610718
  58.0309520 108.8854904  43.2519879  58.5919875 107.5034013  43.5107331
  59.2427628 109.3847328  50.5309543  59.9150681 109.1764690  49.8822192
  58.4157414 109.1869414  50.0914775  73.4916889 116.1251378  50.0484876
  73.6852779 117.0297189  50.2944151  73.3917507 115.6658797  50.8823461
  65.1453200 106.0109269  52.5475204  64.4981115 106.7099219  52.4539680
  65.9154215 106.4445413  52.9151452  68.5531998 116.2758121  55.6225757
  68.4017504 116.0468673  54.7055841  68.5436677 117.2328722  55.6357102
  65.3217334 113.8490034  50.6072023  66.2509394 114.0001193  50.4340991
  64.9008364 113.9374055  49.7520670  64.1205666 117.8740698  48.3770561
  63.9816752 117.5059483  49.2496499  63.3320262 118.3888338  48.2054519
  64.7153818 122.9749795  39.7196098  64.8905574 122.5037838  40.5341720
  64.0286606 123.6015561  39.9477358  65.6710881 117.2522301  45.7659399
  65.3360714 117.2123071  46.6617049  65.1714827 116.5867017  45.2929809
  59.6455125 112.6589931  51.2911980  59.5074923 111.9270170  51.8923519
  60.5560049 112.5698831  51.0096168  68.6070073 114.5978335  36.0396458
  67.9899244 113.8725163  35.9429511  68.1386561 115.3587696  35.6963533
  62.2737426 112.3709890  50.7795660  62.9837044 111.7303082  50.7382278
  62.2306734 112.6222785  51.7021840  70.2624205 119.3077244  53.7002239
  70.2036751 118.6236464  53.0332822  70.6643723 120.0496234  53.2482865
  60.9866360 109.3575108  52.5991299  60.4503717 108.9065847  53.2512895
  60.3983068 109.4921017  51.8561763  60.3968619 108.8163760  35.1617763
  59.5198085 108.6952560  34.7980009  60.8726372 108.0249838  34.9096651
  70.2641612 117.2716828  51.9316218  69.3768391 116.9342749  52.0542617
  70.8340163 116.5399859  52.1684984  51.9170759 113.6040919  45.2559270
  52.6041799 113.2902649  44.6680285  51.7618888 114.5082284  44.9826521
  56.7205481 108.4931116  49.6844294  56.6363670 107.8856785  48.9494704
  55.8988188 108.9840134  49.6853790  63.7942765 121.9318280  48.8977462
  63.7212937 122.7373251  49.4096766  63.3520158 122.1310246  48.0725483
  63.5832545 121.1690050  42.4080283  62.8000067 121.7111730  42.5018508
  64.2825290 121.6864030  42.8074524  66.8929195 106.9784679  45.0514489
  67.3897895 106.2254642  44.7315559  66.1216176 107.0148996  44.4857698
  74.7458952 112.6825045  46.6932780  74.7348829 113.5649760  46.3226713
  73.8776332 112.3296596  46.4987317  66.2541449 121.8305114  51.0535620
  66.9669421 122.4652579  50.9811522  65.7631477 121.9268980  50.2375622
  67.9758976 115.7356367  42.6252912  67.0415254 115.8557829  42.4557616
  68.1535644 114.8328833  42.3612922  63.4764164 109.1202062  44.7786173
  63.1061951 108.5673103  45.4667079  63.9723256 108.5160196  44.2261173
  71.3631527 111.5773686  43.1602946  71.8291979 112.4101677  43.0863249
  71.8139028 111.1118667  43.8648205  61.3053362 119.5799557  51.8741191
  62.0062822 120.2136040  52.0270585  60.8348477 119.9214289  51.1136830
  69.4307758 117.9217507  40.1589098  69.7067602 117.8074102  41.0682972
  68.5612257 117.5234992  40.1201271  69.3348190 103.9454273  47.1993847
  68.4211270 104.1758500  47.3676054  69.7641291 104.0292717  48.0507880
  69.1054648 112.1344165  49.6993742  68.4526098 112.3820072  49.0446194
  69.4835028 111.3208303  49.3656219  66.0661822 122.1703858  43.8021912
  66.2484217 121.3525514  44.2649664  66.8894808 122.3871550  43.3646802
  66.4003988 121.0972043  41.0636960  66.9291754 120.5864498  40.4507122
  66.6632207 120.7814573  41.9282493  65.1542221 112.8763976  56.1859779
  64.4782858 112.7758105  56.8562154  65.9769855 112.7203190  56.6495776
  56.9021080 119.1135912  48.8072294  57.4874517 118.3679600  48.9400198
  56.7045919 119.4239869  49.6908958  51.4938735 111.6841513  47.5276737
  51.5322835 111.1505103  48.3213855  50.9879028 111.1576718  46.9087714
  58.8729497 106.5306053  51.0239279  58.9370824 107.3920884  50.6116677
  58.8096618 105.9180055  50.2911638  58.3481770 108.6029186  54.6712314
  58.9753809 108.2206263  55.2849838  57.4909689 108.3843388  55.0368006
  68.7475878 119.0092161  56.2766049  69.2915782 119.6222119  55.7821004
  68.1662723 119.5671739  56.7933062  55.1247313 110.4105615  40.6030668
  55.4200754 109.5016293  40.5497722  54.2235348 110.3893354  40.2811671
  67.0333391 122.1312879  47.4081077  66.9084531 121.3302619  46.8992022
  67.6912483 122.6259072  46.9195047  58.6541560 108.4861611  46.5858217
  57.9328145 109.0997579  46.4465690  59.4434815 109.0219376  46.5074863
  69.0968300 119.9321899  49.0360627  68.1498635 119.8127250  48.9638954
  69.4451073 119.0444397  49.1186888  61.4567873 105.8216038  52.8598869
  61.9802275 106.0678334  53.6225178  61.2380206 106.6536073  52.4402006
  56.8535154 108.0919712  40.7269994  56.5247860 107.2117091  40.5445099
  57.2074525 108.0367381  41.6146383  66.1014733 119.7274615  45.2364979
  65.9539696 118.7991323  45.4172549  66.9268227 119.7494706  44.7522054
  59.9676977 108.3792682  41.0945471  60.3073050 108.9078603  40.3724080
  60.4149098 108.7173088  41.8704038  69.7048855 120.5503174  46.3229852
  70.6295402 120.3446035  46.1854303  69.5364158 120.3019575  47.2319193
  62.6620418 106.7629733  50.5448539  62.3217239 105.9637546  50.9469219
  61.9559425 107.0631444  49.9725372  63.3136890 103.8479045  48.9975862
  64.1362959 103.3739524  48.8754753  63.5574954 104.6269529  49.4974549
  61.9545125 106.8767304  39.2938764  62.6753487 107.2548557  38.7902481
  61.3310429 107.5956181  39.3973742  66.0976247 107.5812453  40.2297096
  66.3139862 108.4637091  39.9285924  65.6170315 107.1898666  39.5002738
  60.8375469 110.5398166  46.8067841  60.6920050 110.8538469  47.6992122
  60.3600672 111.1583066  46.2538740  62.6971852 107.5300714  46.8548730
  62.6833420 106.6341807  46.5181028  63.4144280 107.5371378  47.4887017
  64.5497982 107.9638054  48.9001858  64.2915760 108.8855125  48.8986188
  64.0183023 107.5668489  49.5902322  69.4944171 121.0688841  41.6791943
  69.6681049 120.5035264  40.9265796  69.9873062 121.8689736  41.4971433
  55.3121131 113.0803510  49.7455502  54.7674599 113.8563318  49.8775776
  56.1900481 113.4274315  49.5874624  62.1008748 106.4115094  42.1236301
  62.2224659 105.4831740  42.3227188  61.8110790 106.4253780  41.2114616
  64.9699938 104.0970005  45.2603020  64.9921635 104.1609338  44.3055000
  65.3867997 103.2574513  45.4543527  75.3483562 113.8325264  43.2982243
  75.7914708 113.0832589  42.9001366  74.4710073 113.8235401  42.9155975
  70.4819344 120.3855606  38.7788842  71.1770248 121.0062298  38.9976156
  70.8242494 119.5350957  39.0541219  56.0987153 112.2073407  52.6385659
  55.3568889 112.3556042  53.2250289  55.7779897 112.4681672  51.7752408
  72.3810767 117.8355311  40.3076172  72.9062091 118.1742584  39.5825492
  72.2933119 116.9002327  40.1239307  64.0430815 121.7489385  52.4366049
  64.3517942 121.5038532  53.3088749  64.8406298 121.9536023  51.9484919
  56.5443767 120.0938835  44.6696054  57.3701786 119.7942607  44.2894697
  56.1937819 119.3246458  45.1185842  61.5125300 119.4465304  46.7393727
  60.8905309 118.7836009  46.4395955  62.1830167 119.4726436  46.0567375
  54.7452372 118.0125162  45.6284987  53.9084280 117.5847336  45.4468988
  54.7176017 118.2057605  46.5655778  61.5849827 107.9247092  56.3326233
  61.6337983 108.8009214  55.9504003  62.1272341 107.3824485  55.7597876
  72.0704673 118.4688215  55.6127370  71.2800217 118.4512354  55.0731870
  71.8338027 119.0076509  56.3676407  72.1902548 115.3180681  52.9260099
  72.2400553 115.1530689  53.8675622  72.0816471 114.4507940  52.5357980
  61.0738807 117.9969227  40.2152188  61.2226927 118.6804691  39.5618860
  61.8805250 117.9774317  40.7301643  69.4806310 111.3011609  54.2419406
  70.3816173 111.1618074  53.9503403  69.5554285 111.4666064  55.1817583
  63.8149116 108.6778464  53.0872592  62.9452425 108.9712030  52.8155180
  64.0508596 109.2618909  53.8079855  73.6920745 117.7377623  53.1702120
  73.4005553 118.1007603  54.0065581  73.0792876 117.0244631  52.9915452
  74.8916427 115.3030503  45.6904691  75.7263318 115.7420307  45.8542251
  75.0275556 114.8269156  44.8712936  71.9407933 112.8610237  51.6382178
  72.4162055 113.0537884  50.8301030  71.0173498 112.9169423  51.3925562
  58.8291440 114.0234405  41.2213257  58.5837482 113.1196735  41.4193467
  58.9987354 114.0251555  40.2792735  66.5188149 104.8958081  50.6038012
  67.0370093 105.6319108  50.2784501  66.1643282 105.2022074  51.4384771
  58.0987087 109.7562762  38.7199418  57.4056332 109.8307117  38.0639454
  57.8538839 108.9923106  39.2420935  66.7700744 101.3158364  46.1238909
  67.0502497 100.6481553  46.7499335  67.5551351 101.5087459  45.6113573
  64.5734212 120.4917357  37.6863935  64.0008179 121.1107545  37.2334407
  65.1467006 121.0416719  38.2203857  70.6409602 109.7375998  49.8710484
  71.5927025 109.8374095  49.8922708  70.4713052 108.9454266  50.3808568
  68.6623981 106.8231581  50.0569885  68.0673914 107.1036593  49.3616373
  68.3773678 107.3125482  50.8286626  67.7931472 120.7754508  38.8172517
  68.7262145 120.7100069  39.0205393  67.7054685 121.6110774  38.3587050
  70.4219489 120.0920378  35.7776465  70.3433120 119.7580241  36.6712223
  71.2429155 120.5842146  35.7767937  73.1197680 112.9582117  48.9852784
  73.0874000 112.0198118  49.1712467  73.7298303 113.0366154  48.2518608
  64.9581011 111.8278170  35.0279988  65.9040115 111.6984378  35.0968406
  64.5795256 111.0892832  35.5049416  73.2692168 109.7493161  49.0311067
  72.7531217 108.9651617  48.8440996  74.1532117 109.4211877  49.1957586
  70.9302895 103.4934176  44.9906879  70.7327716 103.1849264  45.8750211
  71.5402601 104.2195815  45.1204809  78.9374230 114.0198124  48.1258820
  79.6677618 113.7583412  48.6866524  78.3281175 113.2826846  48.1660888
  77.0189527 112.1605987  48.7233272  76.2922690 112.0261952  48.1149763
  76.6036814 112.4682815  49.5289990  64.8419703 115.8795916  56.4880645
  65.7622713 116.0574515  56.6820691  64.8069286 114.9351962  56.3360344
  63.1423928 109.7528147  34.9634873  62.2355383 109.4561259  35.0397586
  63.4199909 109.4557965  34.0969159  54.0601868 111.0734510  45.4133919
  53.7404652 110.2199818  45.1208293  53.5135296 111.2883088  46.1691887
  57.8381776 113.7896951  49.1303426  58.0567785 114.7214059  49.1491460
  58.2507550 113.4304925  49.9158230  64.7585993 104.2965036  41.1179114
  63.9486722 103.9512121  41.4934360  65.4470410 103.9872580  41.7066726
  66.6876542 103.3743083  42.7403411  67.2407580 103.7938537  43.3993434
  66.9246628 102.4478831  42.7826367  62.7109641 109.3630157  58.5206175
  62.6106368 110.3124514  58.4518266  62.4931183 109.0348396  57.6482245
  61.9122712 106.6115082  35.1046852  62.7741876 106.9369980  35.3642669
  62.0973057 105.8246578  34.5919918  53.9290128 114.6937421  47.3827041
  53.2353600 114.2791374  46.8696995  54.6763119 114.7357958  46.7860460
  70.0655349 105.4843608  42.2482075  69.4854018 106.1428412  41.8660127
  69.7991282 104.6620953  41.8369493  68.5158915 104.8848666  44.4503395
  69.0158694 104.9965200  43.6417714  69.1594523 104.5809719  45.0904204
  62.5740911 112.7927296  57.3371236  62.0907993 113.5927656  57.5435125
  62.6601850 112.8035240  56.3838680  55.8426871 114.6255675  45.2593056
  55.8197559 114.7243363  44.3074939  56.1527507 115.4720826  45.5810222
  58.5014249 116.6831830  49.3739670  59.4557502 116.6515773  49.3069602
  58.3026772 116.2222454  50.1889896  59.0913631 115.2532946  51.9410468
  59.9106520 115.7477025  51.9645305  59.3650438 114.3364914  51.9128035
  68.8480227 107.6443699  41.3038423  67.9606082 107.9293349  41.0858618
  69.2634216 107.4837462  40.4565700  72.1994763 107.6690220  45.0192763
  72.9755153 108.1586672  45.2917379  71.4742897 108.0948274  45.4764632
  74.6367322 108.3817839  46.0766703  75.2311812 108.1413575  45.3660011
  74.7093905 107.6624969  46.7040239  67.9923440 117.4088373  35.3986443
  68.6959290 117.6138376  36.0144099  67.2686089 117.9765135  35.6635527
  68.8221251 113.1598235  41.5188713  68.7656452 113.6166786  40.6796346
  69.3749593 112.3988919  41.3411556  72.6326057 108.9487966  42.3438833
  72.3762991 108.5484602  43.1747041  72.0078925 109.6631760  42.2188972
  76.9438394 111.6884040  44.8510124  76.3837952 111.7577229  45.6241686
  76.3381898 111.5125024  44.1309621  69.9010138 117.8470902  37.4484903
  70.7355742 117.4152101  37.2662378  69.7394481 117.6752916  38.3761798
  69.5556030 114.3503016  38.8141243  69.5004834 114.1847287  37.8729687
  68.9302085 115.0579049  38.9703432  54.3448545 109.5871080  52.6402665
  54.9907409 109.0770034  53.1289890  54.1365696 110.3239762  53.2146090
  66.8701937 116.6551928  58.1394805  67.7393097 116.8292580  57.7781440
  66.3908689 117.4746344  58.0170535  62.8652155 103.8511125  38.3926561
  62.8530825 104.7952965  38.5494832  63.7575577 103.6681270  38.0986022
  62.7941719 122.5280015  46.4794318  61.8437350 122.5281877  46.3658690
  63.0974206 121.7812750  45.9630352  66.6804275 100.4453901  42.6472498
  65.9136671  99.8912388  42.7929180  67.0914980 100.5175770  43.5086649
  58.6846036 106.7338697  56.7377679  59.5477497 106.3775502  56.9481004
  58.1111447 106.3952592  57.4253083  78.0835681 126.0892007  44.6193288
  78.8698771 125.6711431  44.2683705  78.3474386 126.9938100  44.7874937
  81.0069529 119.7388815  49.9820875  80.6752854 120.6084226  49.7582090
  80.4115142 119.4225099  50.6614906  74.7425715 123.4784382  37.7150958
  74.9100118 124.3464618  38.0821429  74.5522884 123.6411664  36.7912247
  80.8998192 124.4583901  47.0614225  79.9915069 124.3899309  46.7672986
  80.8485788 124.9355846  47.8896051  74.7214936 125.9342039  38.6997624
  74.6014561 126.3799090  39.5383105  74.0267524 126.2827357  38.1411163
  74.9739058 125.8773547  55.0049123  74.1972392 126.4367467  54.9951987
  75.6129621 126.3630330  55.5263993  82.7659839 122.6600339  48.8392099
  82.1234219 122.9532872  48.1931894  82.2614767 122.5453260  49.6445296
  80.4200002 126.4063513  39.5277959  81.3317858 126.6390899  39.3525656
  79.9109649 126.9900557  38.9653037  75.0571840 125.7660747  50.5372808
  75.9033035 126.1900161  50.6807457  74.9970478 125.1094371  51.2311371
  78.2071285 123.4265115  52.1953982  77.9632217 124.1807176  51.6588257
  78.4831216 123.8050463  53.0301229  77.7635977 122.5821549  47.7767819
  76.9020456 122.8802802  48.0684557  77.7898412 122.7991947  46.8448852
  71.2427537 120.1419414  57.7307651  70.8494482 119.5885612  58.4055295
  72.0593677 120.4529992  58.1214168  74.1595498 121.5577293  55.3227907
  74.9005211 122.1584446  55.2432370  74.3913421 120.8154931  54.7645950
  78.1052661 117.5858396  49.5992189  77.7616930 118.4760038  49.5231299
  78.4731623 117.3960054  48.7361774  78.0702943 127.5767007  38.1064624
  77.5549567 128.3471612  38.3453011  77.7980252 126.9032143  38.7297685
  75.6550054 122.4216708  43.1649862  74.7991651 122.0323558  42.9855501
  76.0677006 122.5008669  42.3049648  77.1849201 119.9563051  47.5641422
  76.6813997 119.9193186  46.7509227  77.4779808 120.8655794  47.6238079
  73.4292087 120.0401781  46.5707604  74.2945084 119.8444590  46.2113493
  73.4969596 119.8112133  47.4976961  77.8589247 125.4494099  39.9324405
  77.5539382 125.7640248  40.7834548  78.8119689 125.5275519  39.9751738
  71.0354406 122.2703989  43.9423971  71.6098158 122.0479170  43.2097164
  71.6225388 122.3392683  44.6952572  71.3623993 124.3008450  37.9619856
  70.5261305 124.6383136  38.2829131  71.2228763 124.1657430  37.0246993
  73.3377074 119.1445238  42.6699040  72.6841486 118.8294255  42.0455655
  73.2957548 118.5220978  43.3958863  76.5714814 125.6327171  46.9946688
  75.6537375 125.8542118  46.8368376  76.9874958 125.7073482  46.1358395
  77.3549862 127.0318587  42.1249368  78.1021681 127.5439984  41.8156490
  77.6241451 126.7102640  42.9853762  79.8028699 124.0675703  44.1068157
  79.0651456 123.5553089  44.4378400  80.0555472 123.6276085  43.2951434
  79.9040326 116.8451955  44.7009927  80.2099203 115.9849319  44.4135842
  80.6292931 117.4369575  44.5008920  72.1153766 125.7582808  42.9676496
  71.3021631 126.0576978  43.3741689  72.6112760 125.3638497  43.6850979
  77.7127978 126.2224632  51.7991390  78.0677365 126.4496106  52.6585856
  78.3600109 126.5543009  51.1768646  71.6067841 123.3301163  48.5837731
  72.2467220 123.1889923  47.8860695  70.7745371 123.0435677  48.2076333
  68.6096457 123.3001488  43.3610718  68.8703274 124.2146822  43.2519879
  69.4313629 122.8325931  43.5107331  70.0821382 124.7139246  50.5309543
  70.7544436 124.5056608  49.8822192  69.2551169 124.5161332  50.0914775
  75.9846954 121.3401187  52.5475204  75.3374870 122.0391136  52.4539680
  76.7547970 121.7737330  52.9151452  71.8260114 124.6867026  52.5991299
  71.2897471 124.2357764  53.2512895  71.2376823 124.8212935  51.8561763
  71.2362373 124.1455677  35.1617763  70.3591840 124.0244478  34.7980009
  71.7120126 123.3541756  34.9096651  67.5599236 123.8223034  49.6844294
  67.4757424 123.2148703  48.9494704  66.7381942 124.3132052  49.6853790
  77.7322949 122.3076597  45.0514489  78.2291649 121.5546559  44.7315559
  76.9609931 122.3440914  44.4857698  74.3157918 124.4493980  44.7786173
  73.9455706 123.8965020  45.4667079  74.8117011 123.8452114  44.2261173
  80.1741944 119.2746191  47.1993847  79.2605024 119.5050417  47.3676054
  80.6035046 119.3584635  48.0507880  79.9448403 127.4636082  49.6993742
  79.2919853 127.7111990  49.0446194  80.3228783 126.6500221  49.3656219
  69.7123252 121.8597971  51.0239279  69.7764578 122.7212802  50.6116677
  69.6490372 121.2471972  50.2911638  69.1875524 123.9321103  54.6712314
  69.8147563 123.5498181  55.2849838  68.3303443 123.7135305  55.0368006
  69.4935314 123.8153529  46.5858217  68.7721900 124.4289497  46.4465690
  70.2828570 124.3511294  46.5074863  72.2961628 121.1507956  52.8598869
  72.8196029 121.3970252  53.6225178  72.0773961 121.9827990  52.4402006
  67.6928909 123.4211630  40.7269994  67.3641615 122.5409009  40.5445099
  68.0468279 123.3659299  41.6146383  70.8070732 123.7084600  41.0945471
  71.1466804 124.2370521  40.3724080  71.2542852 124.0465006  41.8704038
  73.5014173 122.0921651  50.5448539  73.1610993 121.2929464  50.9469219
  72.7953179 122.3923361  49.9725372  74.1530645 119.1770963  48.9975862
  74.9756714 118.7031441  48.8754753  74.3968708 119.9561447  49.4974549
  72.7938879 122.2059222  39.2938764  73.5147242 122.5840474  38.7902481
  72.1704183 122.9248098  39.3973742  76.9370002 122.9104370  40.2297096
  77.1533616 123.7929008  39.9285924  76.4564069 122.5190584  39.5002738
  73.5365606 122.8592632  46.8548730  73.5227175 121.9633725  46.5181028
  74.2538034 122.8663295  47.4887017  75.3891737 123.2929972  48.9001858
  75.1309515 124.2147043  48.8986188  74.8576777 122.8960406  49.5902322
  72.9402502 121.7407012  42.1236301  73.0618413 120.8123658  42.3227188
  72.6504544 121.7545698  41.2114616  75.8093693 119.4261922  45.2603020
  75.8315389 119.4901255  44.3055000  76.2261752 118.5866431  45.4543527
  72.4243582 123.2539009  56.3326233  72.4731737 124.1301132  55.9504003
  72.9666096 122.7116402  55.7597876  80.3200065 126.6303527  54.2419406
  81.2209928 126.4909992  53.9503403  80.3948039 126.7957982  55.1817583
  74.6542870 124.0070382  53.0872592  73.7846180 124.3003948  52.8155180
  74.8902350 124.5910827  53.8079855  77.3581904 120.2249999  50.6038012
  77.8763848 120.9611026  50.2784501  77.0037037 120.5313992  51.4384771
  68.9380842 125.0854680  38.7199418  68.2450087 125.1599035  38.0639454
  68.6932593 124.3215023  39.2420935  77.6094498 116.6450281  46.1238909
  77.8896252 115.9773470  46.7499335  78.3945105 116.8379377  45.6113573
  81.4803356 125.0667915  49.8710484  82.4320779 125.1666013  49.8922708
  81.3106807 124.2746184  50.3808568  79.5017736 122.1523498  50.0569885
  78.9067668 122.4328511  49.3616373  79.2167433 122.6417399  50.8286626
  75.7974765 127.1570088  35.0279988  76.7433870 127.0276296  35.0968406
  75.4189010 126.4184750  35.5049416  84.1085923 125.0785078  49.0311067
  83.5924971 124.2943535  48.8440996  84.9925871 124.7503795  49.1957586
  81.7696650 118.8226094  44.9906879  81.5721471 118.5141182  45.8750211
  82.3796355 119.5487733  45.1204809  73.9817682 125.0820064  34.9634873
  73.0749138 124.7853177  35.0397586  74.2593663 124.7849882  34.0969159
  75.5979748 119.6256954  41.1179114  74.7880476 119.2804039  41.4934360
  76.2864165 119.3164498  41.7066726  77.5270296 118.7035001  42.7403411
  78.0801335 119.1230454  43.3993434  77.7640383 117.7770749  42.7826367
  73.5503395 124.6922074  58.5206175  73.4500122 125.6416431  58.4518266
  73.3324938 124.3640313  57.6482245  72.7516467 121.9406999  35.1046852
  73.6135631 122.2661898  35.3642669  72.9366811 121.1538495  34.5919918
  80.9049103 120.8135526  42.2482075  80.3247772 121.4720330  41.8660127
  80.6385036 119.9912871  41.8369493  79.3552670 120.2140584  44.4503395
  79.8552448 120.3257118  43.6417714  79.9988278 119.9101636  45.0904204
  79.6873981 122.9735616  41.3038423  78.7999836 123.2585267  41.0858618
  80.1027970 122.8129380  40.4565700  83.0388518 122.9982137  45.0192763
  83.8148908 123.4878590  45.2917379  82.3136652 123.4240191  45.4764632
  85.4761076 123.7109757  46.0766703  86.0705567 123.4705492  45.3660011
  85.5487660 122.9916887  46.7040239  83.4719811 124.2779884  42.3438833
  83.2156745 123.8776520  43.1747041  82.8472679 124.9923678  42.2188972
  73.7045910 119.1803042  38.3926561  73.6924580 120.1244882  38.5494832
  74.5969332 118.9973188  38.0986022  77.5198029 115.7745819  42.6472498
  76.7530425 115.2204306  42.7929180  77.9308734 115.8467688  43.5086649
  69.5239790 122.0630615  56.7377679  70.3871252 121.7067420  56.9481004
  68.9505201 121.7244510  57.4253083  13.4931887  13.3951170  34.2685387
  14.1310297  13.2757918  33.5648727  13.3752730  14.3432014  34.3273339
  10.7841376  14.5013450  40.1633117  10.7730017  14.1066248  39.2913621
  10.9462016  13.7679523  40.7566888   7.5048638  17.2850562  39.1112301
   7.2138504  18.1896193  38.9958967   8.1405622  17.3267089  39.8256371
   8.4304844  14.6627410  35.7013661   9.0268417  14.4383433  34.9870624
   8.4879816  13.9212156  36.3039108  18.4481583  11.0577857  32.2471573
  19.1806755  10.4877074  32.4809403  17.6920938  10.6699458  32.6878079
  12.4638523  16.9711977  36.1062095  12.1639246  17.8737016  35.9977902
  12.1189582  16.7044161  36.9583248   7.4459302  23.7356298  29.0733062
   7.3683332  24.6864123  29.1521543   6.8420946  23.3902170  29.7307989
  17.7297313   7.6910956  35.5637406  17.0871693   7.9843489  34.9177200
  17.2252241   7.5763876  36.3690603   8.1922905  13.7169616  41.2912396
   8.9337589  14.2554660  41.0147220   7.4859890  14.3435905  41.4483948
  13.6678244  15.8598757  39.8884558  14.0761600  15.4181167  39.1439190
  12.9455506  15.2851384  40.1418751  13.9907059  16.4199948  33.6436847
  13.3615921  16.5845662  32.9412914  13.6032721  16.8341557  34.4147811
  17.8696291  17.3554385  30.9981210  17.1847329  17.7353287  30.4478244
  17.9540140  17.9649712  31.7313158  15.1247222  15.0014344  37.5976554
  15.3364118  15.6446104  36.9210935  15.0776971  14.1676661  37.1298484
  16.2393050  17.8786300  35.7698911  17.0610494  17.4766487  35.4881593
  16.2355453  17.7754534  36.7215027  10.0049654  17.4270343  37.9259622
  10.0694086  17.8890750  38.7617794   9.2960578  16.7967708  38.0541932
  24.3299043  14.2225048  32.1183883  23.5762752  13.6532446  31.9627887
  24.4646585  14.1887713  33.0654517  11.3466148  19.7162017  41.9238944
  10.9030002  18.9298396  41.6059849  12.0083361  19.9041168  41.2582835
   6.1053269  21.2457819  36.4499623   6.6560694  21.1174882  35.6776617
   5.2664745  21.5452708  36.0994515  13.4447386  19.9964817  39.9520345
  13.4265861  20.8173698  39.4600615  14.3667306  19.8718892  40.1770487
   9.9020440  17.5108947  40.7943854  10.4348777  16.7497235  40.5643162
   9.3734521  17.2182598  41.5368008  16.2465999  14.8343959  33.4229712
  15.5889673  15.5243221  33.5109841  17.0506398  15.2240391  33.7663698
  15.8233254  18.1694334  29.6012796  15.3695581  17.3285244  29.6577987
  15.1927220  18.8055732  29.9387577  14.2666193  20.0070830  30.5362615
  14.5589167  20.5675887  29.8174980  14.7764814  20.2999391  31.2915774
   9.2299818  20.7851181  31.6256068   9.1875997  21.0112028  30.6964600
  10.1462517  20.5514556  31.7741869  12.6765452  11.2535249  38.5236697
  13.0314840  11.4806722  39.3831163  13.3237583  11.5853626  37.9013952
  18.4332568  16.4430212  34.2397298  18.8669075  16.3505501  35.0880352
  19.1464149  16.4187712  33.6017314  12.1660463  20.0432306  35.7730398
  12.2197486  20.6123242  36.5408114  11.2975245  20.2134191  35.4084435
  19.2948118  16.4853913  36.7730183  19.4884008  17.3899723  37.0189458
  19.1948736  16.0261332  37.6068768  14.3563227  16.6360655  42.3471064
  14.2048733  16.4071207  41.4301147  14.3467906  17.5931257  42.3602409
  11.1248563  14.2092568  37.3317330  12.0540623  14.3603728  37.1586297
  10.7039593  14.2976589  36.4765977   9.9236895  18.2343232  35.1015868
   9.7847981  17.8662017  35.9741806   9.1351491  18.7490872  34.9299825
  11.4742110  17.6124835  32.4904705  11.1391943  17.5725605  33.3862355
  10.9746056  16.9469551  32.0175116   8.0768655  12.7312424  37.5040966
   8.7868273  12.0905617  37.4627585   8.0337963  12.9825319  38.4267147
  16.0655433  19.6679778  40.4247545  16.0067980  18.9838998  39.7578128
  16.4674952  20.4098768  39.9728171   5.0846132  26.4841692  33.2181264
   5.3242730  27.1160216  33.8960283   4.2415329  26.1329732  33.5046624
  16.0672841  17.6319362  38.6561525  15.1799619  17.2945284  38.7787924
  16.6371392  16.9002393  38.8930291   9.5973994  22.2920814  35.6222768
   9.5244166  23.0975786  36.1342073   9.1551387  22.4912780  34.7970790
  20.5490181  13.0427579  33.4178087  20.5380057  13.9252295  33.0472020
  19.6807561  12.6899130  33.2232624  12.0572678  22.1907648  37.7780927
  12.7700650  22.8255113  37.7056828  11.5662706  22.2871514  36.9620929
   7.1084591  19.9402092  38.5986498   7.8094051  20.5738575  38.7515892
   6.6379706  20.2816823  37.8382137  14.9085877  12.4946699  36.4239048
  14.2557327  12.7422606  35.7691501  15.2866257  11.6810837  36.0901525
  11.8693051  22.5306392  30.5267218  12.0515445  21.7128048  30.9894971
  12.6926037  22.7474084  30.0892108  10.9573450  13.2366510  42.9105085
  10.2814087  13.1360639  43.5807460  11.7801084  13.0805724  43.3741082
   2.7052309  19.4738447  35.5317600   3.2905746  18.7282135  35.6645505
   2.5077148  19.7842403  36.4154264   9.6996233  24.5433438  37.1462701
  10.2514541  24.7065059  37.9111786  10.0402426  25.1337875  36.4742726
  14.5507107  19.3694695  43.0011356  15.0947011  19.9824653  42.5066310
  13.9693952  19.9274273  43.5178369  12.8364620  22.4915413  34.1326383
  12.7115760  21.6905153  33.6237329  13.4943711  22.9861606  33.6440353
  14.8999529  20.2924433  35.7605933  13.9529864  20.1729784  35.6884260
  15.2482302  19.4046931  35.8432195  11.9045962  20.0877149  31.9610286
  11.7570924  19.1593857  32.1417856  12.7299455  20.1097240  31.4767361
  15.5080084  20.9105708  33.0475158  16.4326631  20.7048569  32.9099610
  15.3395387  20.6622109  33.9564500  15.2975400  21.4291376  28.4037250
  15.4712278  20.8637798  27.6511102  15.7904291  22.2292270  28.2216740
  21.1514791  14.1927798  30.0227550  21.5945937  13.4435124  29.6246673
  20.2741301  14.1837935  29.6401282   9.8462044  22.1091919  39.1611356
  10.1549171  21.8641066  40.0334055  10.6437526  22.3138558  38.6730226
   9.8682656  24.2629829  31.3916732   9.4287647  23.7706207  32.0849589
  10.6190773  23.7202796  31.1508807   7.3156528  19.8067838  33.4639034
   6.6936538  19.1438543  33.1641262   7.9861395  19.8328970  32.7812682
  17.8735902  18.8290749  42.3372677  17.0831445  18.8114888  41.7977176
  17.6369256  19.3679043  43.0921714  17.9933777  15.6783215  39.6505405
  18.0431782  15.5133223  40.5920928  17.8847700  14.8110475  39.2603286
  15.2837539  11.6614144  40.9664712  16.1847402  11.5220608  40.6748710
  15.3585514  11.8268598  41.9062890  19.4951974  18.0980157  39.8947427
  19.2036782  18.4610138  40.7310888  18.8824105  17.3847165  39.7160759
  20.6947656  15.6633037  32.4149997  21.5294547  16.1022841  32.5787558
  20.8306785  15.1871690  31.5958243  17.7439162  13.2212772  38.3627485
  18.2193283  13.4140418  37.5546336  16.8204727  13.2771957  38.1170869
  16.4440831  10.0978532  36.5955791  17.3958254  10.1976629  36.6168015
  16.2744281   9.3056800  37.1053875  18.9228909  13.3184651  35.7098090
  18.8905229  12.3800652  35.8957774  19.5329532  13.3968688  34.9763915
  19.0723397  10.1095695  35.7556373  18.5562446   9.3254151  35.5686302
  19.9563346   9.7814411  35.9202893  24.7405458  14.3800658  34.8504127
  25.4708847  14.1185946  35.4111830  24.1312404  13.6429380  34.8906195
  22.8220756  12.5208521  35.4478578  22.0953919  12.3864486  34.8395070
  22.4068042  12.8285349  36.2535296  10.6450932  16.2398451  43.2125951
  11.5653941  16.4177050  43.4065998  10.6100515  15.2954496  43.0605651
   8.3772140  13.1529830  44.0616543   7.8939222  13.9530190  44.2680432
   8.4633079  13.1637775  43.1083987   4.3045477  17.0434364  36.0984977
   5.2588731  17.0118307  36.0314908   4.1058001  16.5824988  36.9135203
   4.8944859  15.6135481  38.6655774   5.7137748  16.1079559  38.6890612
   5.1681667  14.6967449  38.6373342   2.6595706  22.5853984  33.1155175
   2.5250174  21.8254385  32.5493173   2.2427768  23.3094884  32.6483964
  22.7469623  12.0486574  31.5755431  22.1869181  12.1179763  32.3486993
  22.1413127  11.8727559  30.8554927   5.8164832  23.4823301  33.3273617
   5.6997216  24.4268733  33.2252308   4.9957278  23.1796863  33.7159417
  12.6733166  17.0154462  44.8640112  13.5424326  17.1895114  44.5026747
  12.1939917  17.8348879  44.7415841   6.8419346  24.1351563  36.5429546
   7.7446593  24.1675173  36.8596041   6.6156716  23.2052014  36.5575882
   8.5972948  22.8882549  33.2039624   7.6468579  22.8884411  33.0903997
   8.9005434  22.1415284  32.6875659  24.3325642  28.7243088  34.2685387
  24.9704052  28.6049835  33.5648727  24.2146485  29.6723932  34.3273339
  21.1415348  28.6770516  34.2046911  20.8033859  28.5611581  33.3167446
  22.0105116  28.2761681  34.1847918  17.0002164  30.5305992  30.1943802
  16.4367029  30.4395929  29.4260090  16.8854559  29.7105897  30.6746295
  21.6235131  29.8305368  40.1633117  21.6123772  29.4358166  39.2913621
  21.7855770  29.0971440  40.7566888  14.5466596  32.0257184  33.0328023
  15.3387887  31.6848009  32.6174322  14.7863246  32.1352159  33.9530176
  22.5801722  34.1976960  25.5058267  21.9289702  34.7831040  25.1192281
  23.3746085  34.7283155  25.5653305  16.5057349  31.2866097  25.9045402
  17.2788226  30.7395084  25.7658277  16.8582748  32.1510347  26.1159863
  18.3442392  32.6142479  39.1112301  18.0532258  33.5188110  38.9958967
  18.9799376  32.6559007  39.8256371  19.2698599  29.9919328  35.7013661
  19.8662171  29.7675350  34.9870624  19.3273570  29.2504073  36.3039108
  18.8423627  27.4458763  23.5363852  19.0949148  26.9240285  22.7747315
  17.9048186  27.2824909  23.6390535  23.8866910  26.4494542  31.3438595
  24.6729999  26.0313965  30.9929012  24.1505614  27.3540634  31.5120243
  24.0576987  31.8867392  26.0427252  23.4222820  31.9602018  26.7548156
  23.7274394  32.4760991  25.3646331  29.2875337  26.3869775  32.2471573
  30.0200509  25.8168992  32.4809403  28.5314693  25.9991375  32.6878079
  18.5619916  29.3486869  25.7388227  18.4456174  28.6731773  26.4069311
  18.6722176  28.8619243  24.9220380  20.9051457  28.8097016  29.4434916
  20.5409664  28.2827637  30.1547837  21.7618573  28.4195485  29.2701401
  26.8100758  20.0991349  36.7066182  26.4784082  20.9686760  36.4827397
  26.2146371  19.7827633  37.3860212  23.3032277  32.3003895  36.1062095
  23.0033000  33.2028934  35.9977902  22.9583337  32.0336078  36.9583248
  16.7544759  28.7517692  32.1398799  15.8295255  28.6193906  32.3476491
  17.0029172  29.5311911  32.6368741  26.7029421  24.8186435  33.7859532
  25.7946298  24.7501844  33.4918293  26.6517017  25.2958380  34.6141357
  20.5246165  26.2944574  25.4242931  20.4045790  26.7401624  26.2628411
  19.8298753  26.6429891  24.8656469  14.1153570  28.3950965  32.9742588
  14.2445951  28.6485444  33.8882000  13.4351021  28.9878673  32.6547243
  18.2853057  39.0648215  29.0733062  18.2077087  40.0156040  29.1521543
  17.6814701  38.7194088  29.7307989  20.7770287  26.2376081  41.7294429
  20.0003621  26.7970001  41.7197294  21.4160850  26.7232864  42.2509299
  28.5691067  23.0202874  35.5637406  27.9265448  23.3135407  34.9177200
  28.0645996  22.9055794  36.3690603  26.2231231  26.7666047  26.2523265
  27.1349087  26.9993433  26.0770963  25.7140878  27.3503091  25.6898344
  19.0316659  29.0461534  41.2912396  19.7731343  29.5846578  41.0147220
  18.3253644  29.6727823  41.4483948  24.5071999  31.1890675  39.8884558
  24.9155355  30.7473085  39.1439190  23.7849260  30.6143302  40.1418751
  20.8603069  26.1263281  37.2618115  21.7064264  26.5502695  37.4052764
  20.8001706  25.4696906  37.9556678  24.8300813  31.7491865  33.6436847
  24.2009676  31.9137579  32.9412914  24.4426475  32.1633475  34.4147811
  28.7090045  32.6846303  30.9981210  28.0241083  33.0645204  30.4478244
  28.7933895  33.2941630  31.7313158  24.0102514  23.7867650  38.9199288
  23.7663446  24.5409710  38.3833564  24.2862445  24.1652997  39.7546535
  25.9640977  30.3306262  37.5976554  26.1757872  30.9738022  36.9210935
  25.9170725  29.4968579  37.1298484  23.5667206  22.9424083  34.5013126
  22.7051685  23.2405336  34.7929864  23.5929640  23.1594482  33.5694159
  20.3828775  31.4866273  30.9086932  20.8467121  31.7653976  30.1191554
  20.1185573  30.5849718  30.7260022  17.2752856  31.0337755  33.8466695
  17.8454213  31.4625023  33.2084179  17.8660968  30.7520340  34.5450881
  19.3197661  27.6089426  27.7176497  20.0221705  28.0610469  28.1850423
  18.9878290  26.9673245  28.3456390  17.7678023  26.2001182  42.0927706
  17.1376683  26.8817463  42.3263103  17.6614111  26.0884264  41.1480844
  13.0622995  25.8672978  33.0193630  12.2722049  26.1230507  32.5433741
  13.5534243  26.6821316  33.1245671  27.0786805  33.2078217  35.7698911
  27.9004248  32.8058405  35.4881593  27.0749208  33.1046452  36.7215027
  15.0137741  26.2317558  29.9777107  14.2168904  26.3436252  30.4960603
  14.7863333  26.5704210  29.1117998  20.8443408  32.7562261  37.9259622
  20.9087841  33.2182668  38.7617794  20.1354332  32.1259626  38.0541932
  11.3460698  26.1203469  35.4508621  11.5968737  27.0050479  35.7166197
  11.8820247  25.9408070  34.6783713  35.1692798  29.5516966  32.1183883
  34.4156506  28.9824364  31.9627887  35.3040339  29.5179630  33.0654517
  20.5591426  34.4230368  27.7938602  20.4237101  35.2681904  28.2223450
  21.1001238  34.6249646  27.0304536  17.0458766  20.5021948  44.4552957
  16.6525711  19.9488147  45.1300602  17.8624906  20.8132527  44.8459475
  14.0120823  31.9405806  28.3666527  14.5245344  32.7349057  28.5172092
  14.6643536  31.2432097  28.3000129  15.8215708  35.0571563  30.4489280
  15.9982336  35.9789527  30.2610264  16.6172541  34.7429982  30.8783660
  19.9626727  21.9179827  42.0473214  20.7036440  22.5186980  41.9677676
  20.1944649  21.1757465  41.4891256  15.1068065  27.1036194  40.3251444
  14.9921580  26.2021452  40.6258542  14.2512582  27.3499891  39.9736260
  22.1859902  35.0453935  41.9238944  21.7423756  34.2590313  41.6059849
  22.8477116  35.2333085  41.2582835  16.9447023  36.5749736  36.4499623
  17.4954449  36.4466800  35.6776617  16.1058499  36.8744625  36.0994515
  24.2841140  35.3256735  39.9520345  24.2659616  36.1465616  39.4600615
  25.2061060  35.2010810  40.1770487  20.7414194  32.8400864  40.7943854
  21.2742531  32.0789152  40.5643162  20.2128276  32.5474516  41.5368008
  23.9083889  17.9460930  36.3237496  23.5648159  18.8362572  36.2476606
  24.2762852  17.7562588  35.4607081  11.9769740  30.2694461  29.1426098
  12.8144962  30.6791469  28.9259805  12.1548008  29.3293903  29.1126292
  23.8734172  27.9369541  24.8309931  23.3580796  28.7074146  25.0698318
  23.6011481  27.2634677  25.4542992  21.4581283  22.7819242  29.8895169
  20.6022880  22.3926092  29.7100808  21.8708235  22.8611203  29.0294955
  22.9880430  20.3165585  34.2886729  22.4845225  20.2795720  33.4754534
  23.2811037  21.2258328  34.3483385  19.2323316  20.4004315  33.2952911
  20.0976312  20.2047124  32.9358800  19.3000825  20.1714667  34.2222267
  28.8468446  30.6901896  26.7663104  28.0697889  30.3513055  26.3218266
  29.5259927  30.6954519  26.0918069  23.6620475  25.8096633  26.6569712
  23.3570611  26.1242783  27.5079855  24.6150917  25.8878053  26.6997045
  22.1066907  31.9686857  28.3062666  21.5788269  31.2339616  27.9935903
  21.6054410  32.7461533  28.0602634  27.0859753  30.1635877  33.4229712
  26.4283428  30.8535139  33.5109841  27.8900152  30.5532309  33.7663698
  16.8385635  22.6306523  30.6669277  17.4129387  22.4081704  29.9342470
  17.4256617  22.6995217  31.4197879  25.8965212  28.5180250  31.4733654
  26.4097094  29.1510242  31.9755364  26.5466436  27.9181445  31.1077014
  19.1408303  19.5047772  29.3944347  18.4872715  19.1896789  28.7700962
  19.0988777  18.8823512  30.1204170  20.2519507  29.7867067  21.3097639
  19.3446569  29.5556320  21.5088788  20.7490539  28.9904686  21.4971620
  23.1587586  38.4964574  24.2294325  22.4849285  38.7996271  24.8379283
  23.5453408  39.2993654  23.8799782  22.3746043  25.9929705  33.7191994
  21.4568604  26.2144652  33.5613682  22.7906186  26.0676016  32.8603702
  23.1581091  27.3921121  28.8494675  23.9052910  27.9042518  28.5401797
  23.4272680  27.0705174  29.7099068  21.4307741  29.8879662  25.8321629
  20.5218960  29.6038695  25.9294099  21.4602825  30.3078740  24.9724936
  26.6627008  33.4986251  29.6012796  26.2089335  32.6577161  29.6577987
  26.0320975  34.1347650  29.9387577  25.6059928  24.4278237  30.8313464
  24.8682685  23.9155624  31.1623707  25.8586701  23.9878619  30.0196741
  25.1059947  35.3362748  30.5362615  25.3982922  35.8967805  29.8174980
  25.6158568  35.6291309  31.2915774  25.7071555  17.2054489  31.4255233
  26.0130432  16.3451853  31.1381148  26.4324160  17.7972110  31.2254227
  11.9995911  27.6085176  29.8136831  11.8020311  27.0154537  29.0887898
  11.4442575  27.3037386  30.5312770  19.9792635  27.5008282  31.9331424
  20.0341245  26.5482119  31.8573901  19.1683837  27.6567722  32.4172723
  21.1283829  31.4288405  23.1709708  20.6903259  30.7124264  22.7115345
  21.8694269  31.6564520  22.6094799  17.9184995  26.1185342  29.6921803
  17.1052860  26.4179513  30.0986995  18.4143989  25.7241031  30.4096285
  20.0693573  36.1143099  31.6256068  20.0269751  36.3403945  30.6964600
  20.9856272  35.8806474  31.7741869  23.5159206  26.5827167  38.5236697
  23.8708594  26.8098640  39.3831163  24.1631338  26.9145543  37.9013952
  29.2456943  29.7045603  29.2286026  29.1074842  29.8947198  28.3007215
  28.8893162  30.4664985  29.6854077  17.4099070  23.6903698  35.3083038
  18.0498449  23.5492457  34.6106001  16.5776600  23.4038211  34.9321640
  29.2726323  31.7722130  34.2397298  29.7062830  31.6797419  35.0880352
  29.9857904  31.7479630  33.6017314  18.1859373  32.9906128  31.4218031
  18.9799972  32.4956448  31.2200606  17.4751066  32.4623991  31.0585736
  23.0054218  35.3724224  35.7730398  23.0591240  35.9415160  36.5408114
  22.1368999  35.5426109  35.4084435  14.4942137  27.1349210  27.4977783
  13.5639725  27.0733665  27.7147745  14.5899609  26.6125163  26.7014424
  14.4127686  23.6604023  30.0856025  14.6734503  24.5749356  29.9765185
  15.2344858  23.1928465  30.2352638  15.8852611  25.0741780  37.2554849
  16.5575665  24.8659142  36.6067498  15.0582398  24.8763866  36.8160082
  30.1341873  31.8145830  36.7730183  30.3277763  32.7191641  37.0189458
  30.0342491  31.3553249  37.6068768  21.7878183  21.7003721  39.2720510
  21.1406098  22.3993670  39.1784987  22.5579199  22.1339865  39.6396759
  25.1956981  31.9652573  42.3471064  25.0442488  31.7363125  41.4301147
  25.1861661  32.9223174  42.3602409  21.9642318  29.5384486  37.3317330
  22.8934378  29.6895645  37.1586297  21.5433348  29.6268506  36.4765977
  20.7630649  33.5635150  35.1015868  20.6241735  33.1953934  35.9741806
  19.9745246  34.0782790  34.9299825  21.3578801  38.6644247  26.4441404
  21.5330557  38.1932290  27.2587027  20.6711589  39.2910013  26.6722665
  22.3135865  32.9416753  32.4904705  21.9785697  32.9017523  33.3862355
  21.8139810  32.2761469  32.0175116  16.2880109  28.3484383  38.0157287
  16.1499906  27.6164622  38.6168826  17.1985032  28.2593283  37.7341474
  25.2495056  30.2872787  22.7641765  24.6324227  29.5619615  22.6674818
  24.7811545  31.0482147  22.4208839  18.9162409  28.0604342  37.5040966
  19.6262028  27.4197534  37.4627585  18.8731717  28.3117237  38.4267147
  26.9049188  34.9971695  40.4247545  26.8461734  34.3130916  39.7578128
  27.3068706  35.7390685  39.9728171  17.6291343  25.0469560  39.3236606
  17.0928700  24.5960298  39.9758202  17.0408052  25.1815469  38.5807070
  15.9239887  41.8133609  33.2181264  16.1636485  42.4452133  33.8960283
  15.0809083  41.4621649  33.5046624  26.9066595  32.9611279  38.6561525
  26.0193374  32.6237201  38.7787924  27.4765146  32.2294311  38.8930291
   8.5595742  29.2935371  31.9804577   9.2466782  28.9797101  31.3925592
   8.4043871  30.1976736  31.7071828  13.3630464  24.1825568  36.4089600
  13.2788653  23.5751237  35.6740010  12.5413171  24.6734586  36.4099097
  20.4367749  37.6212732  35.6222768  20.3637920  38.4267703  36.1342073
  19.9945142  37.8204698  34.7970790  20.2257528  36.8584502  29.1325590
  19.4425050  37.4006182  29.2263814  20.9250273  37.3758481  29.5319831
  23.5354178  22.6679131  31.7759795  24.0322878  21.9149094  31.4560865
  22.7641160  22.7043448  31.2103005  31.3883936  28.3719497  33.4178087
  31.3773812  29.2544212  33.0472020  30.5201315  28.0191048  33.2232624
  22.8966432  37.5199566  37.7780927  23.6094404  38.1547031  37.7056828
  22.4056461  37.6163432  36.9620929  24.6183959  31.4250818  29.3498219
  23.6840238  31.5452281  29.1802923  24.7960627  30.5223285  29.0858228
  20.1189147  24.8096514  31.5031480  19.7486935  24.2567555  32.1912385
  20.6148239  24.2054648  30.9506480  28.0056510  27.2668138  29.8848253
  28.4716963  28.0996129  29.8108555  28.4564011  26.8013119  30.5893511
  17.9478346  35.2694009  38.5986498  18.6487805  35.9030492  38.7515892
  17.4773461  35.6108741  37.8382137  26.0732741  33.6111959  26.8834405
  26.3492585  33.4968554  27.7928279  25.2037240  33.2129444  26.8446578
  25.9773173  19.6348725  33.9239154  25.0636253  19.8652952  34.0921361
  26.4066275  19.7187169  34.7753186  25.7479632  27.8238617  36.4239048
  25.0951082  28.0714524  35.7691501  26.1260011  27.0102755  36.0901525
  22.7086805  37.8598310  30.5267218  22.8909200  37.0419966  30.9894971
  23.5319791  38.0766002  30.0892108  23.0428971  36.7866495  27.7882267
  23.5716737  36.2758950  27.1752429  23.3057191  36.4709025  28.6527800
  21.7967205  28.5658428  42.9105085  21.1207842  28.4652557  43.5807460
  22.6194838  28.4097642  43.3741082  13.5446064  34.8030364  35.5317600
  14.1299500  34.0574052  35.6645505  13.3470902  35.1134321  36.4154264
  16.3984719  37.8381612  30.5480043  15.7295094  38.3227739  30.0644083
  16.2597589  38.0850832  31.4623421   8.1363718  27.3735965  34.2522044
   8.1747818  26.8399555  35.0459162   7.6304011  26.8471170  33.6333021
  20.5389987  39.8725355  37.1462701  21.0908295  40.0356977  37.9111786
  20.8796181  40.4629793  36.4742726  15.5154481  22.2200505  37.7484586
  15.5795807  23.0815336  37.3361984  15.4521601  21.6074507  37.0156944
  14.9906753  24.2923638  41.3957620  15.6178792  23.9100715  42.0095145
  14.1334672  24.0737839  41.7613313  25.3900862  34.6986613  43.0011356
  25.9340766  35.3116571  42.5066310  24.8087707  35.2566191  43.5178369
  11.7672296  26.1000067  27.3275975  12.0625737  25.1910745  27.2743029
  10.8660332  26.0787806  27.0056977  23.6758375  37.8207331  34.1326383
  23.5509514  37.0197071  33.6237329  24.3337466  38.3153524  33.6440353
  15.2966543  24.1756063  33.3103524  14.5753129  24.7892031  33.1710997
  16.0859799  24.7113828  33.2320170  25.7393283  35.6216351  35.7605933
  24.7923619  35.5021702  35.6884260  26.0876056  34.7338849  35.8432195
  18.0992856  21.5110490  39.5844175  18.6227258  21.7572786  40.3470485
  17.8805190  22.3430525  39.1647313  13.4960138  23.7814164  27.4515300
  13.1672844  22.9011543  27.2690406  13.8499508  23.7261833  28.3391689
  22.7439716  35.4169067  31.9610286  22.5964679  34.4885774  32.1417856
  23.5693210  35.4389158  31.4767361  16.6101961  24.0687134  27.8190778
  16.9498033  24.5973055  27.0969386  17.0574081  24.4067540  28.5949344
  26.3473838  36.2397626  33.0475158  27.2720386  36.0340487  32.9099610
  26.1789142  35.9914027  33.9564500  19.3045402  22.4524185  37.2693846
  18.9642222  21.6531998  37.6714526  18.5984408  22.7525896  36.6970679
  19.9561873  19.5373497  35.7221169  20.7787943  19.0633975  35.6000059
  20.1999937  20.3163981  36.2219855  18.5970108  22.5661756  26.0184071
  19.3178470  22.9443009  25.5147787  17.9735412  23.2850633  26.1219049
  22.7401231  23.2706905  26.9542403  22.9564845  24.1531543  26.6531231
  22.2595298  22.8793118  26.2248045  17.4800452  26.2292618  33.5313148
  17.3345033  26.5432921  34.4237429  17.0025656  26.8477518  32.9784046
  19.3396835  23.2195166  33.5794037  19.3258404  22.3236259  33.2426335
  20.0569263  23.2265830  34.2132323  21.1922966  23.6532506  35.6247165
  20.9340744  24.5749577  35.6231495  20.6608006  23.2562941  36.3147629
  26.1369154  36.7583293  28.4037250  26.3106032  36.1929716  27.6511102
  26.6298046  37.5584188  28.2216740  11.9546114  28.7697962  36.4700809
  11.4099582  29.5457770  36.6021083  12.8325464  29.1168767  36.3119930
  18.7433731  22.1009546  28.8481607  18.8649642  21.1726192  29.0472495
  18.4535773  22.1148232  27.9359923  21.6124921  19.7864457  31.9848327
  21.6346618  19.8503790  31.0300307  22.0292980  18.9468965  32.1788833
  31.9908546  29.5219716  30.0227550  32.4339692  28.7727041  29.6246673
  31.1135056  29.5129853  29.6401282  27.1244327  36.0750058  25.5034148
  27.8195232  36.6956750  25.7221463  27.4667477  35.2245409  25.7786526
  12.7412136  27.8967859  39.3630966  11.9993872  28.0450494  39.9495596
  12.4204880  28.1576124  38.4997715  29.0235750  33.5249763  27.0321479
  29.5487074  33.8637036  26.3070799  28.9358103  32.5896778  26.8484614
  20.6855799  37.4383837  39.1611356  20.9942925  37.1932984  40.0334055
  21.4831281  37.6430475  38.6730226  20.7076411  39.5921746  31.3916732
  20.2681401  39.0998125  32.0849589  21.4584528  39.0494714  31.1508807
  13.1868750  35.7833287  31.3941360  14.0126770  35.4837059  31.0140004
  12.8362802  35.0140910  31.8431149  18.1550283  35.1359756  33.4639034
  17.5330292  34.4730461  33.1641262  18.8255150  35.1620887  32.7812682
  11.3877355  33.7019614  32.3530294  10.5509263  33.2741788  32.1714295
  11.3601000  33.8952057  33.2901085  18.2274810  23.6141544  43.0571540
  18.2762966  24.4903666  42.6749309  18.7697325  23.0718937  42.4843183
  28.7129656  34.1582667  42.3372677  27.9225200  34.1406806  41.7977176
  28.4763011  34.6970960  43.0921714  28.8327531  31.0075133  39.6505405
  28.8825536  30.8425141  40.5920928  28.7241455  30.1402392  39.2603286
  17.7163790  33.6863679  26.9397494  17.8651910  34.3699143  26.2864167
  18.5230233  33.6668769  27.4546950  26.1231294  26.9906061  40.9664712
  27.0241156  26.8512526  40.6748710  26.1979268  27.1560516  41.9062890
  20.4574099  24.3672916  39.8117898  19.5877408  24.6606482  39.5400487
  20.6933579  24.9513361  40.5325162  30.3345728  33.4272075  39.8947427
  30.0430536  33.7902055  40.7310888  29.7217859  32.7139083  39.7160759
  31.5341410  30.9924954  32.4149997  32.3688302  31.4314759  32.5787558
  31.6700539  30.5163608  31.5958243  28.5832916  28.5504689  38.3627485
  29.0587038  28.7432336  37.5546336  27.6598482  28.6063875  38.1170869
  15.4716423  29.7128856  27.9458563  15.2262465  28.8091186  28.1438773
  15.6412337  29.7146007  27.0038041  23.1613133  20.5852533  37.3283319
  23.6795077  21.3213560  37.0029807  22.8068266  20.8916526  38.1630078
  23.4125727  17.0052815  32.8484215  23.6927481  16.3376004  33.4744642
  24.1976334  17.1981911  32.3358879  21.2159195  36.1811809  24.4109242
  20.6433162  36.8001996  23.9579714  21.7891989  36.7311171  24.9449164
  27.2834585  25.4270449  36.5955791  28.2352008  25.5268547  36.6168015
  27.1138036  24.6348718  37.1053875  25.3048965  22.5126033  36.7815192
  24.7098897  22.7931045  36.0861680  25.0198661  23.0019934  37.5531933
  24.4356455  36.4648959  25.5417824  25.3687128  36.3994521  25.7450700
  24.3479668  37.3005226  25.0832357  27.0644472  35.7814830  22.5021772
  26.9858103  35.4474693  23.3957530  27.8854139  36.2736598  22.5013244
  29.7622663  28.6476569  35.7098090  29.7298983  27.7092570  35.8957774
  30.3723287  28.7260606  34.9763915  21.6005994  27.5172622  21.7525294
  22.5465099  27.3878830  21.8213712  21.2220239  26.7787284  22.2294722
  29.9117152  25.4387613  35.7556373  29.3956200  24.6546069  35.5686302
  30.7957100  25.1106329  35.9202893  27.5727878  19.1828628  31.7152186
  27.3752700  18.8743716  32.5995518  28.1827584  19.9090267  31.8450116
  35.5799213  29.7092576  34.8504127  36.3102601  29.4477864  35.4111830
  34.9706158  28.9721298  34.8906195  33.6614510  27.8500439  35.4478578
  32.9347674  27.7156403  34.8395070  33.2461797  28.1577267  36.2535296
  21.4844686  31.5690368  43.2125951  22.4047696  31.7468967  43.4065998
  21.4494269  30.6246414  43.0605651  10.7026851  26.7628962  32.1379226
  10.3829636  25.9094270  31.8453600  10.1560280  26.9777540  32.8937193
  14.4806759  29.4791403  35.8548732  14.6992769  30.4108511  35.8736766
  14.8932533  29.1199377  36.6403536  21.4010977  19.9859488  27.8424421
  20.5911705  19.6406573  28.2179667  22.0895394  19.6767032  28.4312032
  23.3301525  19.0637535  29.4648717  23.8832564  19.4832988  30.1238741
  23.5671611  18.1373283  29.5071673  19.3534624  25.0524609  45.2451481
  19.2531351  26.0018966  45.1763572  19.1356166  24.7242848  44.3727551
  10.5715111  30.3831873  34.1072347   9.8778583  29.9685826  33.5942302
  11.3188102  30.4252410  33.5105766  26.7080332  21.1738060  28.9727382
  26.1279001  21.8322864  28.5905434  26.4416265  20.3515405  28.5614799
  25.1583899  20.5743118  31.1748702  25.6583677  20.6859652  30.3663021
  25.8019506  20.2704171  31.8149510  19.2165894  28.4821747  44.0616543
  18.7332976  29.2822108  44.2680432  19.3026833  28.4929692  43.1083987
  12.4851854  30.3150127  31.9838362  12.4622542  30.4137814  31.0320245
  12.7952490  31.1615278  32.3055528  15.1439232  32.3726282  36.0984977
  16.0982485  32.3410224  36.0314908  14.9451755  31.9116906  36.9135203
  15.7338614  30.9427398  38.6655774  16.5531503  31.4371477  38.6890612
  16.0075422  30.0259366  38.6373342  25.4905210  23.3338151  28.0283730
  24.6031065  23.6187801  27.8103925  25.9059199  23.1731914  27.1811007
  28.8419746  23.3584671  31.7438069  29.6180136  23.8481124  32.0162686
  28.1167880  23.7842726  32.2009939  31.2792305  24.0712291  32.8012010
  31.8736796  23.8308027  32.0905318  31.3518889  23.3519421  33.4285546
  13.4989461  37.9145902  33.1155175  13.3643929  37.1546303  32.5493173
  13.0821523  38.6386802  32.6483964  24.6348424  33.0982825  22.1231750
  25.3384274  33.3032828  22.7389406  23.9111072  33.6659587  22.3880833
  25.4646234  28.8492686  28.2434020  25.4081435  29.3061238  27.4041653
  26.0174576  28.0883371  28.0656863  29.2751040  24.6382418  29.0684140
  29.0187974  24.2379054  29.8992347  28.6503908  25.3526212  28.9434279
  33.5863378  27.3778492  31.5755431  33.0262936  27.4471681  32.3486993
  32.9806881  27.2019476  30.8554927  16.6558587  38.8115219  33.3273617
  16.5390971  39.7560651  33.2252308  15.8351033  38.5088780  33.7159417
  26.5435121  33.5365354  24.1730210  27.3780725  33.1046553  23.9907685
  26.3819464  33.3647368  25.1007104  26.1981013  30.0397468  25.5386549
  26.1429817  29.8741739  24.5974993  25.5727069  30.7473501  25.6948739
  10.9873528  25.2765532  39.3647972  11.6332392  24.7664486  39.8535197
  10.7790679  26.0134214  39.9391397  23.5126920  32.3446380  44.8640112
  24.3818080  32.5187032  44.5026747  23.0333672  33.1640796  44.7415841
  17.6813101  39.4643481  36.5429546  18.5840347  39.4967091  36.8596041
  17.4550471  38.5343932  36.5575882  19.4366703  38.2174467  33.2039624
  18.4862334  38.2176329  33.0903997  19.7399189  37.4707202  32.6875659
  23.3229258  16.1348353  29.3717804  22.5561654  15.5806840  29.5174487
  23.7339963  16.2070222  30.2331956  15.3271019  22.4233149  43.4622986
  16.1902481  22.0669954  43.6726310  14.7536430  22.0847044  44.1498390
  35.1719396  44.0535006  34.2685387  35.8097806  43.9341753  33.5648727
  35.0540239  45.0015849  34.3273339  31.9809102  44.0062434  34.2046911
  31.6427614  43.8903498  33.3167446  32.8498871  43.6053599  34.1847918
  27.8395918  45.8597910  30.1943802  27.2760783  45.7687847  29.4260090
  27.7248313  45.0397814  30.6746295  25.3860350  47.3549102  33.0328023
  26.1781642  47.0139926  32.6174322  25.6257000  47.4644077  33.9530176
  33.4195477  49.5268878  25.5058267  32.7683457  50.1122958  25.1192281
  34.2139840  50.0575073  25.5653305  27.3451104  46.6158015  25.9045402
  28.1181980  46.0687002  25.7658277  27.6976503  47.4802264  26.1159863
  30.1092353  45.3211246  35.7013661  30.7055926  45.0967268  34.9870624
  30.1667325  44.5795991  36.3039108  29.6817382  42.7750681  23.5363852
  29.9342902  42.2532202  22.7747315  28.7441941  42.6116826  23.6390535
  34.7260665  41.7786459  31.3438595  35.5123754  41.3605883  30.9929012
  34.9899369  42.6832552  31.5120243  34.8970742  47.2159310  26.0427252
  34.2616575  47.2893936  26.7548156  34.5668148  47.8052908  25.3646331
  40.1269092  41.7161693  32.2471573  40.8594264  41.1460909  32.4809403
  39.3708447  41.3283293  32.6878079  29.4013671  44.6778787  25.7388227
  29.2849929  44.0023690  26.4069311  29.5115930  44.1911161  24.9220380
  31.7445211  44.1388934  29.4434916  31.3803419  43.6119555  30.1547837
  32.6012327  43.7487403  29.2701401  37.6494512  35.4283267  36.7066182
  37.3177837  36.2978678  36.4827397  37.0540126  35.1119551  37.3860212
  31.3850698  39.1678834  24.4396264  31.5525101  40.0359070  24.8066735
  31.1947868  39.3306115  23.5157554  34.1426032  47.6295813  36.1062095
  33.8426755  48.5320851  35.9977902  33.7977091  47.3627996  36.9583248
  27.5938513  44.0809609  32.1398799  26.6689010  43.9485824  32.3476491
  27.8422926  44.8603829  32.6368741  37.5423175  40.1478353  33.7859532
  36.6340053  40.0793761  33.4918293  37.4910771  40.6250298  34.6141357
  31.3639919  41.6236491  25.4242931  31.2439545  42.0693542  26.2628411
  30.6692508  41.9721809  24.8656469  24.9547324  43.7242883  32.9742588
  25.0839705  43.9777362  33.8882000  24.2744775  44.3170591  32.6547243
  29.1246811  54.3940133  29.0733062  29.0470841  55.3447958  29.1521543
  28.5208455  54.0486005  29.7307989  31.6164041  41.5667998  41.7294429
  30.8397375  42.1261919  41.7197294  32.2554604  42.0524781  42.2509299
  39.4084822  38.3494791  35.5637406  38.7659202  38.6427324  34.9177200
  38.9039750  38.2347712  36.3690603  37.0624985  42.0957964  26.2523265
  37.9742842  42.3285351  26.0770963  36.5534633  42.6795009  25.6898344
  31.6996823  41.4555199  37.2618115  32.5458018  41.8794613  37.4052764
  31.6395461  40.7988823  37.9556678  35.6694568  47.0783783  33.6436847
  35.0403430  47.2429497  32.9412914  35.2820230  47.4925392  34.4147811
  39.5483800  48.0138221  30.9981210  38.8634838  48.3937122  30.4478244
  39.6327649  48.6233547  31.7313158  34.8496269  39.1159567  38.9199288
  34.6057200  39.8701628  38.3833564  35.1256199  39.4944915  39.7546535
  34.4060960  38.2716000  34.5013126  33.5445439  38.5697254  34.7929864
  34.4323395  38.4886399  33.5694159  31.2222530  46.8158191  30.9086932
  31.6860875  47.0945894  30.1191554  30.9579328  45.9141636  30.7260022
  28.1146611  46.3629673  33.8466695  28.6847968  46.7916941  33.2084179
  28.7054723  46.0812257  34.5450881  30.1591416  42.9381343  27.7176497
  30.8615459  43.3902387  28.1850423  29.8272044  42.2965162  28.3456390
  28.6071777  41.5293100  42.0927706  27.9770438  42.2109381  42.3263103
  28.5007865  41.4176182  41.1480844  23.9016750  41.1964896  33.0193630
  23.1115804  41.4522425  32.5433741  24.3927997  42.0113234  33.1245671
  37.9180559  48.5370135  35.7698911  38.7398003  48.1350322  35.4881593
  37.9142962  48.4338369  36.7215027  25.8531495  41.5609475  29.9777107
  25.0562658  41.6728169  30.4960603  25.6257087  41.8996127  29.1117998
  22.1854453  41.4495386  35.4508621  22.4362491  42.3342396  35.7166197
  22.7214001  41.2699988  34.6783713  46.0086552  44.8808884  32.1183883
  45.2550261  44.3116282  31.9627887  46.1434094  44.8471548  33.0654517
  31.3985180  49.7522286  27.7938602  31.2630855  50.5973822  28.2223450
  31.9394993  49.9541564  27.0304536  27.8852520  35.8313866  44.4552957
  27.4919466  35.2780064  45.1300602  28.7018660  36.1424444  44.8459475
  24.8514578  47.2697724  28.3666527  25.3639098  48.0640974  28.5172092
  25.5037291  46.5724014  28.3000129  26.6609462  50.3863480  30.4489280
  26.8376091  51.3081445  30.2610264  27.4566296  50.0721899  30.8783660
  30.8020481  37.2471745  42.0473214  31.5430194  37.8478898  41.9677676
  31.0338404  36.5049383  41.4891256  25.9461819  42.4328112  40.3251444
  25.8315334  41.5313369  40.6258542  25.0906337  42.6791809  39.9736260
  27.7840778  51.9041654  36.4499623  28.3348203  51.7758717  35.6776617
  26.9452254  52.2036543  36.0994515  34.7477644  33.2752848  36.3237496
  34.4041913  34.1654490  36.2476606  35.1156607  33.0854505  35.4607081
  22.8163495  45.5986378  29.1426098  23.6538717  46.0083387  28.9259805
  22.9941762  44.6585820  29.1126292  34.7127927  43.2661459  24.8309931
  34.1974550  44.0366064  25.0698318  34.4405235  42.5926595  25.4542992
  32.2975038  38.1111160  29.8895169  31.4416634  37.7218010  29.7100808
  32.7101989  38.1903121  29.0294955  33.8274184  35.6457503  34.2886729
  33.3238980  35.6087638  33.4754534  34.1204791  36.5550246  34.3483385
  30.0717070  35.7296233  33.2952911  30.9370067  35.5339041  32.9358800
  30.1394579  35.5006584  34.2222267  39.6862201  46.0193814  26.7663104
  38.9091644  45.6804973  26.3218266  40.3653682  46.0246437  26.0918069
  34.5014230  41.1388551  26.6569712  34.1964365  41.4534700  27.5079855
  35.4544672  41.2169971  26.6997045  32.9460662  47.2978774  28.3062666
  32.4182023  46.5631534  27.9935903  32.4448164  48.0753451  28.0602634
  37.9253508  45.4927795  33.4229712  37.2677182  46.1827056  33.5109841
  38.7293907  45.8824227  33.7663698  27.6779389  37.9598441  30.6669277
  28.2523141  37.7373622  29.9342470  28.2650372  38.0287135  31.4197879
  36.7358966  43.8472168  31.4733654  37.2490848  44.4802159  31.9755364
  37.3860190  43.2473363  31.1077014  28.0048976  39.9902902  24.6865163
  27.1686289  40.3277588  25.0074437  27.8653746  39.8551881  23.7492300
  29.9802057  34.8339690  29.3944347  29.3266469  34.5188707  28.7700962
  29.9382531  34.2115430  30.1204170  31.0913262  45.1158985  21.3097639
  30.1840324  44.8848238  21.5088788  31.5884294  44.3196604  21.4971620
  33.9981341  53.8256492  24.2294325  33.3243039  54.1288189  24.8379283
  34.3847163  54.6285572  23.8799782  33.2139797  41.3221623  33.7191994
  32.2962359  41.5436570  33.5613682  33.6299941  41.3967934  32.8603702
  33.9974845  42.7213039  28.8494675  34.7446664  43.2334436  28.5401797
  34.2666435  42.3997091  29.7099068  32.2701495  45.2171579  25.8321629
  31.3612715  44.9330612  25.9294099  32.2996579  45.6370658  24.9724936
  37.5020763  48.8278169  29.6012796  37.0483090  47.9869079  29.6577987
  36.8714729  49.4639567  29.9387577  36.4453682  39.7570155  30.8313464
  35.7076439  39.2447541  31.1623707  36.6980456  39.3170537  30.0196741
  35.9453702  50.6654666  30.5362615  36.2376676  51.2259723  29.8174980
  36.4552323  50.9583227  31.2915774  36.5465310  32.5346407  31.4255233
  36.8524186  31.6743770  31.1381148  37.2717914  33.1264027  31.2254227
  22.8389666  42.9377094  29.8136831  22.6414065  42.3446454  29.0887898
  22.2836330  42.6329304  30.5312770  30.8186389  42.8300200  31.9331424
  30.8734999  41.8774036  31.8573901  30.0077591  42.9859639  32.4172723
  31.9677583  46.7580323  23.1709708  31.5297013  46.0416182  22.7115345
  32.7088024  46.9856438  22.6094799  28.7578749  41.4477260  29.6921803
  27.9446615  41.7471430  30.0986995  29.2537743  41.0532949  30.4096285
  30.9087327  51.4435017  31.6256068  30.8663506  51.6695863  30.6964600
  31.8250026  51.2098391  31.7741869  34.3552961  41.9119084  38.5236697
  34.7102349  42.1390557  39.3831163  35.0025092  42.2437461  37.9013952
  40.0850698  45.0337520  29.2286026  39.9468596  45.2239116  28.3007215
  39.7286917  45.7956903  29.6854077  28.2492824  39.0195615  35.3083038
  28.8892203  38.8784374  34.6106001  27.4170355  38.7330129  34.9321640
  40.1120077  47.1014047  34.2397298  40.5456584  47.0089336  35.0880352
  40.8251658  47.0771548  33.6017314  29.0253128  48.3198046  31.4218031
  29.8193726  47.8248366  31.2200606  28.3144820  47.7915909  31.0585736
  33.8447972  50.7016141  35.7730398  33.8984995  51.2707078  36.5408114
  32.9762754  50.8718026  35.4084435  25.3335891  42.4641128  27.4977783
  24.4033479  42.4025583  27.7147745  25.4293363  41.9417080  26.7014424
  25.2521440  38.9895940  30.0856025  25.5128258  39.9041274  29.9765185
  26.0738613  38.5220383  30.2352638  26.7246366  40.4033698  37.2554849
  27.3969419  40.1951060  36.6067498  25.8976152  40.2055784  36.8160082
  32.6271938  37.0295638  39.2720510  31.9799853  37.7285588  39.1784987
  33.3972953  37.4631782  39.6396759  31.6024404  48.8927068  35.1015868
  31.4635490  48.5245852  35.9741806  30.8139000  49.4074707  34.9299825
  32.1972556  53.9936164  26.4441404  32.3724312  53.5224207  27.2587027
  31.5105344  54.6201930  26.6722665  33.1529619  48.2708670  32.4904705
  32.8179452  48.2309440  33.3862355  32.6533565  47.6053386  32.0175116
  27.1273863  43.6776300  38.0157287  26.9893661  42.9456539  38.6168826
  28.0378786  43.5885201  37.7341474  36.0888811  45.6164705  22.7641765
  35.4717981  44.8911533  22.6674818  35.6205299  46.3774065  22.4208839
  29.7556164  43.3896260  37.5040966  30.4655782  42.7489452  37.4627585
  29.7125472  43.6409155  38.4267147  28.4685098  40.3761478  39.3236606
  27.9322455  39.9252216  39.9758202  27.8801806  40.5107387  38.5807070
  26.7633641  57.1425527  33.2181264  27.0030239  57.7744051  33.8960283
  25.9202838  56.7913567  33.5046624  27.8787357  39.8350129  21.8863069
  27.0016823  39.7138930  21.5225316  28.3545110  39.0436207  21.6341958
  19.3989497  44.6227289  31.9804577  20.0860537  44.3089019  31.3925592
  19.2437625  45.5268653  31.7071828  24.2024219  39.5117485  36.4089600
  24.1182408  38.9043155  35.6740010  23.3806925  40.0026504  36.4099097
  31.2761503  52.9504649  35.6222768  31.2031675  53.7559621  36.1342073
  30.8338896  53.1496615  34.7970790  31.0651283  52.1876419  29.1325590
  30.2818805  52.7298100  29.2263814  31.7644028  52.7050399  29.5319831
  34.3747933  37.9971049  31.7759795  34.8716632  37.2441011  31.4560865
  33.6034914  38.0335366  31.2103005  42.2277690  43.7011414  33.4178087
  42.2167566  44.5836130  33.0472020  41.3595070  43.3482965  33.2232624
  35.4577713  46.7542736  29.3498219  34.5233992  46.8744199  29.1802923
  35.6354382  45.8515203  29.0858228  30.9582902  40.1388432  31.5031480
  30.5880689  39.5859472  32.1912385  31.4541994  39.5346565  30.9506480
  38.8450265  42.5960055  29.8848253  39.3110717  43.4288047  29.8108555
  39.2957765  42.1305037  30.5893511  36.9126496  48.9403877  26.8834405
  37.1886340  48.8260471  27.7928279  36.0430995  48.5421362  26.8446578
  36.8166928  34.9640642  33.9239154  35.9030007  35.1944869  34.0921361
  37.2460029  35.0479086  34.7753186  36.5873386  43.1530534  36.4239048
  35.9344836  43.4006442  35.7691501  36.9653766  42.3394673  36.0901525
  33.5480560  53.1890228  30.5267218  33.7302954  52.3711883  30.9894971
  34.3713546  53.4057920  30.0892108  33.8822725  52.1158413  27.7882267
  34.4110492  51.6050867  27.1752429  34.1450945  51.8000943  28.6527800
  24.3839818  50.1322282  35.5317600  24.9693255  49.3865970  35.6645505
  24.1864657  50.4426239  36.4154264  27.2378473  53.1673529  30.5480043
  26.5688849  53.6519657  30.0644083  27.0991343  53.4142750  31.4623421
  18.9757473  42.7027882  34.2522044  19.0141572  42.1691473  35.0459162
  18.4697766  42.1763088  33.6333021  26.3548235  37.5492423  37.7484586
  26.4189562  38.4107254  37.3361984  26.2915355  36.9366424  37.0156944
  25.8300508  39.6215555  41.3957620  26.4572547  39.2392633  42.0095145
  24.9728427  39.4029757  41.7613313  22.6066050  41.4291984  27.3275975
  22.9019492  40.5202663  27.2743029  21.7054086  41.4079724  27.0056977
  34.5152129  53.1499248  34.1326383  34.3903269  52.3488988  33.6237329
  35.1731220  53.6445442  33.6440353  26.1360297  39.5047981  33.3103524
  25.4146883  40.1183949  33.1710997  26.9253553  40.0405746  33.2320170
  36.5787038  50.9508269  35.7605933  35.6317373  50.8313620  35.6884260
  36.9269811  50.0630767  35.8432195  28.9386611  36.8402407  39.5844175
  29.4621013  37.0864704  40.3470485  28.7198944  37.6722442  39.1647313
  24.3353892  39.1106082  27.4515300  24.0066598  38.2303461  27.2690406
  24.6893263  39.0553751  28.3391689  33.5833471  50.7460985  31.9610286
  33.4358433  49.8177692  32.1417856  34.4086964  50.7681075  31.4767361
  27.4495715  39.3979052  27.8190778  27.7891788  39.9264973  27.0969386
  27.8967836  39.7359458  28.5949344  37.1867593  51.5689543  33.0475158
  38.1114140  51.3632405  32.9099610  37.0182896  51.3205945  33.9564500
  30.1439156  37.7816103  37.2693846  29.8035976  36.9823916  37.6714526
  29.4378162  38.0817813  36.6970679  30.7955628  34.8665415  35.7221169
  31.6181697  34.3925893  35.6000059  31.0393691  35.6455899  36.2219855
  29.4363862  37.8953673  26.0184071  30.1572225  38.2734926  25.5147787
  28.8129166  38.6142550  26.1219049  33.5794985  38.5998822  26.9542403
  33.7958600  39.4823460  26.6531231  33.0989052  38.2085036  26.2248045
  28.3194207  41.5584536  33.5313148  28.1738787  41.8724839  34.4237429
  27.8419410  42.1769436  32.9784046  30.1790589  38.5487084  33.5794037
  30.1652158  37.6528177  33.2426335  30.8963018  38.5557747  34.2132323
  32.0316720  38.9824424  35.6247165  31.7734498  39.9041494  35.6231495
  31.5001761  38.5854858  36.3147629  36.9762909  52.0875211  28.4037250
  37.1499786  51.5221633  27.6511102  37.4691800  52.8876106  28.2216740
  22.7939869  44.0989880  36.4700809  22.2493337  44.8749688  36.6021083
  23.6719219  44.4460684  36.3119930  29.5827485  37.4301464  28.8481607
  29.7043397  36.5018110  29.0472495  29.2929528  37.4440150  27.9359923
  32.4518676  35.1156374  31.9848327  32.4740373  35.1795707  31.0300307
  32.8686735  34.2760883  32.1788833  42.8302300  44.8511634  30.0227550
  43.2733446  44.1018959  29.6246673  41.9528810  44.8421770  29.6401282
  37.9638081  51.4041975  25.5034148  38.6588986  52.0248668  25.7221463
  38.3061232  50.5537327  25.7786526  23.5805891  43.2259776  39.3630966
  22.8387627  43.3742412  39.9495596  23.2598635  43.4868042  38.4997715
  39.8629505  48.8541681  27.0321479  40.3880829  49.1928954  26.3070799
  39.7751857  47.9188696  26.8484614  31.5470165  54.9213664  31.3916732
  31.1075156  54.4290043  32.0849589  32.2978282  54.3786632  31.1508807
  24.0262504  51.1125205  31.3941360  24.8520524  50.8128977  31.0140004
  23.6756556  50.3432827  31.8431149  28.9944037  50.4651673  33.4639034
  28.3724047  49.8022378  33.1641262  29.6648904  50.4912805  32.7812682
  22.2271109  49.0311531  32.3530294  21.3903018  48.6033706  32.1714295
  22.1994755  49.2243975  33.2901085  29.0668565  38.9433461  43.0571540
  29.1156720  39.8195584  42.6749309  29.6091079  38.4010854  42.4843183
  28.5557544  49.0155597  26.9397494  28.7045665  49.6991061  26.2864167
  29.3623988  48.9960687  27.4546950  31.2967853  39.6964834  39.8117898
  30.4271163  39.9898400  39.5400487  31.5327334  40.2805279  40.5325162
  42.3735165  46.3216872  32.4149997  43.2082056  46.7606676  32.5787558
  42.5094294  45.8455525  31.5958243  39.4226671  43.8796607  38.3627485
  39.8980792  44.0724253  37.5546336  38.4992236  43.9355793  38.1170869
  26.3110177  45.0420774  27.9458563  26.0656219  44.1383104  28.1438773
  26.4806092  45.0437925  27.0038041  34.0006887  35.9144451  37.3283319
  34.5188831  36.6505477  37.0029807  33.6462020  36.2208444  38.1630078
  25.5805825  40.7749132  25.4444725  24.8875070  40.8493487  24.7884761
  25.3357577  40.0109475  25.9666242  34.2519481  32.3344733  32.8484215
  34.5321235  31.6667922  33.4744642  35.0370088  32.5273829  32.3358879
  32.0552950  51.5103727  24.4109242  31.4826917  52.1293914  23.9579714
  32.6285744  52.0603089  24.9449164  38.1228340  40.7562367  36.5955791
  39.0745763  40.8560465  36.6168015  37.9531790  39.9640636  37.1053875
  36.1442719  37.8417950  36.7815192  35.5492651  38.1222963  36.0861680
  35.8592416  38.3311851  37.5531933  35.2750210  51.7940877  25.5417824
  36.2080883  51.7286439  25.7450700  35.1873423  52.6297144  25.0832357
  37.9038226  51.1106747  22.5021772  37.8251858  50.7766611  23.3957530
  38.7247893  51.6028515  22.5013244  40.6016418  43.9768487  35.7098090
  40.5692738  43.0384488  35.8957774  41.2117041  44.0552523  34.9763915
  32.4399748  42.8464540  21.7525294  33.3858853  42.7170748  21.8213712
  32.0613993  42.1079202  22.2294722  40.7510906  40.7679530  35.7556373
  40.2349955  39.9837987  35.5686302  41.6350855  40.4398247  35.9202893
  38.4121633  34.5120546  31.7152186  38.2146454  34.2035634  32.5995518
  39.0221339  35.2382185  31.8450116  30.6242666  40.7714516  21.6880180
  29.7174121  40.4747629  21.7642893  30.9018647  40.4744334  20.8214466
  21.5420606  42.0920880  32.1379226  21.2223390  41.2386188  31.8453600
  20.9954034  42.3069458  32.8937193  25.3200513  44.8083321  35.8548732
  25.5386523  45.7400428  35.8736766  25.7326287  44.4491295  36.6403536
  32.2404731  35.3151406  27.8424421  31.4305460  34.9698491  28.2179667
  32.9289148  35.0058950  28.4312032  34.1695280  34.3929453  29.4648717
  34.7226318  34.8124906  30.1238741  34.4065366  33.4665201  29.5071673
  30.1928379  40.3816526  45.2451481  30.0925106  41.3310883  45.1763572
  29.9749921  40.0534765  44.3727551  29.3941450  37.6301451  21.8292159
  30.2560614  37.9556350  22.0887976  29.5791794  36.8432947  21.3165224
  21.4108866  45.7123791  34.1072347  20.7172337  45.2977744  33.5942302
  22.1581857  45.7544328  33.5105766  37.5474087  36.5029978  28.9727382
  36.9672756  37.1614782  28.5905434  37.2810019  35.6807322  28.5614799
  35.9977653  35.9035036  31.1748702  36.4977431  36.0151570  30.3663021
  36.6413261  35.5996088  31.8149510  30.0559649  43.8113665  44.0616543
  29.5726731  44.6114025  44.2680432  30.1420588  43.8221610  43.1083987
  23.3245608  45.6442045  31.9838362  23.3016297  45.7429732  31.0320245
  23.6346245  46.4907196  32.3055528  25.9832986  47.7018200  36.0984977
  26.9376240  47.6702142  36.0314908  25.7845510  47.2408824  36.9135203
  26.5732368  46.2719316  38.6655774  27.3925257  46.7663395  38.6890612
  26.8469176  45.3551284  38.6373342  36.3298965  38.6630068  28.0283730
  35.4424820  38.9479719  27.8103925  36.7452954  38.5023832  27.1811007
  39.6813501  38.6876589  31.7438069  40.4573891  39.1773042  32.0162686
  38.9561635  39.1134643  32.2009939  42.1186059  39.4004208  32.8012010
  42.7130550  39.1599944  32.0905318  42.1912643  38.6811339  33.4285546
  24.3383215  53.2437819  33.1155175  24.2037683  52.4838220  32.5493173
  23.9215277  53.9678719  32.6483964  35.4742178  48.4274743  22.1231750
  36.1778028  48.6324745  22.7389406  34.7504827  48.9951505  22.3880833
  36.3039988  44.1784604  28.2434020  36.2475190  44.6353156  27.4041653
  36.8568331  43.4175289  28.0656863  40.1144794  39.9674336  29.0684140
  39.8581729  39.5670972  29.8992347  39.4897662  40.6818130  28.9434279
  44.4257132  42.7070409  31.5755431  43.8656690  42.7763599  32.3486993
  43.8200636  42.5311394  30.8554927  27.4952341  54.1407136  33.3273617
  27.3784725  55.0852569  33.2252308  26.6744787  53.8380698  33.7159417
  37.3828876  48.8657272  24.1730210  38.2174479  48.4338471  23.9907685
  37.2213218  48.6939286  25.1007104  37.0374768  45.3689385  25.5386549
  36.9823572  45.2033657  24.5974993  36.4120823  46.0765418  25.6948739
  21.8267283  40.6057450  39.3647972  22.4726146  40.0956404  39.8535197
  21.6184434  41.3426131  39.9391397  30.3470893  34.8697494  25.1171868
  30.3349563  35.8139334  25.2740139  31.2394315  34.6867640  24.8231329
  28.5206855  54.7935398  36.5429546  29.4234102  54.8259009  36.8596041
  28.2944225  53.8635849  36.5575882  30.2760457  53.5466385  33.2039624
  29.3256088  53.5468246  33.0903997  30.5792943  52.7999119  32.6875659
  34.1623013  31.4640271  29.3717804  33.3955408  30.9098758  29.5174487
  34.5733718  31.5362140  30.2331956  26.1664774  37.7525067  43.4622986
  27.0296235  37.3961872  43.6726310  25.5930184  37.4138962  44.1498390
  40.5211136  58.1042599  23.5363852  40.7736657  57.5824120  22.7747315
  39.5835695  57.9408744  23.6390535  45.5654419  57.1078377  31.3438595
  46.3517508  56.6897800  30.9929012  45.8293123  58.0124469  31.5120243
  40.2407425  60.0070705  25.7388227  40.1243683  59.3315608  26.4069311
  40.3509685  59.5203079  24.9220380  42.5838966  59.4680852  29.4434916
  42.2197173  58.9411473  30.1547837  43.4406082  59.0779321  29.2701401
  42.2244453  54.4970751  24.4396264  42.3918855  55.3650988  24.8066735
  42.0341622  54.6598033  23.5157554  42.2033674  56.9528409  25.4242931
  42.0833299  57.3985460  26.2628411  41.5086262  57.3013727  24.8656469
  35.7941079  59.0534801  32.9742588  35.9233460  59.3069280  33.8882000
  35.1138530  59.6462509  32.6547243  47.9018740  57.4249882  26.2523265
  48.8136596  57.6577269  26.0770963  47.3928387  58.0086926  25.6898344
  45.2454715  53.6007918  34.5013126  44.3839194  53.8989172  34.7929864
  45.2717149  53.8178317  33.5694159  40.9985170  58.2673261  27.7176497
  41.7009214  58.7194305  28.1850423  40.6665799  57.6257080  28.3456390
  34.7410504  56.5256814  33.0193630  33.9509558  56.7814342  32.5433741
  35.2321752  57.3405152  33.1245671  36.6925250  56.8901393  29.9777107
  35.8956413  57.0020087  30.4960603  36.4650842  57.2288045  29.1117998
  33.0248207  56.7787304  35.4508621  33.2756246  57.6634314  35.7166197
  33.5607756  56.5991906  34.6783713  33.6557249  60.9278296  29.1426098
  34.4932471  61.3375304  28.9259805  33.8335517  59.9877738  29.1126292
  45.5521681  58.5953377  24.8309931  45.0368305  59.3657981  25.0698318
  45.2798990  57.9218513  25.4542992  43.1368792  53.4403077  29.8895169
  42.2810389  53.0509928  29.7100808  43.5495744  53.5195038  29.0294955
  44.6667939  50.9749421  34.2886729  44.1632734  50.9379556  33.4754534
  44.9598546  51.8842163  34.3483385  40.9110825  51.0588150  33.2952911
  41.7763821  50.8630959  32.9358800  40.9788334  50.8298502  34.2222267
  45.3407984  56.4680469  26.6569712  45.0358120  56.7826618  27.5079855
  46.2938426  56.5461889  26.6997045  38.5173144  53.2890358  30.6669277
  39.0916896  53.0665540  29.9342470  39.1044126  53.3579053  31.4197879
  38.8442731  55.3194819  24.6865163  38.0080043  55.6569506  25.0074437
  38.7047501  55.1843799  23.7492300  40.8195811  50.1631607  29.3944347
  40.1660224  49.8480624  28.7700962  40.7776286  49.5407348  30.1204170
  41.9307016  60.4450902  21.3097639  41.0234078  60.2140156  21.5088788
  42.4278048  59.6488522  21.4971620  44.8368600  58.0504956  28.8494675
  45.5840419  58.5626354  28.5401797  45.1060189  57.7289009  29.7099068
  43.1095250  60.5463497  25.8321629  42.2006469  60.2622530  25.9294099
  43.1390334  60.9662576  24.9724936  47.2847437  55.0862073  30.8313464
  46.5470194  54.5739459  31.1623707  47.5374210  54.6462454  30.0196741
  47.3859064  47.8638325  31.4255233  47.6917941  47.0035688  31.1381148
  48.1111669  48.4555945  31.2254227  33.6783420  58.2669011  29.8136831
  33.4807820  57.6738372  29.0887898  33.1230084  57.9621221  30.5312770
  41.6580144  58.1592118  31.9331424  41.7128754  57.2065954  31.8573901
  40.8471346  58.3151557  32.4172723  42.8071338  62.0872241  23.1709708
  42.3690768  61.3708100  22.7115345  43.5481778  62.3148356  22.6094799
  39.5972504  56.7769178  29.6921803  38.7840369  57.0763348  30.0986995
  40.0931498  56.3824866  30.4096285  39.0886578  54.3487533  35.3083038
  39.7285958  54.2076292  34.6106001  38.2564109  54.0622046  34.9321640
  36.1729646  57.7933045  27.4977783  35.2427234  57.7317501  27.7147745
  36.2687118  57.2708998  26.7014424  36.0915195  54.3187858  30.0856025
  36.3522012  55.2333191  29.9765185  36.9132367  53.8512301  30.2352638
  46.9282565  60.9456622  22.7641765  46.3111736  60.2203451  22.6674818
  46.4599054  61.7065983  22.4208839  38.7181111  55.1642047  21.8863069
  37.8410577  55.0430848  21.5225316  39.1938864  54.3728125  21.6341958
  30.2383251  59.9519207  31.9804577  30.9254291  59.6380937  31.3925592
  30.0831380  60.8560571  31.7071828  45.2141687  53.3262967  31.7759795
  45.7110387  52.5732929  31.4560865  44.4428669  53.3627283  31.2103005
  41.7976656  55.4680350  31.5031480  41.4274444  54.9151390  32.1912385
  42.2935748  54.8638483  30.9506480  47.6560682  50.2932560  33.9239154
  46.7423762  50.5236787  34.0921361  48.0853784  50.3771004  34.7753186
  29.8151227  58.0319800  34.2522044  29.8535327  57.4983391  35.0459162
  29.3091520  57.5055005  33.6333021  33.4459805  56.7583902  27.3275975
  33.7413246  55.8494580  27.2743029  32.5447841  56.7371641  27.0056977
  36.9754052  54.8339899  33.3103524  36.2540638  55.4475866  33.1710997
  37.7647308  55.3697663  33.2320170  35.1747647  54.4398000  27.4515300
  34.8460353  53.5595379  27.2690406  35.5287017  54.3845668  28.3391689
  38.2889470  54.7270969  27.8190778  38.6285542  55.2556891  27.0969386
  38.7361590  55.0651376  28.5949344  40.2757617  53.2245591  26.0184071
  40.9965979  53.6026844  25.5147787  39.6522921  53.9434468  26.1219049
  44.4188740  53.9290740  26.9542403  44.6352354  54.8115378  26.6531231
  43.9382807  53.5376953  26.2248045  41.0184344  53.8779001  33.5794037
  41.0045913  52.9820095  33.2426335  41.7356772  53.8849665  34.2132323
  42.8710475  54.3116341  35.6247165  42.6128253  55.2333412  35.6231495
  42.3395515  53.9146776  36.3147629  33.6333623  59.4281798  36.4700809
  33.0887091  60.2041606  36.6021083  34.5112973  59.7752602  36.3119930
  40.4221240  52.7593382  28.8481607  40.5437151  51.8310028  29.0472495
  40.1323282  52.7732068  27.9359923  43.2912430  50.4448292  31.9848327
  43.3134127  50.5087625  31.0300307  43.7080489  49.6052801  32.1788833
  33.0664864  64.3603449  32.3530294  32.2296772  63.9325623  32.1714295
  33.0388509  64.5535892  33.2901085  36.4199579  56.1041049  25.4444725
  35.7268824  56.1785404  24.7884761  36.1751331  55.3401393  25.9666242
  43.2793503  58.1756457  21.7525294  44.2252608  58.0462666  21.8213712
  42.9007748  57.4371119  22.2294722  49.2515387  49.8412463  31.7152186
  49.0540209  49.5327552  32.5995518  49.8615093  50.5674102  31.8450116
  41.4636420  56.1006434  21.6880180  40.5567875  55.8039547  21.7642893
  41.7412401  55.8036252  20.8214466  32.3814360  57.4212797  32.1379226
  32.0617145  56.5678105  31.8453600  31.8347789  57.6361375  32.8937193
  43.0798486  50.6443324  27.8424421  42.2699214  50.2990408  28.2179667
  43.7682903  50.3350867  28.4312032  45.0089034  49.7221370  29.4648717
  45.5620073  50.1416824  30.1238741  45.2459120  48.7957118  29.5071673
  40.2335205  52.9593369  21.8292159  41.0954369  53.2848267  22.0887976
  40.4185549  52.1724865  21.3165224  32.2502620  61.0415709  34.1072347
  31.5566092  60.6269662  33.5942302  32.9975611  61.0836245  33.5105766
  48.3867841  51.8321895  28.9727382  47.8066510  52.4906700  28.5905434
  48.1203774  51.0099240  28.5614799  46.8371408  51.2326953  31.1748702
  47.3371186  51.3443488  30.3663021  47.4807015  50.9288006  31.8149510
  34.1639363  60.9733962  31.9838362  34.1410051  61.0721650  31.0320245
  34.4739999  61.8199113  32.3055528  47.1692719  53.9921986  28.0283730
  46.2818574  54.2771636  27.8103925  47.5846708  53.8315749  27.1811007
  46.3135933  63.7566661  22.1231750  47.0171783  63.9616663  22.7389406
  45.5898581  64.3243422  22.3880833  41.1864648  50.1989412  25.1171868
  41.1743318  51.1431252  25.2740139  42.0788070  50.0159557  24.8231329
  45.0016767  46.7932189  29.3717804  44.2349163  46.2390675  29.5174487
  45.4127472  46.8654057  30.2331956  58.2252819  63.1930242  31.4255233
  58.5311695  62.3327606  31.1381148  58.9505423  63.7847863  31.2254227
  51.0728959  68.2885287  21.8292159  51.9348123  68.6140185  22.0887976
  51.2579303  67.5016783  21.3165224  52.0258402  65.5281330  25.1171868
  52.0137072  66.4723170  25.2740139  52.9181824  65.3451475  24.8231329
  55.8410522  62.1224106  29.3717804  55.0742917  61.5682593  29.5174487
  56.2521227  62.1945975  30.2331956  67.6900660  90.0410759  34.2685387
  68.3279070  89.9217506  33.5648727  67.5721503  90.9891602  34.3273339
  64.4990366  89.9938187  34.2046911  64.1608877  89.8779251  33.3167446
  65.3680134  89.5929352  34.1847918  60.3577182  91.8473663  30.1943802
  59.7942047  91.7563600  29.4260090  60.2429577  91.0273568  30.6746295
  64.9810149  91.1473038  40.1633117  64.9698790  90.7525837  39.2913621
  65.1430788  90.4139111  40.7566888  57.9041614  93.3424855  33.0328023
  58.6962905  93.0015679  32.6174322  58.1438264  93.4519830  33.9530176
  65.9376740  95.5144631  25.5058267  65.2864720  96.0998711  25.1192281
  66.7321103  96.0450826  25.5653305  59.8632367  92.6033768  25.9045402
  60.6363243  92.0562755  25.7658277  60.2157766  93.4678017  26.1159863
  61.7017410  93.9310150  39.1112301  61.4107276  94.8355781  38.9958967
  62.3374394  93.9726678  39.8256371  62.6273617  91.3086999  35.7013661
  63.2237189  91.0843021  34.9870624  62.6848588  90.5671744  36.3039108
  62.1998645  88.7626434  23.5363852  62.4524166  88.2407955  22.7747315
  61.2623204  88.5992579  23.6390535  67.2441928  87.7662212  31.3438595
  68.0305017  87.3481636  30.9929012  67.5080632  88.6708305  31.5120243
  67.4152005  93.2035063  26.0427252  66.7797838  93.2769689  26.7548156
  67.0849412  93.7928662  25.3646331  72.6450355  87.7037446  32.2471573
  73.3775527  87.1336662  32.4809403  71.8889711  87.3159046  32.6878079
  61.9194934  90.6654540  25.7388227  61.8031192  89.9899443  26.4069311
  62.0297194  90.1786914  24.9220380  64.2626475  90.1264687  29.4434916
  63.8984682  89.5995308  30.1547837  65.1193591  89.7363156  29.2701401
  66.6607295  93.6171566  36.1062095  66.3608018  94.5196604  35.9977902
  66.3158355  93.3503749  36.9583248  60.1119777  90.0685363  32.1398799
  59.1870273  89.9361577  32.3476491  60.3604190  90.8479582  32.6368741
  63.8821183  87.6112244  25.4242931  63.7620808  88.0569295  26.2628411
  63.1873771  87.9597562  24.8656469  61.6428075 100.3815886  29.0733062
  61.5652105 101.3323711  29.1521543  61.0389719 100.0361759  29.7307989
  71.9266085  84.3370544  35.5637406  71.2840466  84.6303077  34.9177200
  71.4221014  84.2223465  36.3690603  69.5806249  88.0833717  26.2523265
  70.4924105  88.3161104  26.0770963  69.0715896  88.6670762  25.6898344
  62.3891677  90.3629205  41.2912396  63.1306361  90.9014249  41.0147220
  61.6828662  90.9895494  41.4483948  67.8647017  92.5058345  39.8884558
  68.2730373  92.0640756  39.1439190  67.1424278  91.9310973  40.1418751
  68.1875831  93.0659536  33.6436847  67.5584694  93.2305250  32.9412914
  67.8001493  93.4801145  34.4147811  72.0665063  94.0013974  30.9981210
  71.3816101  94.3812875  30.4478244  72.1508912  94.6109300  31.7313158
  69.3215995  91.6473933  37.5976554  69.5332890  92.2905693  36.9210935
  69.2745743  90.8136249  37.1298484  63.7403793  92.8033944  30.9086932
  64.2042139  93.0821647  30.1191554  63.4760591  91.9017389  30.7260022
  60.6327874  92.3505426  33.8466695  61.2029231  92.7792694  33.2084179
  61.2235986  92.0688010  34.5450881  61.1253041  87.5168853  42.0927706
  60.4951701  88.1985134  42.3263103  61.0189129  87.4051935  41.1480844
  70.4361823  94.5245888  35.7698911  71.2579266  94.1226075  35.4881593
  70.4324226  94.4214122  36.7215027  64.2018426  94.0729931  37.9259622
  64.2662859  94.5350339  38.7617794  63.4929350  93.4427296  38.0541932
  78.5267816  90.8684637  32.1183883  77.7731524  90.2992035  31.9627887
  78.6615357  90.8347301  33.0654517  63.9166444  95.7398039  27.7938602
  63.7812119  96.5849575  28.2223450  64.4576256  95.9417317  27.0304536
  57.3695841  93.2573477  28.3666527  57.8820362  94.0516727  28.5172092
  58.0218554  92.5599767  28.3000129  59.1790726  96.3739233  30.4489280
  59.3557354  97.2957198  30.2610264  59.9747559  96.0597653  30.8783660
  65.5434920  96.3621605  41.9238944  65.0998774  95.5757984  41.6059849
  66.2052134  96.5500756  41.2582835  60.3022041  97.8917407  36.4499623
  60.8529467  97.7634470  35.6776617  59.4633517  98.1912296  36.0994515
  67.6416158  96.6424405  39.9520345  67.6234634  97.4633286  39.4600615
  68.5636078  96.5178481  40.1770487  64.0989212  94.1568535  40.7943854
  64.6317549  93.3956823  40.5643162  63.5703294  93.8642187  41.5368008
  67.2309190  89.2537212  24.8309931  66.7155814  90.0241817  25.0698318
  66.9586499  88.5802348  25.4542992  72.2043464  92.0069567  26.7663104
  71.4272907  91.6680726  26.3218266  72.8834945  92.0122190  26.0918069
  67.0195493  87.1264304  26.6569712  66.7145629  87.4410453  27.5079855
  67.9725935  87.2045724  26.6997045  65.4641925  93.2854527  28.3062666
  64.9363287  92.5507287  27.9935903  64.9629428  94.0629204  28.0602634
  70.4434771  91.4803548  33.4229712  69.7858446  92.1702809  33.5109841
  71.2475170  91.8699980  33.7663698  69.2540230  89.8347921  31.4733654
  69.7672112  90.4677912  31.9755364  69.9041454  89.2349116  31.1077014
  63.6094525  91.1034738  21.3097639  62.7021587  90.8723991  21.5088788
  64.1065557  90.3072357  21.4971620  66.5162604  99.8132245  24.2294325
  65.8424303 100.1163942  24.8379283  66.9028426 100.6161325  23.8799782
  66.5156109  88.7088792  28.8494675  67.2627928  89.2210189  28.5401797
  66.7847698  88.3872845  29.7099068  64.7882759  91.2047333  25.8321629
  63.8793978  90.9206365  25.9294099  64.8177843  91.6246411  24.9724936
  70.0202026  94.8153922  29.6012796  69.5664353  93.9744832  29.6577987
  69.3895993  95.4515320  29.9387577  68.4634965  96.6530419  30.5362615
  68.7557940  97.2135476  29.8174980  68.9733586  96.9458980  31.2915774
  64.4858847  92.7456076  23.1709708  64.0478276  92.0291935  22.7115345
  65.2269287  92.9732191  22.6094799  63.4268591  97.4310770  31.6256068
  63.3844769  97.6571616  30.6964600  64.3431289  97.1974144  31.7741869
  72.6031961  91.0213273  29.2286026  72.4649860  91.2114869  28.3007215
  72.2468180  91.7832656  29.6854077  72.6301341  93.0889800  34.2397298
  73.0637848  92.9965089  35.0880352  73.3432922  93.0647301  33.6017314
  61.5434391  94.3073799  31.4218031  62.3374990  93.8124119  31.2200606
  60.8326084  93.7791662  31.0585736  66.3629236  96.6891894  35.7730398
  66.4166258  97.2582831  36.5408114  65.4944017  96.8593779  35.4084435
  73.4916891  93.1313501  36.7730183  73.6852781  94.0359311  37.0189458
  73.3917509  92.6720920  37.6068768  68.5531999  93.2820244  42.3471064
  68.4017506  93.0530795  41.4301147  68.5436679  94.2390845  42.3602409
  65.3217336  90.8552156  37.3317330  66.2509396  91.0063316  37.1586297
  64.9008366  90.9436177  36.4765977  64.1205667  94.8802821  35.1015868
  63.9816753  94.5121605  35.9741806  63.3320264  95.3950460  34.9299825
  64.7153819  99.9811917  26.4441404  64.8905575  99.5099960  27.2587027
  64.0286607 100.6077683  26.6722665  65.6710883  94.2584423  32.4904705
  65.3360715  94.2185193  33.3862355  65.1714828  93.5929139  32.0175116
  68.6070074  91.6040458  22.7641765  67.9899245  90.8787286  22.6674818
  68.1386563  92.3649818  22.4208839  70.2624206  96.3139366  40.4247545
  70.2036752  95.6298586  39.7578128  70.6643724  97.0558356  39.9728171
  59.2814905 103.1301280  33.2181264  59.5211503 103.7619804  33.8960283
  58.4384101 102.7789320  33.5046624  70.2641613  94.2778950  38.6561525
  69.3768392  93.9404872  38.7787924  70.8340164  93.5461981  38.8930291
  63.7942767  98.9380402  35.6222768  63.7212938  99.7435374  36.1342073
  63.3520160  99.1372368  34.7970790  63.5832546  98.1752172  29.1325590
  62.8000068  98.7173853  29.2263814  64.2825291  98.6926152  29.5319831
  74.7458954  89.6887167  33.4178087  74.7348830  90.5711883  33.0472020
  73.8776333  89.3358718  33.2232624  66.2541450  98.8367236  37.7780927
  66.9669422  99.4714701  37.7056828  65.7631479  98.9331102  36.9620929
  67.9758977  92.7418489  29.3498219  67.0415256  92.8619952  29.1802923
  68.1535645  91.8390956  29.0858228  71.3631528  88.5835808  29.8848253
  71.8291980  89.4163800  29.8108555  71.8139029  88.1180790  30.5893511
  61.3053364  96.5861680  38.5986498  62.0062823  97.2198163  38.7515892
  60.8348479  96.9276412  37.8382137  69.4307759  94.9279630  26.8834405
  69.7067603  94.8136224  27.7928279  68.5612258  94.5297115  26.8446578
  66.0661823  99.1765981  30.5267218  66.2484218  98.3587637  30.9894971
  66.8894809  99.3933673  30.0892108  66.4003989  98.1034166  27.7882267
  66.9291755  97.5926620  27.1752429  66.6632208  97.7876696  28.6527800
  65.1542223  89.8826098  42.9105085  64.4782860  89.7820228  43.5807460
  65.9769856  89.7265312  43.3741082  56.9021082  96.1198035  35.5317600
  57.4874518  95.3741723  35.6645505  56.7045920  96.4301992  36.4154264
  59.7559737  99.1549282  30.5480043  59.0870112  99.6395410  30.0644083
  59.6172607  99.4018503  31.4623421  63.8965005 101.1893026  37.1462701
  64.4483313 101.3524647  37.9111786  64.2371199 101.7797464  36.4742726
  68.7475880  96.0154283  43.0011356  69.2915784  96.6284242  42.5066310
  68.1662725  96.5733862  43.5178369  67.0333393  99.1375001  34.1326383
  66.9084532  98.3364741  33.6237329  67.6912484  99.6321195  33.6440353
  69.0968301  96.9384022  35.7605933  68.1498637  96.8189373  35.6884260
  69.4451074  96.0506520  35.8432195  66.1014734  96.7336738  31.9610286
  65.9539697  95.8053445  32.1417856  66.9268228  96.7556828  31.4767361
  69.7048856  97.5565296  33.0475158  70.6295404  97.3508158  32.9099610
  69.5364160  97.3081698  33.9564500  69.4944172  98.0750964  28.4037250
  69.6681050  97.5097386  27.6511102  69.9873064  98.8751859  28.2216740
  75.3483564  90.8387387  30.0227550  75.7914710  90.0894712  29.6246673
  74.4710074  90.8297523  29.6401282  70.4819345  97.3917728  25.5034148
  71.1770250  98.0124421  25.7221463  70.8242495  96.5413080  25.7786526
  72.3810768  94.8417434  27.0321479  72.9062092  95.1804707  26.3070799
  72.2933121  93.9064449  26.8484614  64.0430817  98.7551508  39.1611356
  64.3517943  98.5100654  40.0334055  64.8406299  98.9598146  38.6730226
  64.0651429 100.9089417  31.3916732  63.6256419 100.4165796  32.0849589
  64.8159546 100.3662385  31.1508807  56.5443768  97.1000958  31.3941360
  57.3701788  96.8004730  31.0140004  56.1937820  96.3308580  31.8431149
  61.5125301  96.4527426  33.4639034  60.8905310  95.7898131  33.1641262
  62.1830168  96.4788558  32.7812682  54.7452373  95.0187284  32.3530294
  53.9084281  94.5909459  32.1714295  54.7176018  95.2119728  33.2901085
  72.0704674  95.4750338  42.3372677  71.2800218  95.4574476  41.7977176
  71.8338029  96.0138631  43.0921714  72.1902549  92.3242804  39.6505405
  72.2400554  92.1592811  40.5920928  72.0816473  91.4570063  39.2603286
  61.0738808  95.0031350  26.9397494  61.2226928  95.6866814  26.2864167
  61.8805251  94.9836440  27.4546950  69.4806312  88.3073732  40.9664712
  70.3816174  88.1680197  40.6748710  69.5554286  88.4728187  41.9062890
  73.6920746  94.7439745  39.8947427  73.4005554  95.1069726  40.7310888
  73.0792877  94.0306754  39.7160759  74.8916428  92.3092625  32.4149997
  75.7263320  92.7482429  32.5787558  75.0275557  91.8331278  31.5958243
  71.9407934  89.8672360  38.3627485  72.4162056  90.0600006  37.5546336
  71.0173500  89.9231546  38.1170869  58.8291441  91.0296527  27.9458563
  58.5837483  90.1258857  28.1438773  58.9987355  91.0313678  27.0038041
  64.5734213  97.4979480  24.4109242  64.0008180  98.1169667  23.9579714
  65.1467007  98.0478842  24.9449164  67.7931473  97.7816630  25.5417824
  68.7262146  97.7162192  25.7450700  67.7054686  98.6172897  25.0832357
  70.4219490  97.0982500  22.5021772  70.3433121  96.7642364  23.3957530
  71.2429157  97.5904268  22.5013244  73.1197681  89.9644240  35.7098090
  73.0874001  89.0260241  35.8957774  73.7298305  90.0428277  34.9763915
  64.9581012  88.8340293  21.7525294  65.9040117  88.7046501  21.8213712
  64.5795257  88.0954955  22.2294722  73.2692169  86.7555283  35.7556373
  72.7531218  85.9713740  35.5686302  74.1532118  86.4274000  35.9202893
  78.9374231  91.0260247  34.8504127  79.6677619  90.7645535  35.4111830
  78.3281176  90.2888969  34.8906195  77.0189528  89.1668109  35.4478578
  76.2922692  89.0324074  34.8395070  76.6036815  89.4744938  36.2535296
  64.8419704  92.8858039  43.2125951  65.7622714  93.0636638  43.4065998
  64.8069287  91.9414084  43.0605651  63.1423929  86.7590269  21.6880180
  62.2355384  86.4623382  21.7642893  63.4199910  86.4620087  20.8214466
  62.5740912  89.7989418  44.0616543  62.0907994  90.5989778  44.2680432
  62.6601851  89.8097363  43.1083987  58.5014250  93.6893953  36.0984977
  59.4557503  93.6577895  36.0314908  58.3026773  93.2284577  36.9135203
  59.0913632  92.2595069  38.6655774  59.9106521  92.7539148  38.6890612
  59.3650440  91.3427037  38.6373342  72.1994764  84.6752342  31.7438069
  72.9755154  85.1648795  32.0162686  71.4742898  85.1010396  32.2009939
  74.6367323  85.3879961  32.8012010  75.2311814  85.1475697  32.0905318
  74.7093907  84.6687092  33.4285546  56.8564479  99.2313572  33.1155175
  56.7218947  98.4713973  32.5493173  56.4396541  99.9554472  32.6483964
  67.9923442  94.4150496  22.1231750  68.6959292  94.6200498  22.7389406
  67.2686090  94.9827258  22.3880833  68.8221252  90.1660357  28.2434020
  68.7656453  90.6228909  27.4041653  69.3749594  89.4051042  28.0656863
  72.6326058  85.9550089  29.0684140  72.3762992  85.5546725  29.8992347
  72.0078926  86.6693883  28.9434279  76.9438396  88.6946162  31.5755431
  76.3837954  88.7639352  32.3486993  76.3381899  88.5187147  30.8554927
  60.0133604 100.1282889  33.3273617  59.8965989 101.0728322  33.2252308
  59.1926051  99.8256451  33.7159417  69.9010139  94.8533025  24.1730210
  70.7355743  94.4214224  23.9907685  69.7394482  94.6815039  25.1007104
  69.5556031  91.3565138  25.5386549  69.5004835  91.1909410  24.5974993
  68.9302086  92.0641171  25.6948739  66.8701938  93.6614050  44.8640112
  67.7393098  93.8354703  44.5026747  66.3908690  94.4808467  44.7415841
  61.0388119 100.7811151  36.5429546  61.9415365 100.8134762  36.8596041
  60.8125489  99.8511602  36.5575882  62.7941721  99.5342138  33.2039624
  61.8437352  99.5343999  33.0903997  63.0974207  98.7874872  32.6875659
  78.5294414 105.3702676  34.2685387  79.1672824 105.2509424  33.5648727
  78.4115257 106.3183520  34.3273339  75.3384120 105.3230104  34.2046911
  75.0002632 105.2071169  33.3167446  76.2073889 104.9221269  34.1847918
  71.1970936 107.1765581  30.1943802  70.6335801 107.0855518  29.4260090
  71.0823331 106.3565485  30.6746295  75.8203903 106.4764956  40.1633117
  75.8092544 106.0817754  39.2913621  75.9824543 105.7431029  40.7566888
  68.7435368 108.6716772  33.0328023  69.5356660 108.3307597  32.6174322
  68.9832018 108.7811747  33.9530176  76.7770495 110.8436548  25.5058267
  76.1258475 111.4290629  25.1192281  77.5714858 111.3742743  25.5653305
  70.7026122 107.9325686  25.9045402  71.4756998 107.3854673  25.7658277
  71.0551521 108.7969935  26.1159863  72.5411165 109.2602068  39.1112301
  72.2501031 110.1647699  38.9958967  73.1768149 109.3018595  39.8256371
  73.4667371 106.6378916  35.7013661  74.0630944 106.4134939  34.9870624
  73.5242343 105.8963662  36.3039108  73.0392400 104.0918352  23.5363852
  73.2917920 103.5699873  22.7747315  72.1016959 103.9284497  23.6390535
  78.0835683 103.0954130  31.3438595  78.8698772 102.6773553  30.9929012
  78.3474387 104.0000222  31.5120243  78.2545760 108.5326980  26.0427252
  77.6191593 108.6061607  26.7548156  77.9243166 109.1220579  25.3646331
  83.4844110 103.0329363  32.2471573  84.2169282 102.4628580  32.4809403
  82.7283465 102.6450964  32.6878079  72.7588689 105.9946458  25.7388227
  72.6424947 105.3191361  26.4069311  72.8690948 105.5078832  24.9220380
  75.1020229 105.4556605  29.4434916  74.7378437 104.9287226  30.1547837
  75.9587345 105.0655074  29.2701401  81.0069530  96.7450937  36.7066182
  80.6752855  97.6146348  36.4827397  80.4115143  96.4287221  37.3860212
  74.7425716 100.4846504  24.4396264  74.9100119 101.3526741  24.8066735
  74.5522885 100.6473786  23.5157554  77.5001050 108.9463483  36.1062095
  77.2001773 109.8488522  35.9977902  77.1552109 108.6795667  36.9583248
  70.9513531 105.3977280  32.1398799  70.0264028 105.2653494  32.3476491
  71.1997944 106.1771499  32.6368741  80.8998193 101.4646024  33.7859532
  79.9915071 101.3961432  33.4918293  80.8485789 101.9417968  34.6141357
  74.7214937 102.9404162  25.4242931  74.6014563 103.3861213  26.2628411
  74.0267526 103.2889480  24.8656469  68.3122342 105.0410554  32.9742588
  68.4414723 105.2945033  33.8882000  67.6319793 105.6338262  32.6547243
  72.4821829 115.7107804  29.0733062  72.4045859 116.6615629  29.1521543
  71.8783473 115.3653676  29.7307989  74.9739059 102.8835669  41.7294429
  74.1972393 103.4429589  41.7197294  75.6129622 103.3692452  42.2509299
  82.7659840  99.6662462  35.5637406  82.1234220  99.9594995  34.9177200
  82.2614768  99.5515382  36.3690603  80.4200003 103.4125635  26.2523265
  81.3317860 103.6453022  26.0770963  79.9109651 103.9962679  25.6898344
  73.2285431 105.6921122  41.2912396  73.9700116 106.2306166  41.0147220
  72.5222417 106.3187411  41.4483948  78.7040771 107.8350263  39.8884558
  79.1124127 107.3932673  39.1439190  77.9818033 107.2602890  40.1418751
  75.0571841 102.7722870  37.2618115  75.9033036 103.1962283  37.4052764
  74.9970479 102.1156494  37.9556678  79.0269586 108.3951454  33.6436847
  78.3978448 108.5597168  32.9412914  78.6395248 108.8093063  34.4147811
  82.9058818 109.3305891  30.9981210  82.2209856 109.7104793  30.4478244
  82.9902667 109.9401218  31.7313158  78.2071287 100.4327238  38.9199288
  77.9632218 101.1869299  38.3833564  78.4831217 100.8112586  39.7546535
  80.1609749 106.9765850  37.5976554  80.3726645 107.6197610  36.9210935
  80.1139498 106.1428167  37.1298484  77.7635978  99.5883671  34.5013126
  76.9020457  99.8864925  34.7929864  77.7898413  99.8054070  33.5694159
  74.5797548 108.1325862  30.9086932  75.0435893 108.4113565  30.1191554
  74.3154346 107.2309306  30.7260022  71.4721629 107.6797343  33.8466695
  72.0422986 108.1084612  33.2084179  72.0629741 107.3979928  34.5450881
  73.5166434 104.2549014  27.7176497  74.2190477 104.7070058  28.1850423
  73.1847062 103.6132833  28.3456390  71.9646795 102.8460771  42.0927706
  71.3345456 103.5277052  42.3263103  71.8582883 102.7343852  41.1480844
  67.2591768 102.5132567  33.0193630  66.4690822 102.7690095  32.5433741
  67.7503015 103.3280905  33.1245671  81.2755577 109.8537806  35.7698911
  82.0973021 109.4517993  35.4881593  81.2717980 109.7506040  36.7215027
  69.2106513 102.8777146  29.9777107  68.4137676 102.9895840  30.4960603
  68.9832105 103.2163798  29.1117998  75.0412181 109.4021849  37.9259622
  75.1056613 109.8642256  38.7617794  74.3323105 108.7719214  38.0541932
  65.5429471 102.7663057  35.4508621  65.7937509 103.6510067  35.7166197
  66.0789019 102.5867659  34.6783713  89.3661570 106.1976554  32.1183883
  88.6125279 105.6283952  31.9627887  89.5009111 106.1639219  33.0654517
  74.7560198 111.0689957  27.7938602  74.6205873 111.9141492  28.2223450
  75.2970011 111.2709234  27.0304536  71.2427538  97.1481537  44.4552957
  70.8494484  96.5947735  45.1300602  72.0593678  97.4592115  44.8459475
  68.2089596 108.5865395  28.3666527  68.7214116 109.3808645  28.5172092
  68.8612309 107.8891685  28.3000129  70.0184480 111.7031151  30.4489280
  70.1951109 112.6249116  30.2610264  70.8141314 111.3889570  30.8783660
  74.1595499  98.5639416  42.0473214  74.9005212  99.1646569  41.9677676
  74.3913422  97.8217053  41.4891256  69.3036837 103.7495783  40.3251444
  69.1890352 102.8481040  40.6258542  68.4481355 103.9959480  39.9736260
  76.3828675 111.6913523  41.9238944  75.9392529 110.9049902  41.6059849
  77.0445888 111.8792674  41.2582835  71.1415796 113.2209325  36.4499623
  71.6923221 113.0926388  35.6776617  70.3027272 113.5204214  36.0994515
  78.4809913 111.9716323  39.9520345  78.4628388 112.7925204  39.4600615
  79.4029833 111.8470398  40.1770487  74.9382967 109.4860453  40.7943854
  75.4711304 108.7248741  40.5643162  74.4097048 109.1934104  41.5368008
  78.1052662  94.5920519  36.3237496  77.7616931  95.4822160  36.2476606
  78.4731624  94.4022176  35.4607081  66.1738512 106.9154049  29.1426098
  67.0113734 107.3251057  28.9259805  66.3516780 105.9753491  29.1126292
  78.0702945 104.5829130  24.8309931  77.5549568 105.3533734  25.0698318
  77.7980253 103.9094266  25.4542992  75.6550056  99.4278830  29.8895169
  74.7991652  99.0385681  29.7100808  76.0677007  99.5070791  29.0294955
  77.1849202  96.9625174  34.2886729  76.6813998  96.9255309  33.4754534
  77.4779809  97.8717916  34.3483385  73.4292088  97.0463903  33.2952911
  74.2945085  96.8506712  32.9358800  73.4969597  96.8174255  34.2222267
  83.0437219 107.3361484  26.7663104  82.2666662 106.9972644  26.3218266
  83.7228700 107.3414107  26.0918069  77.8589248 102.4556222  26.6569712
  77.5539383 102.7702371  27.5079855  78.8119690 102.5337642  26.6997045
  76.3035680 108.6146445  28.3062666  75.7757041 107.8799205  27.9935903
  75.8023182 109.3921121  28.0602634  81.2828526 106.8095466  33.4229712
  80.6252200 107.4994727  33.5109841  82.0868925 107.1991897  33.7663698
  71.0354407  99.2766111  30.6669277  71.6098159  99.0541293  29.9342470
  71.6225390  99.3454806  31.4197879  80.0933984 105.1639838  31.4733654
  80.6065866 105.7969830  31.9755364  80.7435208 104.5641034  31.1077014
  71.3623994 101.3070572  24.6865163  70.5261307 101.6445259  25.0074437
  71.2228764 101.1719552  23.7492300  73.3377075  96.1507360  29.3944347
  72.6841487  95.8356377  28.7700962  73.2957549  95.5283101  30.1204170
  74.4488280 106.4326655  21.3097639  73.5415342 106.2015909  21.5088788
  74.9459312 105.6364275  21.4971620  76.5714815 102.6389294  33.7191994
  75.6537377 102.8604241  33.5613682  76.9874959 102.7135604  32.8603702
  77.3549863 104.0380709  28.8494675  78.1021682 104.5502107  28.5401797
  77.6241453 103.7164762  29.7099068  75.6276513 106.5339250  25.8321629
  74.7187733 106.2498283  25.9294099  75.6571597 106.9538329  24.9724936
  80.8595781 110.1445840  29.6012796  80.4058108 109.3036750  29.6577987
  80.2289747 110.7807238  29.9387577  79.8028700 101.0737826  30.8313464
  79.0651457 100.5615212  31.1623707  80.0555474 100.6338207  30.0196741
  79.3028720 111.9822336  30.5362615  79.5951694 112.5427393  29.8174980
  79.8127340 112.2750897  31.2915774  79.9040328  93.8514078  31.4255233
  80.2099204  92.9911441  31.1381148  80.6292932  94.4431698  31.2254227
  66.1964684 104.2544764  29.8136831  65.9989083 103.6614125  29.0887898
  65.6411348 103.9496975  30.5312770  74.1761407 104.1467871  31.9331424
  74.2310017 103.1941707  31.8573901  73.3652609 104.3027310  32.4172723
  75.3252601 108.0747994  23.1709708  74.8872031 107.3583853  22.7115345
  76.0663042 108.3024109  22.6094799  72.1153767 102.7644931  29.6921803
  71.3021633 103.0639101  30.0986995  72.6112761 102.3700619  30.4096285
  74.2662345 112.7602687  31.6256068  74.2238524 112.9863534  30.6964600
  75.1825044 112.5266062  31.7741869  77.7127979 103.2286755  38.5236697
  78.0677367 103.4558228  39.3831163  78.3600110 103.5605132  37.9013952
  83.4425716 106.3505191  29.2286026  83.3043614 106.5406787  28.3007215
  83.0861935 107.1124574  29.6854077  71.6067842 100.3363286  35.3083038
  72.2467221 100.1952045  34.6106001  70.7745373 100.0497799  34.9321640
  83.4695095 108.4181718  34.2397298  83.9031602 108.3257007  35.0880352
  84.1826676 108.3939218  33.6017314  72.3828146 109.6365716  31.4218031
  73.1768744 109.1416037  31.2200606  71.6719838 109.1083580  31.0585736
  77.2022990 112.0183812  35.7730398  77.2560013 112.5874748  36.5408114
  76.3337772 112.1885697  35.4084435  68.6910909 103.7808798  27.4977783
  67.7608497 103.7193254  27.7147745  68.7868381 103.2584751  26.7014424
  68.6096458 100.3063611  30.0856025  68.8703276 101.2208944  29.9765185
  69.4313631  99.8388054  30.2352638  70.0821384 101.7201368  37.2554849
  70.7544437 101.5118730  36.6067498  69.2551170 101.5223454  36.8160082
  84.3310645 108.4605419  36.7730183  84.5246535 109.3651229  37.0189458
  84.2311263 108.0012838  37.6068768  75.9846956  98.3463309  39.2720510
  75.3374871  99.0453259  39.1784987  76.7547971  98.7799453  39.6396759
  79.3925754 108.6112161  42.3471064  79.2411260 108.3822713  41.4301147
  79.3830433 109.5682763  42.3602409  76.1611090 106.1844074  37.3317330
  77.0903150 106.3355234  37.1586297  75.7402120 106.2728095  36.4765977
  74.9599422 110.2094738  35.1015868  74.8210508 109.8413523  35.9741806
  74.1714018 110.7242378  34.9299825  75.5547574 115.3103835  26.4441404
  75.7299330 114.8391878  27.2587027  74.8680362 115.9369601  26.6722665
  76.5104637 109.5876341  32.4904705  76.1754470 109.5477111  33.3862355
  76.0108583 108.9221057  32.0175116  70.4848881 104.9943971  38.0157287
  70.3468679 104.2624210  38.6168826  71.3953804 104.9052871  37.7341474
  73.1131182 104.7063931  37.5040966  73.8230800 104.0657123  37.4627585
  73.0700490 104.9576825  38.4267147  81.1017960 111.6431284  40.4247545
  81.0430506 110.9590504  39.7578128  81.5037479 112.3850274  39.9728171
  71.8260116 101.6929148  39.3236606  71.2897473 101.2419887  39.9758202
  71.2376824 101.8275057  38.5807070  70.1208659 118.4593198  33.2181264
  70.3605257 119.0911722  33.8960283  69.2777856 118.1081238  33.5046624
  71.2362375 101.1517800  21.8863069  70.3591841 101.0306601  21.5225316
  71.7120128 100.3603878  21.6341958  81.1035368 109.6070868  38.6561525
  80.2162146 109.2696790  38.7787924  81.6733919 108.8753899  38.8930291
  62.7564515 105.9394960  31.9804577  63.4435555 105.6256690  31.3925592
  62.6012643 106.8436324  31.7071828  67.5599237 100.8285156  36.4089600
  67.4757426 100.2210826  35.6740010  66.7381943 101.3194174  36.4099097
  74.6336521 114.2672320  35.6222768  74.5606692 115.0727292  36.1342073
  74.1913914 114.4664286  34.7970790  74.4226301 113.5044090  29.1325590
  73.6393823 114.0465770  29.2263814  75.1219046 114.0218070  29.5319831
  77.7322951  99.3138720  31.7759795  78.2291650  98.5608682  31.4560865
  76.9609932  99.3503036  31.2103005  85.5852708 105.0179085  33.4178087
  85.5742584 105.9003801  33.0472020  84.7170088 104.6650636  33.2232624
  77.0935205 114.1659154  37.7780927  77.8063177 114.8006619  37.7056828
  76.6025233 114.2623020  36.9620929  78.8152731 108.0710407  29.3498219
  77.8809010 108.1911869  29.1802923  78.9929400 107.1682874  29.0858228
  74.3157919 101.4556103  31.5031480  73.9455707 100.9027143  32.1912385
  74.8117012 100.8514236  30.9506480  82.2025283 103.9127726  29.8848253
  82.6685735 104.7455718  29.8108555  82.6532783 103.4472708  30.5893511
  72.1447118 111.9153598  38.5986498  72.8456578 112.5490081  38.7515892
  71.6742233 112.2568329  37.8382137  80.2701514 110.2571547  26.8834405
  80.5461358 110.1428142  27.7928279  79.4006013 109.8589032  26.8446578
  80.1741946  96.2808313  33.9239154  79.2605025  96.5112540  34.0921361
  80.6035047  96.3646757  34.7753186  79.9448404 104.4698205  36.4239048
  79.2919854 104.7174113  35.7691501  80.3228784 103.6562343  36.0901525
  76.9055578 114.5057898  30.5267218  77.0877972 113.6879554  30.9894971
  77.7288564 114.7225591  30.0892108  77.2397743 113.4326083  27.7882267
  77.7685510 112.9218538  27.1752429  77.5025963 113.1168614  28.6527800
  75.9935977 105.2118016  42.9105085  75.3176614 105.1112145  43.5807460
  76.8163611 105.0557230  43.3741082  67.7414836 111.4489953  35.5317600
  68.3268273 110.7033641  35.6645505  67.5439675 111.7593909  36.4154264
  70.5953491 114.4841200  30.5480043  69.9263867 114.9687328  30.0644083
  70.4566361 114.7310421  31.4623421  62.3332491 104.0195553  34.2522044
  62.3716590 103.4859144  35.0459162  61.8272784 103.4930758  33.6333021
  74.7358760 116.5184944  37.1462701  75.2877068 116.6816565  37.9111786
  75.0764953 117.1089381  36.4742726  69.7123253  98.8660093  37.7484586
  69.7764580  99.7274924  37.3361984  69.6490373  98.2534095  37.0156944
  69.1875526 100.9383226  41.3957620  69.8147564 100.5560303  42.0095145
  68.3303445 100.7197428  41.7613313  79.5869634 111.3446201  43.0011356
  80.1309538 111.9576159  42.5066310  79.0056479 111.9025780  43.5178369
  65.9641068 102.7459655  27.3275975  66.2594510 101.8370333  27.2743029
  65.0629104 102.7247394  27.0056977  77.8727147 114.4666919  34.1326383
  77.7478287 113.6656659  33.6237329  78.5306238 114.9613112  33.6440353
  69.4935315 100.8215652  33.3103524  68.7721901 101.4351619  33.1710997
  70.2828571 101.3573416  33.2320170  79.9362056 112.2675939  35.7605933
  78.9892391 112.1481290  35.6884260  80.2844829 111.3798437  35.8432195
  72.2961629  98.1570078  39.5844175  72.8196031  98.4032375  40.3470485
  72.0773962  98.9890113  39.1647313  67.6928910 100.4273753  27.4515300
  67.3641616  99.5471132  27.2690406  68.0468281 100.3721421  28.3391689
  76.9408489 112.0628655  31.9610286  76.7933451 111.1345363  32.1417856
  77.7661982 112.0848746  31.4767361  70.8070733 100.7146723  27.8190778
  71.1466806 101.2432644  27.0969386  71.2542854 101.0527129  28.5949344
  80.5442611 112.8857214  33.0475158  81.4689158 112.6800075  32.9099610
  80.3757914 112.6373615  33.9564500  73.5014174  99.0983773  37.2693846
  73.1610994  98.2991586  37.6714526  72.7953180  99.3985484  36.6970679
  74.1530646  96.1833086  35.7221169  74.9756715  95.7093564  35.6000059
  74.3968709  96.9623569  36.2219855  72.7938880  99.2121344  26.0184071
  73.5147243  99.5902597  25.5147787  72.1704184  99.9310221  26.1219049
  76.9370003  99.9166493  26.9542403  77.1533618 100.7991131  26.6531231
  76.4564070  99.5252706  26.2248045  71.6769225 102.8752206  33.5313148
  71.5313805 103.1892509  34.4237429  71.1994428 103.4937107  32.9784046
  73.5365607  99.8654754  33.5794037  73.5227176  98.9695848  33.2426335
  74.2538036  99.8725418  34.2132323  75.3891738 100.2992094  35.6247165
  75.1309516 101.2209165  35.6231495  74.8576779  99.9022529  36.3147629
  80.3337927 113.4042882  28.4037250  80.5074804 112.8389304  27.6511102
  80.8266818 114.2043776  28.2216740  66.1514887 105.4157551  36.4700809
  65.6068355 106.1917359  36.6021083  67.0294237 105.7628355  36.3119930
  72.9402503  98.7469135  28.8481607  73.0618415  97.8185781  29.0472495
  72.6504546  98.7607821  27.9359923  75.8093694  96.4324045  31.9848327
  75.8315391  96.4963378  31.0300307  76.2261753  95.5928554  32.1788833
  86.1877318 106.1679305  30.0227550  86.6308464 105.4186630  29.6246673
  85.3103828 106.1589441  29.6401282  66.9380909 104.5427447  39.3630966
  66.1962645 104.6910082  39.9495596  66.6173653 104.8035713  38.4997715
  74.8824571 114.0843425  39.1611356  75.1911698 113.8392572  40.0334055
  75.6800053 114.2890064  38.6730226  74.9045183 116.2381335  31.3916732
  74.4650174 115.7457714  32.0849589  75.6553300 115.6954302  31.1508807
  67.3837522 112.4292876  31.3941360  68.2095542 112.1296648  31.0140004
  67.0331574 111.6600498  31.8431149  72.3519055 111.7819344  33.4639034
  71.7299065 111.1190049  33.1641262  73.0223922 111.8080476  32.7812682
  65.5846127 110.3479202  32.3530294  64.7478036 109.9201376  32.1714295
  65.5569773 110.5411645  33.2901085  72.4243583 100.2601132  43.0571540
  72.4731738 101.1363255  42.6749309  72.9666097  99.7178525  42.4843183
  82.9098429 110.8042255  42.3372677  82.1193972 110.7866394  41.7977176
  82.6731783 111.3430549  43.0921714  83.0296304 107.6534722  39.6505405
  83.0794309 107.4884729  40.5920928  82.9210227 106.7861981  39.2603286
  71.9132562 110.3323267  26.9397494  72.0620683 111.0158732  26.2864167
  72.7199006 110.3128357  27.4546950  80.3200066 103.6365650  40.9664712
  81.2209929 103.4972114  40.6748710  80.3948041 103.8020104  41.9062890
  74.6542871 101.0132504  39.8117898  73.7846181 101.3066070  39.5400487
  74.8902352 101.5972949  40.5325162  84.5314500 110.0731663  39.8947427
  84.2399309 110.4361644  40.7310888  83.9186632 109.3598671  39.7160759
  85.7310183 107.6384543  32.4149997  86.5657074 108.0774347  32.5787558
  85.8669312 107.1623196  31.5958243  82.7801689 105.1964278  38.3627485
  83.2555810 105.3891924  37.5546336  81.8567254 105.2523464  38.1170869
  69.6685195 106.3588445  27.9458563  69.4231237 105.4550775  28.1438773
  69.8381110 106.3605595  27.0038041  77.3581905  97.2312121  37.3283319
  77.8763849  97.9673148  37.0029807  77.0037038  97.5376115  38.1630078
  68.9380843 102.0916802  25.4444725  68.2450088 102.1661157  24.7884761
  68.6932595 101.3277146  25.9666242  77.6094499  93.6512404  32.8484215
  77.8896253  92.9835593  33.4744642  78.3945106  93.8441499  32.3358879
  81.4803358 102.0730038  36.5955791  82.4320781 102.1728135  36.6168015
  81.3106808 101.2808306  37.1053875  79.5017737  99.1585621  36.7815192
  78.9067669  99.4390634  36.0861680  79.2167434  99.6479522  37.5531933
  83.9591436 105.2936157  35.7098090  83.9267756 104.3552158  35.8957774
  84.5692059 105.3720194  34.9763915  75.7974766 104.1632210  21.7525294
  76.7433871 104.0338419  21.8213712  75.4189011 103.4246872  22.2294722
  84.1085924 102.0847201  35.7556373  83.5924973 101.3005658  35.5686302
  84.9925873 101.7565918  35.9202893  81.7696651  95.8288216  31.7152186
  81.5721472  95.5203305  32.5995518  82.3796356  96.5549855  31.8450116
  89.7767985 106.3552164  34.8504127  90.5071374 106.0937452  35.4111830
  89.1674931 105.6180886  34.8906195  87.8583282 104.4960027  35.4478578
  87.1316446 104.3615992  34.8395070  87.4430569 104.8036856  36.2535296
  75.6813459 108.2149957  43.2125951  76.6016468 108.3928556  43.4065998
  75.6463042 107.2706002  43.0605651  73.9817684 102.0882187  21.6880180
  73.0749139 101.7915300  21.7642893  74.2593665 101.7912005  20.8214466
  64.8995624 103.4088550  32.1379226  64.5798408 102.5553858  31.8453600
  64.3529052 103.6237128  32.8937193  68.6775531 106.1250991  35.8548732
  68.8961541 107.0568099  35.8736766  69.0901305 105.7658966  36.6403536
  75.5979749  96.6319077  27.8424421  74.7880478  96.2866162  28.2179667
  76.2864166  96.3226620  28.4312032  77.5270298  95.7097123  29.4648717
  78.0801336  96.1292577  30.1238741  77.7640384  94.7832871  29.5071673
  73.5503397 101.6984197  45.2451481  73.4500124 102.6478554  45.1763572
  73.3324939 101.3702436  44.3727551  72.7516468  98.9469122  21.8292159
  73.6135632  99.2724020  22.0887976  72.9366812  98.1600618  21.3165224
  64.7683884 107.0291462  34.1072347  64.0747355 106.6145415  33.5942302
  65.5156875 107.0711998  33.5105766  80.9049105  97.8197649  28.9727382
  80.3247774  98.4782453  28.5905434  80.6385037  96.9974993  28.5614799
  79.3552671  97.2202706  31.1748702  79.8552449  97.3319241  30.3663021
  79.9988279  96.9163759  31.8149510  73.4134667 105.1281336  44.0616543
  72.9301749 105.9281696  44.2680432  73.4995606 105.1389281  43.1083987
  66.6820626 106.9609716  31.9838362  66.6591315 107.0597403  31.0320245
  66.9921263 107.8074866  32.3055528  69.3408004 109.0185871  36.0984977
  70.2951258 108.9869813  36.0314908  69.1420528 108.5576494  36.9135203
  69.9307386 107.5886987  38.6655774  70.7500275 108.0831065  38.6890612
  70.2044194 106.6718955  38.6373342  79.6873983  99.9797739  28.0283730
  78.7999838 100.2647390  27.8103925  80.1027972  99.8191502  27.1811007
  83.0388519 100.0044260  31.7438069  83.8148909 100.4940712  32.0162686
  82.3136653 100.4302314  32.2009939  85.4761077 100.7171879  32.8012010
  86.0705568 100.4767615  32.0905318  85.5487661  99.9979010  33.4285546
  67.6958233 114.5605490  33.1155175  67.5612701 113.8005891  32.5493173
  67.2790295 115.2846390  32.6483964  79.6615006 105.4952275  28.2434020
  79.6050208 105.9520826  27.4041653  80.2143349 104.7342959  28.0656863
  83.4719812 101.2842007  29.0684140  83.2156747 100.8838642  29.8992347
  82.8472680 101.9985801  28.9434279  87.7832150 104.0238080  31.5755431
  87.2231708 104.0931269  32.3486993  87.1775654 103.8479065  30.8554927
  70.8527359 115.4574807  33.3273617  70.7359743 116.4020240  33.2252308
  70.0319805 115.1548369  33.7159417  80.3949786 106.6857056  25.5386549
  80.3398589 106.5201328  24.5974993  79.7695841 107.3933089  25.6948739
  65.1842301 101.9225120  39.3647972  65.8301164 101.4124074  39.8535197
  64.9759452 102.6593802  39.9391397  77.7095693 108.9905968  44.8640112
  78.5786852 109.1646620  44.5026747  77.2302444 109.8100385  44.7415841
  73.7045911  96.1865165  25.1171868  73.6924581  97.1307005  25.2740139
  74.5969333  96.0035310  24.8231329  71.8781873 116.1103069  36.5429546
  72.7809120 116.1426679  36.8596041  71.6519243 115.1803520  36.5575882
  73.6335475 114.8634055  33.2039624  72.6831106 114.8635917  33.0903997
  73.9367961 114.1166790  32.6875659  77.5198031  92.7807942  29.3717804
  76.7530426  92.2266428  29.5174487  77.9308736  92.8529810  30.2331956
  69.5239792  99.0692738  43.4622986  70.3871253  98.7129542  43.6726310
  68.9505202  98.7306632  44.1498390  86.1777875 120.6522022  34.2046911
  85.8396386 120.5363087  33.3167446  87.0467643 120.2513187  34.1847918
  86.6597658 121.8056874  40.1633117  86.6486299 121.4109672  39.2913621
  86.8218297 121.0722946  40.7566888  83.3804919 124.5893986  39.1112301
  83.0894785 125.4939616  38.9958967  84.0161903 124.6310513  39.8256371
  84.3061126 121.9670834  35.7013661  84.9024698 121.7426856  34.9870624
  84.3636097 121.2255580  36.3039108  91.8463285 112.0742855  36.7066182
  91.5146609 112.9438266  36.4827397  91.2508898 111.7579139  37.3860212
  81.7907286 120.7269198  32.1398799  80.8657782 120.5945412  32.3476491
  82.0391699 121.5063417  32.6368741  91.7391948 116.7937941  33.7859532
  90.8308825 116.7253350  33.4918293  91.6879544 117.2709886  34.6141357
  79.1516097 120.3702471  32.9742588  79.2808478 120.6236950  33.8882000
  78.4713548 120.9630179  32.6547243  85.8132814 118.2127587  41.7294429
  85.0366148 118.7721507  41.7197294  86.4523377 118.6984370  42.2509299
  93.6053594 114.9954380  35.5637406  92.9627975 115.2886913  34.9177200
  93.1008523 114.8807300  36.3690603  84.0679186 121.0213040  41.2912396
  84.8093870 121.5598084  41.0147220  83.3616171 121.6479329  41.4483948
  85.8965596 118.1014787  37.2618115  86.7426791 118.5254201  37.4052764
  85.8364233 117.4448412  37.9556678  89.0465041 115.7619156  38.9199288
  88.8025973 116.5161216  38.3833564  89.3224971 116.1404503  39.7546535
  88.6029733 114.9175589  34.5013126  87.7414212 115.2156842  34.7929864
  88.6292167 115.1345988  33.5694159  82.8040550 118.1752688  42.0927706
  82.1739210 118.8568969  42.3263103  82.6976638 118.0635770  41.1480844
  78.0985522 117.8424484  33.0193630  77.3084576 118.0982013  32.5433741
  78.5896770 118.6572822  33.1245671  76.3823225 118.0954975  35.4508621
  76.6331264 118.9801985  35.7166197  76.9182774 117.9159576  34.6783713
  82.0821292 112.4773454  44.4552957  81.6888238 111.9239653  45.1300602
  82.8987433 112.7884033  44.8459475  84.9989253 113.8931333  42.0473214
  85.7398967 114.4938486  41.9677676  85.2307176 113.1508971  41.4891256
  80.1430591 119.0787701  40.3251444  80.0284107 118.1772958  40.6258542
  79.2875109 119.3251397  39.9736260  88.9446416 109.9212436  36.3237496
  88.6010686 110.8114078  36.2476606  89.3125379 109.7314094  35.4607081
  88.0242957 112.2917091  34.2886729  87.5207752 112.2547227  33.4754534
  88.3173564 113.2009834  34.3483385  84.2685843 112.3755821  33.2952911
  85.1338839 112.1798630  32.9358800  84.3363352 112.1466173  34.2222267
  81.8748162 114.6058029  30.6669277  82.4491914 114.3833211  29.9342470
  82.4619144 114.6746724  31.4197879  84.1770829 111.4799278  29.3944347
  83.5235242 111.1648295  28.7700962  84.1351304 110.8575018  30.1204170
  87.4108570 117.9681211  33.7191994  86.4931131 118.1896158  33.5613682
  87.8268713 118.0427522  32.8603702  90.7434082 109.1805995  31.4255233
  91.0492959 108.3203359  31.1381148  91.4686687 109.7723616  31.2254227
  77.0358438 119.5836682  29.8136831  76.8382838 118.9906043  29.0887898
  76.4805102 119.2788892  30.5312770  88.5521733 118.5578673  38.5236697
  88.9071121 118.7850146  39.3831163  89.1993865 118.8897049  37.9013952
  82.4461596 115.6655204  35.3083038  83.0860976 115.5243963  34.6106001
  81.6139127 115.3789717  34.9321640  79.4490213 115.6355529  30.0856025
  79.7097030 116.5500862  29.9765185  80.2707385 115.1679971  30.2352638
  80.9215138 117.0493286  37.2554849  81.5938192 116.8410648  36.6067498
  80.0944925 116.8515372  36.8160082  86.8240710 113.6755227  39.2720510
  86.1768625 114.3745176  39.1784987  87.5941726 114.1091371  39.6396759
  87.0004845 121.5135992  37.3317330  87.9296905 121.6647151  37.1586297
  86.5795875 121.6020013  36.4765977  81.3242635 120.3235889  38.0157287
  81.1862433 119.5916128  38.6168826  82.2347559 120.2344789  37.7341474
  83.9524936 120.0355848  37.5040966  84.6624555 119.3949040  37.4627585
  83.9094244 120.2868743  38.4267147  82.6653870 117.0221066  39.3236606
  82.1291227 116.5711805  39.9758202  82.0770579 117.1566975  38.5807070
  73.5958269 121.2686877  31.9804577  74.2829309 120.9548607  31.3925592
  73.4406398 122.1728242  31.7071828  78.3992991 116.1577074  36.4089600
  78.3151180 115.5502743  35.6740010  77.5775698 116.6486092  36.4099097
  88.5716705 114.6430637  31.7759795  89.0685405 113.8900600  31.4560865
  87.8003687 114.6794954  31.2103005  85.1551674 116.7848020  31.5031480
  84.7849461 116.2319061  32.1912385  85.6510766 116.1806154  30.9506480
  91.0135700 111.6100231  33.9239154  90.0998780 111.8404458  34.0921361
  91.4428801 111.6938675  34.7753186  90.7842158 119.7990123  36.4239048
  90.1313609 120.0466030  35.7691501  91.1622538 118.9854261  36.0901525
  86.8329732 120.5409934  42.9105085  86.1570369 120.4404063  43.5807460
  87.6557365 120.3849148  43.3741082  78.5808591 126.7781870  35.5317600
  79.1662027 126.0325558  35.6645505  78.3833429 127.0885827  36.4154264
  73.1726245 119.3487471  34.2522044  73.2110345 118.8151061  35.0459162
  72.6666538 118.8222676  33.6333021  80.5517008 114.1952011  37.7484586
  80.6158334 115.0566842  37.3361984  80.4884128 113.5826013  37.0156944
  80.0269280 116.2675144  41.3957620  80.6541319 115.8852221  42.0095145
  79.1697199 116.0489346  41.7613313  80.3329070 116.1507569  33.3103524
  79.6115656 116.7643537  33.1710997  81.1222326 116.6865334  33.2320170
  83.1355383 113.4861996  39.5844175  83.6589785 113.7324292  40.3470485
  82.9167717 114.3182031  39.1647313  84.3407928 114.4275691  37.2693846
  84.0004749 113.6283504  37.6714526  83.6346935 114.7277402  36.6970679
  84.9924400 111.5125003  35.7221169  85.8150470 111.0385482  35.6000059
  85.2362464 112.2915487  36.2219855  82.5162979 118.2044124  33.5313148
  82.3707560 118.5184427  34.4237429  82.0388183 118.8229024  32.9784046
  84.3759362 115.1946672  33.5794037  84.3620931 114.2987765  33.2426335
  85.0931790 115.2017336  34.2132323  86.2285493 115.6284012  35.6247165
  85.9703270 116.5501083  35.6231495  85.6970533 115.2314447  36.3147629
  76.9908641 120.7449468  36.4700809  76.4462109 121.5209276  36.6021083
  77.8687991 121.0920273  36.3119930  86.6487448 111.7615963  31.9848327
  86.6709145 111.8255296  31.0300307  87.0655507 110.9220471  32.1788833
  77.7774663 119.8719365  39.3630966  77.0356399 120.0202000  39.9495596
  77.4567407 120.1327630  38.4997715  83.2637337 115.5893050  43.0571540
  83.3125493 116.4655172  42.6749309  83.8059852 115.0470443  42.4843183
  91.1593821 118.9657567  40.9664712  92.0603683 118.8264032  40.6748710
  91.2341795 119.1312022  41.9062890  85.4936626 116.3424422  39.8117898
  84.6239935 116.6357988  39.5400487  85.7296106 116.9264867  40.5325162
  88.1975660 112.5604039  37.3283319  88.7157604 113.2965066  37.0029807
  87.8430792 112.8668032  38.1630078  88.4488254 108.9804321  32.8484215
  88.7290008 108.3127511  33.4744642  89.2338861 109.1733417  32.3358879
  92.3197112 117.4021955  36.5955791  93.2714535 117.5020053  36.6168015
  92.1500563 116.6100224  37.1053875  90.3411492 114.4877539  36.7815192
  89.7461424 114.7682551  36.0861680  90.0561188 114.9771440  37.5531933
  94.9479678 117.4139119  35.7556373  94.4318727 116.6297575  35.5686302
  95.8319627 117.0857835  35.9202893  92.6090405 111.1580134  31.7152186
  92.4115227 110.8495222  32.5995518  93.2190111 111.8841773  31.8450116
  75.7389378 118.7380468  32.1379226  75.4192163 117.8845776  31.8453600
  75.1922807 118.9529046  32.8937193  79.5169286 121.4542909  35.8548732
  79.7355296 122.3860017  35.8736766  79.9295060 121.0950883  36.6403536
  88.3664052 111.0389041  29.4648717  88.9195091 111.4584494  30.1238741
  88.6034138 110.1124789  29.5071673  84.3897151 117.0276115  45.2451481
  84.2893878 117.9770472  45.1763572  84.1718693 116.6994354  44.3727551
  75.6077638 122.3583379  34.1072347  74.9141110 121.9437332  33.5942302
  76.3550629 122.4003916  33.5105766  84.2528421 120.4573254  44.0616543
  83.7695503 121.2573614  44.2680432  84.3389360 120.4681198  43.1083987
  77.5214381 122.2901633  31.9838362  77.4985069 122.3889320  31.0320245
  77.8315017 123.1366784  32.3055528  80.1801759 124.3477788  36.0984977
  81.1345012 124.3161731  36.0314908  79.9814282 123.8868412  36.9135203
  80.7701141 122.9178904  38.6655774  81.5894030 123.4122983  38.6890612
  81.0437949 122.0010872  38.6373342  76.0236055 117.2517038  39.3647972
  76.6694919 116.7415992  39.8535197  75.8153206 117.9885720  39.9391397
  88.3591785 108.1099859  29.3717804  87.5924181 107.5558346  29.5174487
  88.7702490 108.1821728  30.2331956  80.3633546 114.3984655  43.4622986
  81.2265008 114.0421460  43.6726310  79.7898957 114.0598550  44.1498390
  25.3900863  11.7048735  29.7256662  25.9340767  12.3178694  29.2311617
  24.8087708  12.2628314  30.2423675  28.7129657  11.1644789  29.0617984
  27.9225201  11.1468928  28.5222483  28.4763012  11.7033083  29.8167020
  23.5126922   9.3508502  31.5885419  24.3818081   9.5249154  31.2272054
  23.0333673  10.1702919  31.4661148  35.1719397  21.0597128  20.9930693
  35.8097807  20.9403875  20.2894033  35.0540240  22.0077972  21.0518646
  32.4628887  22.1659408  26.8878424  32.4517527  21.7712206  26.0158927
  32.6249526  21.4325481  27.4812195  29.1836148  24.9496520  25.8357608
  28.8926014  25.8542151  25.7204274  29.8193132  24.9913047  26.5501677
  30.1092355  22.3273368  22.4258967  30.7055927  22.1029391  21.7115930
  30.1667326  21.5858114  23.0284415  40.1269093  18.7223815  18.9716880
  40.8594265  18.1523032  19.2054709  39.3708449  18.3345416  19.4123386
  37.6494513  12.4345389  23.4311489  37.3177838  13.3040800  23.2072704
  37.0540127  12.1181673  24.1105519  34.1426033  24.6357935  22.8307401
  33.8426756  25.5382974  22.7223209  33.7977092  24.3690118  23.6828554
  29.1246813  31.4002256  15.7978369  29.0470842  32.3510081  15.8766850
  28.5208456  31.0548128  16.4553295  31.6164042  18.5730121  28.4539736
  30.8397377  19.1324041  28.4442601  32.2554606  19.0586904  28.9754606
  39.4084823  15.3556914  22.2882713  38.7659203  15.6489447  21.6422507
  38.9039752  15.2409834  23.0935909  29.8710415  21.3815574  28.0157703
  30.6125099  21.9200618  27.7392526  29.1647400  22.0081863  28.1729255
  35.3465754  23.5244715  26.6129864  35.7549110  23.0827125  25.8684497
  34.6243016  22.9497342  26.8664057  31.6996824  18.4617322  23.9863421
  32.5458020  18.8856735  24.1298070  31.6395462  17.8050946  24.6801984
  35.6694569  24.0845905  20.3682153  35.0403432  24.2491620  19.6658221
  35.2820231  24.4987515  21.1393117  39.5483801  25.0200343  17.7226517
  38.8634839  25.3999245  17.1723550  39.6327650  25.6295670  18.4558465
  34.8496270  16.1221690  25.6444595  34.6057202  16.8763751  25.1078871
  35.1256200  16.5007038  26.4791842  36.8034733  22.6660302  24.3221861
  37.0151628  23.3092062  23.6456242  36.7564481  21.8322619  23.8543791
  28.6071779  18.5355223  28.8173013  27.9770439  19.2171503  29.0508410
  28.5007866  18.4238304  27.8726151  37.9180561  25.5432258  22.4944218
  38.7398004  25.1412445  22.2126900  37.9142963  25.4400492  23.4460334
  31.6837164  25.0916301  24.6504928  31.7481596  25.5536708  25.4863100
  30.9748088  24.4613666  24.7787238  46.0086554  21.8871006  18.8429189
  45.2550262  21.3178404  18.6873194  46.1434095  21.8533671  19.7899824
  27.8852521  12.8375988  31.1798264  27.4919467  12.2842187  31.8545908
  28.7018662  13.1486567  31.5704781  30.8020482  14.2533867  28.7718520
  31.5430196  14.8541021  28.6922983  31.0338405  13.5111505  28.2136563
  25.9461820  19.4390235  27.0496750  25.8315335  18.5375492  27.3503849
  25.0906338  19.6853932  26.6981567  33.0253658  27.3807975  28.6484251
  32.5817512  26.5944354  28.3305155  33.6870872  27.5687126  27.9828142
  27.7840779  28.9103777  23.1744929  28.3348204  28.7820840  22.4021923
  26.9452255  29.2098666  22.8239822  35.1234896  27.6610775  26.6765652
  35.1053371  28.4819656  26.1845921  36.0454816  27.5364850  26.9015793
  31.5807950  25.1754904  27.5189160  32.1136287  24.4143193  27.2888468
  31.0522031  24.8828556  28.2613315  37.9253509  22.4989917  20.1475019
  37.2677183  23.1889179  20.2355147  38.7293908  22.8886349  20.4909005
  37.5020764  25.8340292  16.3258103  37.0483091  24.9931201  16.3823294
  36.8714731  26.4701690  16.6632883  35.9453703  27.6716788  17.2607921
  36.2376678  28.2321845  16.5420287  36.4552324  27.9645349  18.0161080
  30.9087328  28.4497139  18.3501374  30.8663507  28.6757986  17.4209906
  31.8250027  28.2160514  18.4987176  34.3552962  18.9181207  25.2482004
  34.7102350  19.1452680  26.1076469  35.0025093  19.2499584  24.6259259
  40.1120079  24.1076170  20.9642604  40.5456585  24.0151459  21.8125658
  40.8251659  24.0833670  20.3262620  33.8447974  27.7078264  22.4975705
  33.8984996  28.2769200  23.2653421  32.9762755  27.8780149  22.1329742
  40.9735628  24.1499870  23.4975490  41.1671518  25.0545681  23.7434765
  40.8736246  23.6907290  24.3314075  32.6271939  14.0357761  25.9965817
  31.9799854  14.7347711  25.9030293  33.3972954  14.4693905  26.3642065
  36.0350737  24.3006613  29.0716370  35.8836243  24.0717165  28.1546454
  36.0255416  25.2577215  29.0847715  32.8036073  21.8738526  24.0562637
  33.7328133  22.0249686  23.8831604  32.3827103  21.9622547  23.2011283
  31.6024405  25.8989190  21.8261174  31.4635491  25.5307975  22.6987112
  30.8139001  26.4136830  21.6545132  33.1529620  25.2770793  19.2150012
  32.8179453  25.2371563  20.1107662  32.6533566  24.6115509  18.7420422
  27.1273864  20.6838423  24.7402593  26.9893662  19.9518662  25.3414132
  28.0378788  20.5947323  24.4586781  29.7556165  20.3958382  24.2286273
  30.4655783  19.7551575  24.1872891  29.7125473  20.6471277  25.1512454
  37.7442944  27.3325736  27.1492852  37.6855490  26.6484956  26.4823435
  38.1462462  28.0744726  26.6973478  28.4685099  17.3823600  26.0481912
  27.9322456  16.9314339  26.7003509  27.8801807  17.5169509  25.3052377
  26.7633642  34.1487650  19.9426571  27.0030241  34.7806174  20.6205590
  25.9202839  33.7975690  20.2291930  37.7460351  25.2965320  25.3806832
  36.8587130  24.9591241  25.5033231  38.3158902  24.5648351  25.6175597
  31.2761504  29.9566772  22.3468075  31.2031676  30.7621744  22.8587380
  30.8338897  30.1558738  21.5216096  42.2277691  20.7073537  20.1423393
  42.2167568  21.5898252  19.7717326  41.3595071  20.3545088  19.9477930
  33.7360188  29.8553606  24.5026234  34.4488160  30.4901071  24.4302135
  33.2450216  29.9517472  23.6866235  28.7872101  27.6048050  25.3231804
  29.4881561  28.2384532  25.4761199  28.3167216  27.9462781  24.5627444
  36.5873387  20.1592657  23.1484355  35.9344838  20.4068564  22.4936808
  36.9653767  19.3456795  22.8146832  33.5480561  30.1952350  17.2512525
  33.7302956  29.3774006  17.7140277  34.3713547  30.4120042  16.8137415
  32.6360960  20.9012468  29.6350392  31.9601597  20.8006597  30.3052767
  33.4588594  20.7451682  30.0986389  24.3839819  27.1384405  22.2562907
  24.9693256  26.3928092  22.3890811  24.1864658  27.4488361  23.1399571
  31.3783743  32.2079395  23.8708008  31.9302051  32.3711017  24.6357093
  31.7189937  32.7983833  23.1988033  25.8300509  16.6277678  28.1202927
  26.4572548  16.2454755  28.7340451  24.9728428  16.4091880  28.4858619
  36.2294618  27.0340653  29.7256662  36.7734522  27.6470611  29.2311617
  35.6481462  27.5920231  30.2423675  34.5152130  30.1561371  20.8571690
  34.3903270  29.3551111  20.3482636  35.1731222  30.6507564  20.3685660
  36.5787039  27.9570391  22.4851240  35.6317374  27.8375742  22.4129567
  36.9269812  27.0692889  22.5677502  28.9386612  13.8464530  26.3089482
  29.4621014  14.0926827  27.0715791  28.7198946  14.6784565  25.8892619
  33.5833472  27.7523107  18.6855592  33.4358435  26.8239815  18.8663162
  34.4086966  27.7743198  18.2012668  37.1867594  28.5751666  19.7720465
  38.1114141  28.3694527  19.6344916  37.0182897  28.3268067  20.6809807
  36.9762910  29.0937333  15.1282557  37.1499788  28.5283756  14.3756409
  37.4691801  29.8938228  14.9462047  42.8302301  21.8573756  16.7472856
  43.2733447  21.1081082  16.3491980  41.9528812  21.8483893  16.3646588
  23.5805892  20.2321899  26.0876272  22.8387628  20.3804534  26.6740903
  23.2598636  20.4930164  25.2243022  31.5249555  29.7737877  25.8856662
  31.8336681  29.5287024  26.7579362  32.3225037  29.9784516  25.3975532
  31.5470167  31.9275787  18.1162039  31.1075157  31.4352165  18.8094895
  32.2978284  31.3848754  17.8754114  28.9944039  27.4713796  20.1884340
  28.3724048  26.8084501  19.8886568  29.6648906  27.4974928  19.5057988
  29.0668566  15.9495584  29.7816846  29.1156722  16.8257707  29.3994616
  29.6091080  15.4072977  29.2088490  39.5523412  26.4936707  29.0617984
  38.7618956  26.4760846  28.5222483  39.3156766  27.0325001  29.8167020
  39.6721287  23.3429173  26.3750712  39.7219292  23.1779181  27.3166235
  39.5635210  22.4756432  25.9848593  36.9625049  19.3260101  27.6910019
  37.8634912  19.1866566  27.3994017  37.0373024  19.4914556  28.6308196
  31.2967855  16.7026956  26.5363205  30.4271164  16.9960522  26.2645794
  31.5327335  17.2867401  27.2570469  41.1739484  25.7626115  26.6192734
  40.8824292  26.1256096  27.4556195  40.5611615  25.0493123  26.4406066
  42.3735166  23.3278995  19.1395304  43.2082057  23.7668799  19.3032864
  42.5094295  22.8517648  18.3203550  39.4226672  20.8858730  25.0872792
  39.8980794  21.0786376  24.2791643  38.4992237  20.9417915  24.8416175
  38.1228341  17.7624490  23.3201097  39.0745764  17.8622587  23.3413321
  37.9531791  16.9702758  23.8299182  36.1442720  14.8480073  23.5060498
  35.5492653  15.1285086  22.8106987  35.8592417  15.3373974  24.2777239
  40.6016419  20.9830609  22.4343397  40.5692739  20.0446610  22.6203081
  41.2117042  21.0614646  21.7009222  40.7510907  17.7741653  22.4801680
  40.2349956  16.9900109  22.2931609  41.6350856  17.4460369  22.6448200
  46.4192969  22.0446616  21.5749434  47.1496357  21.7831904  22.1357137
  45.8099914  21.3075338  21.6151502  44.5008266  20.1854479  22.1723885
  43.7741429  20.0510444  21.5640376  44.0855553  20.4931307  22.9780603
  32.3238442  23.9044408  29.9371258  33.2441452  24.0823007  30.1311304
  32.2888025  22.9600454  29.7850957  30.1928380  17.3878649  31.9696788
  30.0925107  18.3373006  31.9008879  29.9749922  17.0596888  31.0972858
  30.0559650  20.8175788  30.7861850  29.5726732  21.6176148  30.9925739
  30.1420589  20.8283733  29.8329294  25.9832988  24.7080322  22.8230283
  26.9376241  24.6764265  22.7560215  25.7845511  24.2470946  23.6380509
  26.5732370  23.2781438  25.3901081  27.3925259  23.7725517  25.4135918
  26.8469177  22.3613407  25.3618649  24.3383216  30.2499942  19.8400481
  24.2037684  29.4900343  19.2738479  23.9215279  30.9740842  19.3729270
  44.4257133  19.7132532  18.3000738  43.8656691  19.7825721  19.0732300
  43.8200637  19.5373516  17.5800234  27.4952342  31.1469259  20.0518924
  27.3784726  32.0914691  19.9497614  26.6744789  30.8442820  20.4404723
  34.3520676  24.6800420  31.5885419  35.2211836  24.8541072  31.2272054
  33.8727428  25.4994837  31.4661148  28.5206856  31.7997521  23.2674852
  29.4234103  31.8321131  23.5841347  28.2944226  30.8697972  23.2821188
  30.2760458  30.5528507  19.9284931  29.3256089  30.5530369  19.8149303
  30.5792945  29.8061242  19.4120966  26.1664775  14.7587189  30.1868292
  27.0296237  14.4023994  30.3971617  25.5930186  14.4201084  30.8743697
  46.0113152  36.3889046  20.9930693  46.6491562  36.2695793  20.2894033
  45.8933995  37.3369890  21.0518646  42.8202858  36.3416474  20.9292218
  42.4821370  36.2257539  20.0412753  43.6892626  35.9407639  20.9093224
  38.6789674  38.1951950  16.9189109  38.1154539  38.1041887  16.1505397
  38.5642069  37.3751855  17.3991602  43.3022641  37.4951326  26.8878424
  43.2911282  37.1004124  26.0158927  43.4643281  36.7617398  27.4812195
  36.2254106  39.6903142  19.7573329  37.0175398  39.3493967  19.3419629
  36.4650756  39.7998117  20.6775483  44.2589233  41.8622918  12.2303574
  43.6077212  42.4476998  11.8437588  45.0533595  42.3929113  12.2898611
  38.1844860  38.9512055  12.6290708  38.9575736  38.4041042  12.4903584
  38.5370259  39.8156304  12.8405170  40.0229902  40.2788437  25.8357608
  39.7319768  41.1834068  25.7204274  40.6586887  40.3204965  26.5501677
  40.9486109  37.6565286  22.4258967  41.5449681  37.4321308  21.7115930
  41.0061081  36.9150031  23.0284415  40.5211138  35.1104721  10.2609158
  40.7736658  34.5886243   9.4992621  39.5835697  34.9470867  10.3635842
  45.5654420  34.1140500  18.0683901  46.3517510  33.6959923  17.7174318
  45.8293125  35.0186592  18.2365550  45.7364498  39.5513350  12.7672558
  45.1010331  39.6247976  13.4793463  45.4061904  40.1406949  12.0891637
  50.9662848  34.0515733  18.9716880  51.6988019  33.4814950  19.2054709
  50.2102203  33.6637333  19.4123386  40.2407426  37.0132827  12.4633533
  40.1243684  36.3377731  13.1314617  40.3509686  36.5265201  11.6465686
  42.5838967  36.4742974  16.1680222  42.2197174  35.9473595  16.8793144
  43.4406083  36.0841443  15.9946708  48.4888268  27.7637307  23.4311489
  48.1571593  28.6332718  23.2072704  47.8933881  27.4473591  24.1105519
  44.9819787  39.9649853  22.8307401  44.6820510  40.8674892  22.7223209
  44.6370847  39.6982036  23.6828554  38.4332269  36.4163650  18.8644106
  37.5082765  36.2839864  19.0721797  38.6816682  37.1957869  19.3614048
  48.3816931  32.4832393  20.5104839  47.4733809  32.4147802  20.2163600
  48.3304527  32.9604338  21.3386664  42.2033675  33.9590532  12.1488238
  42.0833300  34.4047582  12.9873718  41.5086263  34.3075849  11.5901776
  35.7941080  36.0596923  19.6987895  35.9233461  36.3131402  20.6127306
  35.1138531  36.6524631  19.3792550  39.9640567  46.7294173  15.7978369
  39.8864597  47.6801998  15.8766850  39.3602211  46.3840046  16.4553295
  42.4557797  33.9022039  28.4539736  41.6791131  34.4615959  28.4442601
  43.0948360  34.3878822  28.9754606  50.2478578  30.6848832  22.2882713
  49.6052958  30.9781365  21.6422507  49.7433506  30.5701752  23.0935909
  47.9018741  34.4312005  12.9768572  48.8136597  34.6639391  12.8016269
  47.3928388  35.0149049  12.4143650  40.7104169  36.7107492  28.0157703
  41.4518854  37.2492536  27.7392526  40.0041155  37.3373781  28.1729255
  46.1859509  38.8536633  26.6129864  46.5942865  38.4119043  25.8684497
  45.4636770  38.2789260  26.8664057  42.5390579  33.7909239  23.9863421
  43.3851774  34.2148653  24.1298070  42.4789217  33.1342864  24.6801984
  46.5088324  39.4137823  20.3682153  45.8797186  39.5783537  19.6658221
  46.1213986  39.8279433  21.1393117  50.3877555  40.3492261  17.7226517
  49.7028594  40.7291162  17.1723550  50.4721405  40.9587588  18.4558465
  45.6890024  31.4513608  25.6444595  45.4450956  32.2055668  25.1078871
  45.9649955  31.8298955  26.4791842  47.6428487  37.9952220  24.3221861
  47.8545382  38.6383980  23.6456242  47.5958235  37.1614537  23.8543791
  45.2454716  30.6070041  21.2258433  44.3839195  30.9051294  21.5175170
  45.2717151  30.8240440  20.2939465  42.0616285  39.1512231  17.6332238
  42.5254631  39.4299934  16.8436861  41.7973084  38.2495676  17.4505329
  38.9540366  38.6983713  20.5712002  39.5241724  39.1270981  19.9329486
  39.5448478  38.4166297  21.2696187  40.9985171  35.2735384  14.4421803
  41.7009215  35.7256427  14.9095730  40.6665800  34.6319202  15.0701697
  39.4465533  33.8647140  28.8173013  38.8164194  34.5463421  29.0508410
  39.3401621  33.7530222  27.8726151  34.7410505  33.5318936  19.7438937
  33.9509559  33.7876465  19.2679048  35.2321753  34.3467274  19.8490978
  48.7574315  40.8724175  22.4944218  49.5791759  40.4704363  22.2126900
  48.7536718  40.7692410  23.4460334  36.6925251  33.8963516  16.7022414
  35.8956414  34.0082210  17.2205909  36.4650843  34.2350168  15.8363304
  42.5230918  40.4208219  24.6504928  42.5875351  40.8828626  25.4863100
  41.8141842  39.7905584  24.7787238  33.0248208  33.7849427  22.1753928
  33.2756247  34.6696437  22.4411504  33.5607757  33.6054028  21.4029020
  56.8480308  37.2162924  18.8429189  56.0944016  36.6470322  18.6873194
  56.9827849  37.1825588  19.7899824  42.2378936  42.0876326  14.5183909
  42.1024611  42.9327862  14.9468757  42.7788749  42.2895604  13.7549842
  38.7246276  28.1667906  31.1798264  38.3313221  27.6134105  31.8545908
  39.5412416  28.4778485  31.5704781  35.6908334  39.6051764  15.0911834
  36.2032854  40.3995015  15.2417398  36.3431046  38.9078055  15.0245435
  37.5003218  42.7217521  17.1734587  37.6769847  43.6435485  16.9855571
  38.2960052  42.4075940  17.6028967  41.6414237  29.5825785  28.7718520
  42.3823950  30.1832938  28.6922983  41.8732160  28.8403423  28.2136563
  36.7855575  34.7682152  27.0496750  36.6709090  33.8667410  27.3503849
  35.9300092  35.0145849  26.6981567  43.8647412  42.7099893  28.6484251
  43.4211267  41.9236271  28.3305155  44.5264626  42.8979043  27.9828142
  38.6234534  44.2395694  23.1744929  39.1741959  44.1112758  22.4021923
  37.7846010  44.5390583  22.8239822  45.9628651  42.9902693  26.6765652
  45.9447126  43.8111574  26.1845921  46.8848571  42.8656768  26.9015793
  42.4201705  40.5046822  27.5189160  42.9530042  39.7435110  27.2888468
  41.8915786  40.2120474  28.2613315  45.5871400  25.6106888  23.0482802
  45.2435669  26.5008530  22.9721913  45.9550362  25.4208546  22.1852387
  33.6557250  37.9340419  15.8671404  34.4932472  38.3437427  15.6505112
  33.8335518  36.9939861  15.8371598  45.5521682  35.6015499  11.5555237
  45.0368306  36.3720104  11.7943625  45.2798991  34.9280635  12.1788299
  43.1368793  30.4465200  16.6140476  42.2810390  30.0572050  16.4346114
  43.5495745  30.5257161  15.7540261  44.6667940  27.9811543  21.0132035
  44.1632736  27.9441678  20.1999841  44.9598547  28.8904286  21.0728692
  40.9110826  28.0650273  20.0198217  41.7763823  27.8693082  19.6604107
  40.9788335  27.8360625  20.9467574  50.5255957  38.3547854  13.4908411
  49.7485399  38.0159013  13.0463573  51.2047438  38.3600477  12.8163376
  45.3407986  33.4742591  13.3815018  45.0358121  33.7888740  14.2325162
  46.2938428  33.5524011  13.4242351  43.7854417  39.6332815  15.0307972
  43.2575779  38.8985574  14.7181210  43.2841920  40.4107491  14.7847941
  48.7647263  37.8281835  20.1475019  48.1070938  38.5181097  20.2355147
  49.5687663  38.2178267  20.4909005  38.5173145  30.2952481  17.3914584
  39.0916897  30.0727662  16.6587777  39.1044127  30.3641175  18.1443185
  47.5752722  36.1826208  18.1978960  48.0884604  36.8156200  18.7000670
  48.2253946  35.5827403  17.8322320  40.8195813  27.1693730  16.1189653
  40.1660225  26.8542747  15.4946268  40.7776287  26.5469470  16.8449476
  41.9307018  37.4513025   8.0342945  41.0234079  37.2202278   8.2334094
  42.4278050  36.6550644   8.2216927  44.8375096  46.1610532  10.9539632
  44.1636795  46.4642229  11.5624589  45.2240918  46.9639612  10.6045089
  44.0533553  33.6575663  20.4437301  43.1356114  33.8790610  20.2858989
  44.4693697  33.7321974  19.5849008  44.8368601  35.0567079  15.5739981
  45.5840420  35.5688476  15.2647103  45.1060190  34.7351132  16.4344375
  43.1095251  37.5525620  12.5566936  42.2006470  37.2684653  12.6539405
  43.1390335  37.9724698  11.6970242  48.3414518  41.1632209  16.3258103
  47.8876846  40.3223119  16.3823294  47.7108485  41.7993608  16.6632883
  47.2847438  32.0924195  17.5558771  46.5470195  31.5801581  17.8869013
  47.5374212  31.6524577  16.7442047  46.7847458  43.0008706  17.2607921
  47.0770432  43.5613763  16.5420287  47.2946078  43.2937267  18.0161080
  47.3859065  24.8700447  18.1500540  47.6917942  24.0097811  17.8626455
  48.1111670  25.4618067  17.9499534  33.6783421  35.2731134  16.5382138
  33.4807821  34.6800495  15.8133204  33.1230085  34.9683344  17.2558077
  41.6580145  35.1654240  18.6576731  41.7128755  34.2128077  18.5819207
  40.8471347  35.3213679  19.1418029  42.8071339  39.0934363   9.8955014
  42.3690769  38.3770222   9.4360651  43.5481780  39.3210478   9.3340106
  39.5972505  33.7831300  16.4167110  38.7840371  34.0825471  16.8232302
  40.0931499  33.3886989  17.1341592  41.7481083  43.7789057  18.3501374
  41.7057262  44.0049903  17.4209906  42.6643782  43.5452432  18.4987176
  45.1946717  34.2473125  25.2482004  45.5496104  34.4744598  26.1076469
  45.8418848  34.5791501  24.6259259  50.9244454  37.3691560  15.9531333
  50.7862352  37.5593156  15.0252522  50.5680672  38.1310943  16.4099384
  39.0886580  31.3549656  22.0328345  39.7285959  31.2138415  21.3351308
  38.2564110  31.0684169  21.6566947  50.9513833  39.4368087  20.9642604
  51.3850340  39.3443377  21.8125658  51.6645414  39.4125588  20.3262620
  39.8646884  40.6552086  18.1463337  40.6587482  40.1602406  17.9445912
  39.1538576  40.1269949  17.7831043  44.6841728  43.0370182  22.4975705
  44.7378750  43.6061118  23.2653421  43.8156509  43.2072067  22.1329742
  36.1729647  34.7995168  14.2223090  35.2427235  34.7379623  14.4393052
  36.2687119  34.2771121  13.4259731  36.0915196  31.3249981  16.8101332
  36.3522013  32.2395314  16.7010492  36.9132369  30.8574423  16.9597944
  37.5640122  32.7387738  23.9800156  38.2363175  32.5305100  23.3312805
  36.7369908  32.5409824  23.5405388  51.8129383  39.4791788  23.4975490
  52.0065273  40.3837599  23.7434765  51.7130001  39.0199207  24.3314075
  43.4665694  29.3649679  25.9965817  42.8193609  30.0639628  25.9030293
  44.2366709  29.7985823  26.3642065  46.8744491  39.6298531  29.0716370
  46.7229998  39.4009083  28.1546454  46.8649171  40.5869132  29.0847715
  43.6429828  37.2030444  24.0562637  44.5721888  37.3541603  23.8831604
  43.2220858  37.2914464  23.2011283  42.4418160  41.2281108  21.8261174
  42.3029245  40.8599892  22.6987112  41.6532756  41.7428747  21.6545132
  43.0366312  46.3290205  13.1686711  43.2118067  45.8578248  13.9832333
  42.3499100  46.9555971  13.3967972  43.9923375  40.6062711  19.2150012
  43.6573207  40.5663481  20.1107662  43.4927320  39.9407427  18.7420422
  37.9667619  36.0130341  24.7402593  37.8287417  35.2810580  25.3414132
  38.8772542  35.9239241  24.4586781  46.9282566  37.9518745   9.4887072
  46.3111737  37.2265573   9.3920124  46.4599055  38.7128105   9.1454146
  40.5949919  35.7250300  24.2286273  41.3049538  35.0843492  24.1872891
  40.5519228  35.9763195  25.1512454  48.5836698  42.6617653  27.1492852
  48.5249244  41.9776874  26.4823435  48.9856216  43.4036643  26.6973478
  39.3078853  32.7115518  26.0481912  38.7716210  32.2606256  26.7003509
  38.7195562  32.8461427  25.3052377  37.6027397  49.4779567  19.9426571
  37.8423995  50.1098091  20.6205590  36.7596593  49.1267607  20.2291930
  48.5854105  40.6257237  25.3806832  47.6980884  40.2883159  25.5033231
  49.1552656  39.8940269  25.6175597  30.2383252  36.9581329  18.7049883
  30.9254292  36.6443059  18.1170898  30.0831381  37.8622694  18.4317135
  35.0417975  31.8471526  23.1334907  34.9576163  31.2397195  22.3985317
  34.2200681  32.3380544  23.1344403  42.1155259  45.2858690  22.3468075
  42.0425430  46.0913661  22.8587380  41.6732652  45.4850656  21.5216096
  41.9045038  44.5230460  15.8570897  41.1212560  45.0652140  15.9509121
  42.6037784  45.0404439  16.2565138  45.2141689  30.3325089  18.5005102
  45.7110388  29.5795052  18.1806172  44.4428670  30.3689406  17.9348311
  53.0671446  36.0365455  20.1423393  53.0561322  36.9190170  19.7717326
  52.1988825  35.6837006  19.9477930  44.5753942  45.1845524  24.5026234
  45.2881914  45.8192989  24.4302135  44.0843971  45.2809390  23.6866235
  46.2971469  39.0896776  16.0743525  45.3627748  39.2098239  15.9048230
  46.4748138  38.1869243  15.8103535  41.7976657  32.4742472  18.2276786
  41.4274445  31.9213513  18.9157692  42.2935750  31.8700606  17.6751787
  49.6844021  34.9314096  16.6093559  50.1504473  35.7642087  16.5353862
  50.1351521  34.4659077  17.3138818  39.6265856  42.9339967  25.3231804
  40.3275315  43.5676450  25.4761199  39.1560971  43.2754699  24.5627444
  47.7520252  41.2757917  13.6079711  48.0280096  41.1614512  14.5173586
  46.8824750  40.8775402  13.5691885  47.6560683  27.2994683  20.6484461
  46.7423763  27.5298910  20.8166668  48.0853785  27.3833127  21.4998493
  47.4267142  35.4884575  23.1484355  46.7738592  35.7360482  22.4936808
  47.8047522  34.6748713  22.8146832  44.3874316  45.5244268  17.2512525
  44.5696710  44.7065924  17.7140277  45.2107302  45.7411960  16.8137415
  44.7216481  44.4512453  14.5127574  45.2504248  43.9404908  13.8997736
  44.9844701  44.1354983  15.3773107  43.4754715  36.2304386  29.6350392
  42.7995352  36.1298515  30.3052767  44.2982349  36.0743599  30.0986389
  35.2233574  42.4676322  22.2562907  35.8087011  41.7220010  22.3890811
  35.0258412  42.7780279  23.1399571  38.0772229  45.5027570  17.2725349
  37.4082604  45.9873697  16.7889390  37.9385099  45.7496790  18.1868728
  29.8151229  35.0381922  20.9767350  29.8535328  34.5045513  21.7704468
  29.3091521  34.5117128  20.3578327  42.2177498  47.5371313  23.8708008
  42.7695806  47.7002935  24.6357093  42.5583691  48.1275751  23.1988033
  37.1941991  29.8846463  24.4729893  37.2583317  30.7461294  24.0607290
  37.1309111  29.2720465  23.7402251  36.6694263  31.9569596  28.1202927
  37.2966302  31.5746673  28.7340451  35.8122182  31.7383797  28.4858619
  47.0688372  42.3632571  29.7256662  47.6128276  42.9762529  29.2311617
  46.4875217  42.9212149  30.2423675  33.4459806  33.7646025  14.0521282
  33.7413247  32.8556703  13.9988335  32.5447842  33.7433764  13.7302284
  45.3545885  45.4853289  20.8571690  45.2297024  44.6843029  20.3482636
  46.0124976  45.9799482  20.3685660  36.9754053  31.8402021  20.0348830
  36.2540639  32.4537989  19.8956304  37.7647309  32.3759786  19.9565476
  47.4180793  43.2862309  22.4851240  46.4711129  43.1667660  22.4129567
  47.7663566  42.3984807  22.5677502  39.7780367  29.1756448  26.3089482
  40.3014769  29.4218744  27.0715791  39.5592700  30.0076483  25.8892619
  35.1747648  31.4460122  14.1760607  34.8460354  30.5657501  13.9935713
  35.5287018  31.3907791  15.0636996  44.4227227  43.0815025  18.6855592
  44.2752189  42.1531732  18.8663162  45.2480720  43.1035116  18.2012668
  38.2889471  31.7333092  14.5436084  38.6285543  32.2619013  13.8214693
  38.7361591  32.0713498  15.3194651  48.0261348  43.9043584  19.7720465
  48.9507896  43.6986445  19.6344916  47.8576652  43.6559985  20.6809807
  40.9832912  30.1170143  23.9939153  40.6429732  29.3177956  24.3959832
  40.2771918  30.4171854  23.4215986  41.6349384  27.2019455  22.4466476
  42.4575453  26.7279933  22.3245366  41.8787447  27.9809939  22.9465162
  40.2757618  30.2307714  12.7429377  40.9965981  30.6088966  12.2393094
  39.6522922  30.9496590  12.8464355  44.4188741  30.9352863  13.6787710
  44.6352355  31.8177501  13.3776538  43.9382808  30.5439076  12.9493352
  39.1587962  33.8938576  20.2558454  39.0132543  34.2078879  21.1482736
  38.6813166  34.5123476  19.7029353  41.0184345  30.8841124  20.3039344
  41.0045914  29.9882217  19.9671642  41.7356773  30.8911788  20.9377630
  42.8710476  31.3178464  22.3492471  42.6128254  32.2395535  22.3476802
  42.3395516  30.9208899  23.0392935  47.8156665  44.4229251  15.1282557
  47.9893542  43.8575674  14.3756409  48.3085556  45.2230146  14.9462047
  33.6333625  36.4343920  23.1946115  33.0887093  37.2103728  23.3266390
  34.5112974  36.7814725  23.0365237  40.4221241  29.7655504  15.5726914
  40.5437152  28.8372150  15.7717801  40.1323284  29.7794190  14.6605229
  43.2912432  27.4510415  18.7093634  43.3134128  27.5149748  17.7545613
  43.7080491  26.6114923  18.9034140  53.6696056  37.1865674  16.7472856
  54.1127202  36.4372999  16.3491980  52.7922566  37.1775810  16.3646588
  48.8031837  43.7396016  12.2279455  49.4982742  44.3602708  12.4466769
  49.1454987  42.8891367  12.5031833  34.4199646  35.5613817  26.0876272
  33.6781382  35.7096452  26.6740903  34.0992391  35.8222082  25.2243022
  50.7023260  41.1895721  13.7566786  51.2274584  41.5282994  13.0316106
  50.6145613  40.2542736  13.5729920  42.3643309  45.1029795  25.8856662
  42.6730435  44.8578942  26.7579362  43.1618791  45.3076433  25.3975532
  42.3863921  47.2567704  18.1162039  41.9468911  46.7644083  18.8094895
  43.1372038  46.7140672  17.8754114  34.8656260  43.4479245  18.1186667
  35.6914280  43.1483017  17.7385310  34.5150312  42.6786868  18.5676456
  39.8337793  42.8005713  20.1884340  39.2117803  42.1376418  19.8886568
  40.5042660  42.8266845  19.5057988  33.0664865  41.3665572  19.0775600
  32.2296773  40.9387746  18.8959602  33.0388511  41.5598015  20.0146392
  39.9062321  31.2787501  29.7816846  39.9550476  32.1549624  29.3994616
  40.4484835  30.7364895  29.2088490  50.5115041  38.6721091  26.3750712
  50.5613046  38.5071099  27.3166235  50.4028965  37.8048350  25.9848593
  39.3951300  41.3509637  13.6642801  39.5439420  42.0345101  13.0109474
  40.2017744  41.3314727  14.1792257  47.8018804  34.6552019  27.6910019
  48.7028667  34.5158484  27.3994017  47.8766778  34.8206474  28.6308196
  42.1361609  32.0318874  26.5363205  41.2664919  32.3252440  26.2645794
  42.3721090  32.6159319  27.2570469  53.2128921  38.6570912  19.1395304
  54.0475812  39.0960716  19.3032864  53.3488049  38.1809566  18.3203550
  50.2620427  36.2150647  25.0872792  50.7374548  36.4078294  24.2791643
  49.3385992  36.2709833  24.8416175  37.1503933  37.3774814  14.6703870
  36.9049975  36.4737144  14.8684080  37.3199848  37.3791965  13.7283348
  44.8400643  28.2498491  24.0528626  45.3582587  28.9859518  23.7275114
  44.4855776  28.5562484  24.8875385  45.0913237  24.6698773  19.5729522
  45.3714991  24.0021962  20.1989949  45.8763844  24.8627869  19.0604186
  42.8946706  43.8457767  11.1354548  42.3220673  44.4647954  10.6825020
  43.4679499  44.3957129  11.6694470  48.9622096  33.0916407  23.3201097
  49.9139518  33.1914505  23.3413321  48.7925546  32.2994676  23.8299182
  46.9836475  30.1771991  23.5060498  46.3886407  30.4577003  22.8106987
  46.6986172  30.6665891  24.2777239  46.1143965  44.1294917  12.2663131
  47.0474639  44.0640479  12.4696006  46.0267178  44.9651184  11.8077663
  48.7431982  43.4460788   9.2267078  48.6645614  43.1120651  10.1202836
  49.5641649  43.9382556   9.2258551  51.4410173  36.3122527  22.4343397
  51.4086493  35.3738528  22.6203081  52.0510797  36.3906564  21.7009222
  43.2793504  35.1818580   8.4770601  44.2252609  35.0524788   8.5459019
  42.9007749  34.4433242   8.9540029  51.5904662  33.1033570  22.4801680
  51.0743710  32.3192027  22.2931609  52.4744610  32.7752287  22.6448200
  49.2515389  26.8474586  18.4397493  49.0540210  26.5389674  19.3240825
  49.8615094  27.5736225  18.5695423  57.2586723  37.3738534  21.5749434
  57.9890112  37.1123822  22.1357137  56.6493669  36.6367256  21.6151502
  55.3402020  35.5146396  22.1723885  54.6135184  35.3802361  21.5640376
  54.9249307  35.8223225  22.9780603  43.1632197  39.2336326  29.9371258
  44.0835206  39.4114925  30.1311304  43.1281780  38.2892372  29.7850957
  32.3814362  34.4274920  18.8624533  32.0617146  33.5740228  18.5698907
  31.8347790  34.6423498  19.6182500  36.1594269  37.1437361  22.5794039
  36.3780279  38.0754469  22.5982073  36.5720043  36.7845335  23.3648843
  43.0798487  27.6505446  14.5669727  42.2699215  27.3052531  14.9424974
  43.7682904  27.3412990  15.1557339  45.0089035  26.7283493  16.1894024
  45.5620074  27.1478946  16.8484047  45.2459122  25.8019241  16.2316980
  41.0322135  32.7170567  31.9696788  40.9318861  33.6664924  31.9008879
  40.8143677  32.3888805  31.0972858  32.2502622  38.0477831  20.8317654
  31.5566093  37.6331784  20.3187609  32.9975613  38.0898368  20.2351073
  48.3867842  28.8384018  15.6972688  47.8066511  29.4968822  15.3150741
  48.1203775  28.0161363  15.2860106  46.8371409  28.2389076  17.8994009
  47.3371187  28.3505610  17.0908328  47.4807017  27.9350129  18.5394817
  40.8953405  36.1467705  30.7861850  40.4120486  36.9468066  30.9925739
  40.9814344  36.1575650  29.8329294  34.1639364  37.9796085  18.7083669
  34.1410052  38.0783772  17.7565552  34.4740001  38.8261236  19.0300835
  36.8226742  40.0372240  22.8230283  37.7769996  40.0056182  22.7560215
  36.6239266  39.5762864  23.6380509  37.4126124  38.6073356  25.3901081
  38.2319013  39.1017435  25.4135918  37.6862932  37.6905324  25.3618649
  47.1692720  30.9984108  14.7529037  46.2818575  31.2833759  14.5349231
  47.5846709  30.8377872  13.9056314  50.5207257  31.0230629  18.4683376
  51.2967647  31.5127082  18.7407993  49.7955391  31.4488684  18.9255245
  52.9579815  31.7358249  19.5257316  53.5524306  31.4953985  18.8150625
  53.0306399  31.0165379  20.1530853  35.1776971  45.5791860  19.8400481
  35.0431439  44.8192260  19.2738479  34.7609033  46.3032759  19.3729270
  46.3135934  40.7628783   8.8477057  47.0171784  40.9678786   9.4634712
  45.5898583  41.3305545   9.1126140  47.1433744  36.5138644  14.9679327
  47.0868946  36.9707196  14.1286959  47.6962087  35.7529329  14.7902170
  50.9538550  32.3028376  15.7929446  50.6975484  31.9025012  16.6237654
  50.3291418  33.0172170  15.6679585  55.2650888  35.0424450  18.3000738
  54.7050446  35.1117639  19.0732300  54.6594391  34.8665434  17.5800234
  38.3346097  46.4761177  20.0518924  38.2178481  47.4206609  19.9497614
  37.5138543  46.1734738  20.4404723  48.2222631  41.2011312  10.8975517
  49.0568235  40.7692511  10.7152991  48.0606974  41.0293326  11.8252411
  47.8768523  37.7043426  12.2631856  47.8217327  37.5387697  11.3220300
  47.2514579  38.4119459  12.4194046  32.6661038  32.9411490  26.0893278
  33.3119902  32.4310444  26.5780503  32.4578190  33.6780172  26.6636703
  45.1914431  40.0092338  31.5885419  46.0605590  40.1832990  31.2272054
  44.7121182  40.8286754  31.4661148  39.3600611  47.1289439  23.2674852
  40.2627858  47.1613049  23.5841347  39.1337981  46.1989889  23.2821188
  41.1154213  45.8820425  19.9284931  40.1649844  45.8822287  19.8149303
  41.4186699  45.1353160  19.4120966  45.0016768  23.7994311  16.0963111
  44.2349164  23.2452798  16.2419793  45.4127473  23.8716180  16.9577263
  37.0058529  30.0879107  30.1868292  37.8689991  29.7315912  30.3971617
  36.4323940  29.7493002  30.8743697  56.8506906  51.7180963  20.9930693
  57.4885316  51.5987711  20.2894033  56.7327749  52.6661807  21.0518646
  53.6596613  51.6708392  20.9292218  53.3215124  51.5549456  20.0412753
  54.5286381  51.2699557  20.9093224  49.5183428  53.5243868  16.9189109
  48.9548293  53.4333805  16.1505397  49.4035823  52.7043772  17.3991602
  54.1416396  52.8243243  26.8878424  54.1305036  52.4296042  26.0158927
  54.3037035  52.0909316  27.4812195  47.0647860  55.0195060  19.7573329
  47.8569152  54.6785884  19.3419629  47.3044510  55.1290035  20.6775483
  55.0982987  57.1914836  12.2303574  54.4470967  57.7768916  11.8437588
  55.8927350  57.7221031  12.2898611  49.0238614  54.2803973  12.6290708
  49.7969490  53.7332960  12.4903584  49.3764013  55.1448222  12.8405170
  50.8623657  55.6080355  25.8357608  50.5713523  56.5125986  25.7204274
  51.4980641  55.6496883  26.5501677  51.7879864  52.9857204  22.4258967
  52.3843436  52.7613226  21.7115930  51.8454835  52.2441949  23.0284415
  51.3604892  50.4396639  10.2609158  51.6130413  49.9178160   9.4992621
  50.4229451  50.2762784  10.3635842  56.4048175  49.4432417  18.0683901
  57.1911264  49.0251840  17.7174318  56.6686879  50.3478509  18.2365550
  56.5758252  54.8805268  12.7672558  55.9404085  54.9539894  13.4793463
  56.2455659  55.4698866  12.0891637  61.8056602  49.3807651  18.9716880
  62.5381774  48.8106867  19.2054709  61.0495958  48.9929251  19.4123386
  51.0801181  52.3424745  12.4633533  50.9637439  51.6669648  13.1314617
  51.1903441  51.8557119  11.6465686  53.4232722  51.8034892  16.1680222
  53.0590929  51.2765513  16.8793144  54.2799838  51.4133361  15.9946708
  59.3282022  43.0929225  23.4311489  58.9965347  43.9624636  23.2072704
  58.7327636  42.7765509  24.1105519  53.0638209  46.8324792  11.1641571
  53.2312611  47.7005028  11.5312042  52.8735378  46.9952073  10.2402860
  55.8213542  55.2941771  22.8307401  55.5214265  56.1966809  22.7223209
  55.4764601  55.0273954  23.6828554  49.2726023  51.7455567  18.8644106
  48.3476520  51.6131782  19.0721797  49.5210437  52.5249787  19.3614048
  59.2210686  47.8124311  20.5104839  58.3127563  47.7439719  20.2163600
  59.1698281  48.2896256  21.3386664  53.0427430  49.2882449  12.1488238
  52.9227055  49.7339500  12.9873718  52.3480018  49.6367767  11.5901776
  46.6334834  51.3888841  19.6987895  46.7627216  51.6423320  20.6127306
  45.9532286  51.9816549  19.3792550  50.8034322  62.0586091  15.7978369
  50.7258351  63.0093916  15.8766850  50.1995965  61.7131963  16.4553295
  53.2951551  49.2313956  28.4539736  52.5184886  49.7907877  28.4442601
  53.9342115  49.7170739  28.9754606  61.0872332  46.0140749  22.2882713
  60.4446712  46.3073282  21.6422507  60.5827261  45.8993670  23.0935909
  58.7412496  49.7603922  12.9768572  59.6530352  49.9931309  12.8016269
  58.2322143  50.3440967  12.4143650  51.5497924  52.0399410  28.0157703
  52.2912608  52.5784454  27.7392526  50.8434909  52.6665698  28.1729255
  57.0253263  54.1828550  26.6129864  57.4336619  53.7410961  25.8684497
  56.3030525  53.6081178  26.8664057  53.3784333  49.1201157  23.9863421
  54.2245529  49.5440571  24.1298070  53.3182971  48.4634781  24.6801984
  57.3482078  54.7429741  20.3682153  56.7190940  54.9075455  19.6658221
  56.9607740  55.1571350  21.1393117  61.2271310  55.6784179  17.7226517
  60.5422348  56.0583080  17.1723550  61.3115159  56.2879505  18.4558465
  56.5283779  46.7805525  25.6444595  56.2844711  47.5347586  25.1078871
  56.8043709  47.1590873  26.4791842  58.4822242  53.3244138  24.3221861
  58.6939137  53.9675898  23.6456242  58.4351990  52.4906454  23.8543791
  56.0848471  45.9361958  21.2258433  55.2232950  46.2343212  21.5175170
  56.1110905  46.1532357  20.2939465  52.9010040  54.4804149  17.6332238
  53.3648385  54.7591852  16.8436861  52.6366838  53.5787593  17.4505329
  49.7934121  54.0275630  20.5712002  50.3635478  54.4562899  19.9329486
  50.3842233  53.7458215  21.2696187  51.8378926  50.6027301  14.4421803
  52.5402969  51.0548345  14.9095730  51.5059554  49.9611120  15.0701697
  50.2859288  49.1939058  28.8173013  49.6557948  49.8755339  29.0508410
  50.1795375  49.0822140  27.8726151  45.5804260  48.8610854  19.7438937
  44.7903314  49.1168382  19.2679048  46.0715507  49.6759192  19.8490978
  59.5968069  56.2016093  22.4944218  60.4185513  55.7996280  22.2126900
  59.5930472  56.0984327  23.4460334  47.5319005  49.2255433  16.7022414
  46.7350169  49.3374127  17.2205909  47.3044598  49.5642085  15.8363304
  53.3624673  55.7500136  24.6504928  53.4269105  56.2120544  25.4863100
  52.6535597  55.1197501  24.7787238  43.8641963  49.1141344  22.1753928
  44.1150001  49.9988354  22.4411504  44.4001511  48.9345946  21.4029020
  67.6874063  52.5454842  18.8429189  66.9337771  51.9762240  18.6873194
  67.8221604  52.5117506  19.7899824  53.0772691  57.4168244  14.5183909
  52.9418365  58.2619780  14.9468757  53.6182503  57.6187522  13.7549842
  46.5302088  54.9343682  15.0911834  47.0426609  55.7286932  15.2417398
  47.1824801  54.2369972  15.0245435  48.3396973  58.0509438  17.1734587
  48.5163601  58.9727403  16.9855571  49.1353806  57.7367857  17.6028967
  47.6249329  50.0974070  27.0496750  47.5102844  49.1959327  27.3503849
  46.7693847  50.3437767  26.6981567  49.4628288  59.5687612  23.1744929
  50.0135713  59.4404675  22.4021923  48.6239764  59.8682501  22.8239822
  56.8022405  58.3194610  26.6765652  56.7840880  59.1403491  26.1845921
  57.7242325  58.1948686  26.9015793  53.2595459  55.8338740  27.5189160
  53.7923796  55.0727028  27.2888468  52.7309540  55.5412392  28.2613315
  56.4265154  40.9398806  23.0482802  56.0829424  41.8300447  22.9721913
  56.7944117  40.7500463  22.1852387  44.4951005  53.2632336  15.8671404
  45.3326227  53.6729345  15.6505112  44.6729272  52.3231778  15.8371598
  56.3915437  50.9307417  11.5555237  55.8762060  51.7012022  11.7943625
  56.1192745  50.2572553  12.1788299  53.9762548  45.7757118  16.6140476
  53.1204144  45.3863968  16.4346114  54.3889500  45.8549078  15.7540261
  55.5061695  43.3103461  21.0132035  55.0026490  43.2733596  20.1999841
  55.7992301  44.2196204  21.0728692  51.7504580  43.3942191  20.0198217
  52.6157577  43.1984999  19.6604107  51.8182089  43.1652542  20.9467574
  61.3649711  53.6839772  13.4908411  60.5879154  53.3450931  13.0463573
  62.0441192  53.6892395  12.8163376  56.1801740  48.8034509  13.3815018
  55.8751876  49.1180658  14.2325162  57.1332182  48.8815929  13.4242351
  54.6248172  54.9624732  15.0307972  54.0969533  54.2277492  14.7181210
  54.1235675  55.7399409  14.7847941  59.6041018  53.1573753  20.1475019
  58.9464692  53.8473014  20.2355147  60.4081417  53.5470185  20.4909005
  49.3566900  45.6244399  17.3914584  49.9310651  45.4019580  16.6587777
  49.9437882  45.6933093  18.1443185  58.4146477  51.5118125  18.1978960
  58.9278358  52.1448117  18.7000670  59.0647701  50.9119321  17.8322320
  49.6836487  47.6548860  11.4110469  48.8473799  47.9923546  11.7319744
  49.5441256  47.5197839  10.4737606  51.6589567  42.4985647  16.1189653
  51.0053980  42.1834665  15.4946268  51.6170041  41.8761388  16.8449476
  52.7700772  52.7804943   8.0342945  51.8627834  52.5494196   8.2334094
  53.2671804  51.9842562   8.2216927  55.6768851  61.4902450  10.9539632
  55.0030550  61.7934147  11.5624589  56.0634673  62.2931530  10.6045089
  54.8927308  48.9867581  20.4437301  53.9749869  49.2082528  20.2858989
  55.3087451  49.0613892  19.5849008  55.6762355  50.3858997  15.5739981
  56.4234174  50.8980394  15.2647103  55.9453945  50.0643049  16.4344375
  53.9489006  52.8817537  12.5566936  53.0400225  52.5976570  12.6539405
  53.9784089  53.3016616  11.6970242  59.1808273  56.4924127  16.3258103
  58.7270600  55.6515037  16.3823294  58.5502240  57.1285525  16.6632883
  58.1241193  47.4216113  17.5558771  57.3863949  46.9093499  17.8869013
  58.3767966  46.9816495  16.7442047  57.6241212  58.3300624  17.2607921
  57.9164187  58.8905681  16.5420287  58.1339833  58.6229185  18.0161080
  58.2252820  40.1992365  18.1500540  58.5311697  39.3389728  17.8626455
  58.9505425  40.7909985  17.9499534  44.5177176  50.6023052  16.5382138
  44.3201576  50.0092412  15.8133204  43.9623840  50.2975262  17.2558077
  52.4973900  50.4946158  18.6576731  52.5522509  49.5419994  18.5819207
  51.6865102  50.6505597  19.1418029  53.6465093  54.4226281   9.8955014
  53.2084523  53.7062140   9.4360651  54.3875534  54.6502396   9.3340106
  50.4366259  49.1123218  16.4167110  49.6234125  49.4117388  16.8232302
  50.9325254  48.7178907  17.1341592  52.5874837  59.1080975  18.3501374
  52.5451016  59.3341821  17.4209906  53.5037536  58.8744349  18.4987176
  56.0340471  49.5765042  25.2482004  56.3889859  49.8036515  26.1076469
  56.6812602  49.9083419  24.6259259  61.7638208  52.6983478  15.9531333
  61.6256107  52.8885074  15.0252522  61.4074427  53.4602861  16.4099384
  49.9280334  46.6841573  22.0328345  50.5679714  46.5430332  21.3351308
  49.0957865  46.3976087  21.6566947  61.7907588  54.7660005  20.9642604
  62.2244094  54.6735294  21.8125658  62.5039168  54.7417506  20.3262620
  50.7040638  55.9844004  18.1463337  51.4981237  55.4894324  17.9445912
  49.9932331  55.4561867  17.7831043  55.5235483  58.3662099  22.4975705
  55.5772505  58.9353036  23.2653421  54.6550264  58.5363984  22.1329742
  47.0123402  50.1287085  14.2223090  46.0820990  50.0671541  14.4393052
  47.1080874  49.6063038  13.4259731  46.9308951  46.6541898  16.8101332
  47.1915768  47.5687232  16.7010492  47.7526123  46.1866341  16.9597944
  48.4033876  48.0679655  23.9800156  49.0756929  47.8597018  23.3312805
  47.5763663  47.8701741  23.5405388  62.6523137  54.8083706  23.4975490
  62.8459027  55.7129516  23.7434765  62.5523755  54.3491125  24.3314075
  54.3059448  44.6941596  25.9965817  53.6587363  45.3931546  25.9030293
  55.0760463  45.1277740  26.3642065  57.7138246  54.9590449  29.0716370
  57.5623752  54.7301000  28.1546454  57.7042925  55.9161050  29.0847715
  54.4823582  52.5322361  24.0562637  55.4115642  52.6833521  23.8831604
  54.0614612  52.6206382  23.2011283  53.2811914  56.5573026  21.8261174
  53.1423000  56.1891810  22.6987112  52.4926510  57.0720665  21.6545132
  53.8760066  61.6582122  13.1686711  54.0511822  61.1870165  13.9832333
  53.1892854  62.2847888  13.3967972  54.8317129  55.9354628  19.2150012
  54.4966962  55.8955398  20.1107662  54.3321075  55.2699344  18.7420422
  48.8061373  51.3422258  24.7402593  48.6681171  50.6102497  25.3414132
  49.7166297  51.2531159  24.4586781  57.7676321  53.2810663   9.4887072
  57.1505492  52.5557491   9.3920124  57.2992809  54.0420023   9.1454146
  51.4343674  51.0542218  24.2286273  52.1443292  50.4135410  24.1872891
  51.3912982  51.3055113  25.1512454  59.4230453  57.9909571  27.1492852
  59.3642999  57.3068791  26.4823435  59.8249971  58.7328561  26.6973478
  50.1472608  48.0407436  26.0481912  49.6109965  47.5898174  26.7003509
  49.5589316  48.1753344  25.3052377  49.5574867  47.4996087   8.6108376
  48.6804333  47.3784888   8.2470623  50.0332620  46.7082165   8.3587265
  59.4247860  55.9549155  25.3806832  58.5374639  55.6175077  25.5033231
  59.9946411  55.2232186  25.6175597  41.0777007  52.2873247  18.7049883
  41.7648047  51.9734977  18.1170898  40.9225136  53.1914611  18.4317135
  45.8811729  47.1763443  23.1334907  45.7969918  46.5689113  22.3985317
  45.0594436  47.6672462  23.1344403  52.9549013  60.6150607  22.3468075
  52.8819185  61.4205579  22.8587380  52.5126406  60.8142573  21.5216096
  52.7438793  59.8522377  15.8570897  51.9606315  60.3944058  15.9509121
  53.4431538  60.3696357  16.2565138  56.0535443  45.6617007  18.5005102
  56.5504143  44.9086969  18.1806172  55.2822425  45.6981324  17.9348311
  63.9065200  51.3657372  20.1423393  63.8955077  52.2482088  19.7717326
  63.0382580  51.0128923  19.9477930  55.4147697  60.5137441  24.5026234
  56.1275669  61.1484906  24.4302135  54.9237725  60.6101307  23.6866235
  57.1365224  54.4188694  16.0743525  56.2021502  54.5390157  15.9048230
  57.3141892  53.5161161  15.8103535  52.6370412  47.8034390  18.2276786
  52.2668199  47.2505430  18.9157692  53.1329504  47.1992523  17.6751787
  60.5237775  50.2606013  16.6093559  60.9898227  51.0934005  16.5353862
  60.9745276  49.7950995  17.3138818  50.4659610  58.2631885  25.3231804
  51.1669070  58.8968368  25.4761199  49.9954725  58.6046616  24.5627444
  58.5914006  56.6049835  13.6079711  58.8673850  56.4906429  14.5173586
  57.7218505  56.2067320  13.5691885  58.4954438  42.6286600  20.6484461
  57.5817518  42.8590827  20.8166668  58.9247539  42.7125044  21.4998493
  58.2660896  50.8176492  23.1484355  57.6132347  51.0652400  22.4936808
  58.6441276  50.0040631  22.8146832  55.2268070  60.8536186  17.2512525
  55.4090465  60.0357841  17.7140277  56.0501056  61.0703878  16.8137415
  55.5610236  59.7804371  14.5127574  56.0898002  59.2696825  13.8997736
  55.8238455  59.4646901  15.3773107  46.0627328  57.7968240  22.2562907
  46.6480765  57.0511928  22.3890811  45.8652167  58.1072197  23.1399571
  48.9165984  60.8319487  17.2725349  48.2476359  61.3165615  16.7889390
  48.7778853  61.0788708  18.1868728  40.6544983  50.3673840  20.9767350
  40.6929083  49.8337431  21.7704468  40.1485276  49.8409046  20.3578327
  53.0571252  62.8663231  23.8708008  53.6089560  63.0294852  24.6357093
  53.3977446  63.4567669  23.1988033  48.0335745  45.2138381  24.4729893
  48.0977072  46.0753212  24.0607290  47.9702866  44.6012382  23.7402251
  47.5088018  47.2861513  28.1202927  48.1360057  46.9038591  28.7340451
  46.6515937  47.0675715  28.4858619  57.9082127  57.6924488  29.7256662
  58.4522030  58.3054447  29.2311617  57.3268971  58.2504067  30.2423675
  44.2853561  49.0937942  14.0521282  44.5807002  48.1848621  13.9988335
  43.3841596  49.0725682  13.7302284  56.1939639  60.8145206  20.8571690
  56.0690779  60.0134946  20.3482636  56.8518731  61.3091400  20.3685660
  47.8147808  47.1693939  20.0348830  47.0934393  47.7829907  19.8956304
  48.6041063  47.7051704  19.9565476  58.2574548  58.6154226  22.4851240
  57.3104883  58.4959578  22.4129567  58.6057321  57.7276724  22.5677502
  50.6174121  44.5048365  26.3089482  51.1408523  44.7510662  27.0715791
  50.3986454  45.3368400  25.8892619  46.0141402  46.7752040  14.1760607
  45.6854108  45.8949419  13.9935713  46.3680773  46.7199709  15.0636996
  55.2620981  58.4106943  18.6855592  55.1145944  57.4823650  18.8663162
  56.0874475  58.4327033  18.2012668  49.1283225  47.0625010  14.5436084
  49.4679298  47.5910931  13.8214693  49.5755346  47.4005416  15.3194651
  58.8655103  59.2335501  19.7720465  59.7901650  59.0278363  19.6344916
  58.6970406  58.9851903  20.6809807  51.8226666  45.4462060  23.9939153
  51.4823487  44.6469874  24.3959832  51.1165673  45.7463771  23.4215986
  52.4743138  42.5311373  22.4466476  53.2969207  42.0571851  22.3245366
  52.7181202  43.3101857  22.9465162  51.1151373  45.5599631  12.7429377
  51.8359735  45.9380884  12.2393094  50.4916677  46.2788508  12.8464355
  55.2582495  46.2644780  13.6787710  55.4746110  47.1469418  13.3776538
  54.7776563  45.8730994  12.9493352  49.9981717  49.2230494  20.2558454
  49.8526298  49.5370797  21.1482736  49.5206920  49.8415394  19.7029353
  51.8578100  46.2133042  20.3039344  51.8439668  45.3174135  19.9671642
  52.5750528  46.2203705  20.9377630  53.7104230  46.6470382  22.3492471
  53.4522008  47.5687452  22.3476802  53.1789271  46.2500816  23.0392935
  58.6550419  59.7521169  15.1282557  58.8287297  59.1867591  14.3756409
  59.1479310  60.5522064  14.9462047  44.4727379  51.7635838  23.1946115
  43.9280847  52.5395646  23.3266390  45.3506729  52.1106642  23.0365237
  51.2614996  45.0947422  15.5726914  51.3830907  44.1664068  15.7717801
  50.9717038  45.1086108  14.6605229  54.1306186  42.7802332  18.7093634
  54.1527883  42.8441665  17.7545613  54.5474245  41.9406841  18.9034140
  64.5089810  52.5157592  16.7472856  64.9520956  51.7664917  16.3491980
  63.6316321  52.5067728  16.3646588  59.6425592  59.0687933  12.2279455
  60.3376496  59.6894626  12.4466769  59.9848742  58.2183284  12.5031833
  45.2593401  50.8905734  26.0876272  44.5175137  51.0388370  26.6740903
  44.9386145  51.1514000  25.2243022  61.5417015  56.5187639  13.7566786
  62.0668339  56.8574912  13.0316106  61.4539367  55.5834654  13.5729920
  53.2037064  60.4321712  25.8856662  53.5124190  60.1870859  26.7579362
  54.0012546  60.6368351  25.3975532  53.2257676  62.5859622  18.1162039
  52.7862666  62.0936001  18.8094895  53.9765793  62.0432590  17.8754114
  45.7050015  58.7771163  18.1186667  46.5308034  58.4774935  17.7385310
  45.3544067  58.0078785  18.5676456  50.6731548  58.1297631  20.1884340
  50.0511557  57.4668336  19.8886568  51.3436415  58.1558763  19.5057988
  43.9058620  56.6957489  19.0775600  43.0690528  56.2679664  18.8959602
  43.8782265  56.8889933  20.0146392  50.7456075  46.6079419  29.7816846
  50.7944231  47.4841542  29.3994616  51.2878589  46.0656812  29.2088490
  61.2310921  57.1520542  29.0617984  60.4406465  57.1344681  28.5222483
  60.9944275  57.6908836  29.8167020  61.3508796  54.0013009  26.3750712
  61.4006801  53.8363016  27.3166235  61.2422719  53.1340268  25.9848593
  50.2345055  56.6801554  13.6642801  50.3833175  57.3637019  13.0109474
  51.0411498  56.6606645  14.1792257  58.6412558  49.9843937  27.6910019
  59.5422421  49.8450402  27.3994017  58.7160533  50.1498392  28.6308196
  52.9755364  47.3610792  26.5363205  52.1058673  47.6544358  26.2645794
  53.2114844  47.9451237  27.2570469  62.8526993  56.4209950  26.6192734
  62.5611801  56.7839931  27.4556195  62.2399124  55.7076959  26.4406066
  64.0522675  53.9862830  19.1395304  64.8869566  54.4252634  19.3032864
  64.1881804  53.5101483  18.3203550  61.1014181  51.5442565  25.0872792
  61.5768303  51.7370211  24.2791643  60.1779746  51.6001751  24.8416175
  47.9897688  52.7066732  14.6703870  47.7443730  51.8029062  14.8684080
  48.1593602  52.7083883  13.7283348  55.6794397  43.5790409  24.0528626
  56.1976341  44.3151435  23.7275114  55.3249530  43.8854402  24.8875385
  47.2593335  48.4395090  12.1690031  46.5662580  48.5139445  11.5130067
  47.0145087  47.6755433  12.6911548  55.9306992  39.9990691  19.5729522
  56.2108745  39.3313880  20.1989949  56.7157599  40.1919787  19.0604186
  53.7340460  59.1749685  11.1354548  53.1614427  59.7939872  10.6825020
  54.3073254  59.7249047  11.6694470  59.8015850  48.4208325  23.3201097
  60.7533273  48.5206423  23.3413321  59.6319300  47.6286594  23.8299182
  57.8230229  45.5063908  23.5060498  57.2280162  45.7868921  22.8106987
  57.5379926  45.9957809  24.2777239  56.9537720  59.4586835  12.2663131
  57.8868393  59.3932397  12.4696006  56.8660933  60.2943102  11.8077663
  59.5825737  58.7752705   9.2267078  59.5039368  58.4412569  10.1202836
  60.4035403  59.2674473   9.2258551  62.2803928  51.6414445  22.4343397
  62.2480248  50.7030445  22.6203081  62.8904551  51.7198481  21.7009222
  54.1187259  50.5110498   8.4770601  55.0646363  50.3816706   8.5459019
  53.7401504  49.7725160   8.9540029  62.4298416  48.4325488  22.4801680
  61.9137465  47.6483945  22.2931609  63.3138365  48.1044205  22.6448200
  60.0909143  42.1766504  18.4397493  59.8933964  41.8681592  19.3240825
  60.7008849  42.9028143  18.5695423  68.0980478  52.7030452  21.5749434
  68.8283866  52.4415740  22.1357137  67.4887423  51.9659174  21.6151502
  66.1795775  50.8438314  22.1723885  65.4528938  50.7094279  21.5640376
  65.7643062  51.1515143  22.9780603  52.3030176  48.4360474   8.4125486
  51.3961631  48.1393587   8.4888200  52.5806157  48.1390292   7.5459772
  43.2208116  49.7566837  18.8624533  42.9010901  48.9032146  18.5698907
  42.6741544  49.9715416  19.6182500  46.9988024  52.4729278  22.5794039
  47.2174034  53.4046386  22.5982073  47.4113798  52.1137253  23.3648843
  53.9192242  42.9797364  14.5669727  53.1092970  42.6344449  14.9424974
  54.6076658  42.6704908  15.1557339  55.8482790  42.0575411  16.1894024
  56.4013828  42.4770864  16.8484047  56.0852876  41.1311159  16.2316980
  51.0728960  45.2947409   8.5537465  51.9348124  45.6202308   8.8133283
  51.2579305  44.5078905   8.0410531  43.0896376  53.3769749  20.8317654
  42.3959848  52.9623702  20.3187609  43.8369367  53.4190285  20.2351073
  59.2261597  44.1675936  15.6972688  58.6460266  44.8260740  15.3150741
  58.9597530  43.3453280  15.2860106  57.6765163  43.5680993  17.8994009
  58.1764942  43.6797528  17.0908328  58.3200771  43.2642046  18.5394817
  45.0033119  53.3088003  18.7083669  44.9803807  53.4075690  17.7565552
  45.3133755  54.1553154  19.0300835  47.6620497  55.3664158  22.8230283
  48.6163750  55.3348100  22.7560215  47.4633020  54.9054782  23.6380509
  48.2519879  53.9365274  25.3901081  49.0712768  54.4309353  25.4135918
  48.5256686  53.0197242  25.3618649  58.0086475  46.3276026  14.7529037
  57.1212330  46.6125677  14.5349231  58.4240464  46.1669790  13.9056314
  61.3601011  46.3522547  18.4683376  62.1361401  46.8419000  18.7407993
  60.6349145  46.7780601  18.9255245  63.7973570  47.0650166  19.5257316
  64.3918060  46.8245902  18.8150625  63.8700153  46.3457297  20.1530853
  46.0170725  60.9083777  19.8400481  45.8825193  60.1484178  19.2738479
  45.6002788  61.6324677  19.3729270  57.1529688  56.0920701   8.8477057
  57.8565539  56.2970703   9.4634712  56.4292337  56.6597463   9.1126140
  57.9827499  51.8430562  14.9679327  57.9262700  52.2999114  14.1286959
  58.5355841  51.0821247  14.7902170  61.7932305  47.6320294  15.7929446
  61.5369239  47.2316930  16.6237654  61.1685173  48.3464088  15.6679585
  66.1044642  50.3716367  18.3000738  65.5444200  50.4409557  19.0732300
  65.4988146  50.1957352  17.5800234  49.1739851  61.8053094  20.0518924
  49.0572235  62.7498527  19.9497614  48.3532298  61.5026656  20.4404723
  59.0616386  56.5303230  10.8975517  59.8961990  56.0984428  10.7152991
  58.9000729  56.3585244  11.8252411  58.7162278  53.0335343  12.2631856
  58.6611082  52.8679615  11.3220300  58.0908333  53.7411376  12.4194046
  43.5054793  48.2703408  26.0893278  44.1513657  47.7602362  26.5780503
  43.2971944  49.0072089  26.6636703  52.0258403  42.5343452  11.8417174
  52.0137073  43.4785292  11.9985445  52.9181825  42.3513598  11.5476636
  51.9547967  61.2112343  19.9284931  51.0043598  61.2114204  19.8149303
  52.2580454  60.4645077  19.4120966  55.8410523  39.1286229  16.0963111
  55.0742919  38.5744716  16.2419793  56.2521228  39.2008098  16.9577263
  47.8452284  45.4171025  30.1868292  48.7083746  45.0607830  30.3971617
  47.2717695  45.0784920  30.8743697  67.6900661  67.0472881  20.9930693
  68.3279071  66.9279628  20.2894033  67.5721504  67.9953725  21.0518646
  64.4990367  67.0000309  20.9292218  64.1608879  66.8841374  20.0412753
  65.3680135  66.5991474  20.9093224  60.3577183  68.8535786  16.9189109
  59.7942048  68.7625723  16.1505397  60.2429578  68.0335690  17.3991602
  64.9810150  68.1535161  26.8878424  64.9698791  67.7587959  26.0158927
  65.1430790  67.4201234  27.4812195  57.9041615  70.3486977  19.7573329
  58.6962907  70.0077802  19.3419629  58.1438265  70.4581952  20.6775483
  65.9376742  72.5206753  12.2303574  65.2864721  73.1060834  11.8437588
  66.7321104  73.0512948  12.2898611  59.8632369  69.6095890  12.6290708
  60.6363245  69.0624878  12.4903584  60.2157768  70.4740140  12.8405170
  62.6273618  68.3149121  22.4258967  63.2237190  68.0905144  21.7115930
  62.6848590  67.5733867  23.0284415  62.1998647  65.7688557  10.2609158
  62.4524167  65.2470078   9.4992621  61.2623206  65.6054702  10.3635842
  67.2441929  64.7724335  18.0683901  68.0305019  64.3543758  17.7174318
  67.5080634  65.6770427  18.2365550  67.4152007  70.2097185  12.7672558
  66.7797840  70.2831812  13.4793463  67.0849413  70.7990784  12.0891637
  72.6450356  64.7099568  18.9716880  73.3775528  64.1398785  19.2054709
  71.8889712  64.3221169  19.4123386  61.9194935  67.6716663  12.4633533
  61.8031193  66.9961566  13.1314617  62.0297195  67.1849037  11.6465686
  64.2626476  67.1326810  16.1680222  63.8984683  66.6057431  16.8793144
  65.1193592  66.7425279  15.9946708  70.1675777  58.4221142  23.4311489
  69.8359102  59.2916553  23.2072704  69.5721390  58.1057426  24.1105519
  63.9031963  62.1616709  11.1641571  64.0706366  63.0296946  11.5312042
  63.7129132  62.3243991  10.2402860  66.6607296  70.6233688  22.8307401
  66.3608019  71.5258727  22.7223209  66.3158356  70.3565871  23.6828554
  60.1119778  67.0747485  18.8644106  59.1870274  66.9423699  19.0721797
  60.3604191  67.8541704  19.3614048  70.0604440  63.1416228  20.5104839
  69.1521318  63.0731637  20.2163600  70.0092036  63.6188173  21.3386664
  63.8821184  64.6174367  12.1488238  63.7620809  65.0631418  12.9873718
  63.1873772  64.9659685  11.5901776  57.4728589  66.7180759  19.6987895
  57.6020970  66.9715238  20.6127306  56.7926040  67.3108467  19.3792550
  61.6428076  77.3878009  15.7978369  61.5652106  78.3385834  15.8766850
  61.0389720  77.0423881  16.4553295  64.1345306  64.5605874  28.4539736
  63.3578640  65.1199794  28.4442601  64.7735869  65.0462657  28.9754606
  71.9266087  61.3432667  22.2882713  71.2840467  61.6365200  21.6422507
  71.4221015  61.2285587  23.0935909  69.5806250  65.0895840  12.9768572
  70.4924106  65.3223227  12.8016269  69.0715897  65.6732884  12.4143650
  62.3891678  67.3691327  28.0157703  63.1306363  67.9076371  27.7392526
  61.6828664  67.9957616  28.1729255  67.8647018  69.5120468  26.6129864
  68.2730374  69.0702878  25.8684497  67.1424279  68.9373095  26.8664057
  64.2178088  64.4493075  23.9863421  65.0639283  64.8732488  24.1298070
  64.1576726  63.7926699  24.6801984  68.1875833  70.0721658  20.3682153
  67.5584695  70.2367373  19.6658221  67.8001495  70.4863268  21.1393117
  72.0665064  71.0076096  17.7226517  71.3816103  71.3874998  17.1723550
  72.1508914  71.6171423  18.4558465  67.3677533  62.1097443  25.6444595
  67.1238465  62.8639504  25.1078871  67.6437464  62.4882791  26.4791842
  69.3215996  68.6536055  24.3221861  69.5332891  69.2967815  23.6456242
  69.2745744  67.8198372  23.8543791  66.9242225  61.2653876  21.2258433
  66.0626704  61.5635130  21.5175170  66.9504660  61.4824275  20.2939465
  63.7403794  69.8096067  17.6332238  64.2042140  70.0883770  16.8436861
  63.4760593  68.9079511  17.4505329  60.6327875  69.3567548  20.5712002
  61.2029233  69.7854816  19.9329486  61.2235987  69.0750133  21.2696187
  62.6772680  65.9319219  14.4421803  63.3796724  66.3840263  14.9095730
  62.3453309  65.2903038  15.0701697  61.1253042  64.5230976  28.8173013
  60.4951703  65.2047256  29.0508410  61.0189130  64.4114057  27.8726151
  56.4198014  64.1902772  19.7438937  55.6297068  64.4460300  19.2679048
  56.9109262  65.0051109  19.8490978  70.4361824  71.5308011  22.4944218
  71.2579268  71.1288198  22.2126900  70.4324227  71.4276245  23.4460334
  58.3712760  64.5547351  16.7022414  57.5743923  64.6666045  17.2205909
  58.1438352  64.8934003  15.8363304  54.7035717  64.4433262  22.1753928
  54.9543756  65.3280272  22.4411504  55.2395266  64.2637864  21.4029020
  78.5267817  67.8746759  18.8429189  77.7731525  67.3054157  18.6873194
  78.6615358  67.8409424  19.7899824  63.9166445  72.7460162  14.5183909
  63.7812120  73.5911697  14.9468757  64.4576258  72.9479439  13.7549842
  60.4033785  58.8251741  31.1798264  60.0100730  58.2717940  31.8545908
  61.2199925  59.1362320  31.5704781  57.3695842  70.2635600  15.0911834
  57.8820363  71.0578850  15.2417398  58.0218555  69.5661890  15.0245435
  63.3201746  60.2409621  28.7718520  64.0611459  60.8416774  28.6922983
  63.5519669  59.4987258  28.2136563  60.3022043  74.8979530  23.1744929
  60.8529468  74.7696593  22.4021923  59.4633519  75.1974419  22.8239822
  67.2658909  56.2690723  23.0482802  66.9223178  57.1592365  22.9721913
  67.6337871  56.0792381  22.1852387  55.3344759  68.5924254  15.8671404
  56.1719981  69.0021262  15.6505112  55.5123027  67.6523696  15.8371598
  67.2309191  66.2599335  11.5555237  66.7155815  67.0303939  11.7943625
  66.9586500  65.5864471  12.1788299  64.8156302  61.1049035  16.6140476
  63.9597899  60.7155886  16.4346114  65.2283254  61.1840996  15.7540261
  66.3455449  58.6395379  21.0132035  65.8420245  58.6025514  20.1999841
  66.6386056  59.5488121  21.0728692  62.5898335  58.7234108  20.0198217
  63.4551332  58.5276917  19.6604107  62.6575844  58.4944460  20.9467574
  72.2043466  69.0131689  13.4908411  71.4272908  68.6742849  13.0463573
  72.8834946  69.0184312  12.8163376  67.0195495  64.1326427  13.3815018
  66.7145630  64.4472576  14.2325162  67.9725937  64.2107847  13.4242351
  65.4641926  70.2916650  15.0307972  64.9363288  69.5569410  14.7181210
  64.9629429  71.0691326  14.7847941  70.4434772  68.4865670  20.1475019
  69.7858447  69.1764932  20.2355147  71.2475172  68.8762102  20.4909005
  60.1960654  60.9536316  17.3914584  60.7704406  60.7311498  16.6587777
  60.7831636  61.0225011  18.1443185  69.2540231  66.8410043  18.1978960
  69.7672113  67.4740035  18.7000670  69.9041455  66.2411239  17.8322320
  60.5230241  62.9840777  11.4110469  59.6867553  63.3215464  11.7319744
  60.3835011  62.8489757  10.4737606  62.4983322  57.8277565  16.1189653
  61.8447734  57.5126582  15.4946268  62.4563796  57.2053306  16.8449476
  63.6094527  68.1096860   8.0342945  62.7021588  67.8786114   8.2334094
  64.1065559  67.3134479   8.2216927  66.5162605  76.8194367  10.9539632
  65.8424304  77.1226064  11.5624589  66.9028427  77.6223448  10.6045089
  65.7321062  64.3159499  20.4437301  64.8143623  64.5374446  20.2858989
  66.1481206  64.3905809  19.5849008  66.5156110  65.7150914  15.5739981
  67.2627929  66.2272312  15.2647103  66.7847699  65.3934967  16.4344375
  64.7882760  68.2109455  12.5566936  63.8793979  67.9268488  12.6539405
  64.8177844  68.6308534  11.6970242  70.0202027  71.8216045  16.3258103
  69.5664355  70.9806954  16.3823294  69.3895994  72.4577443  16.6632883
  68.9634947  62.7508031  17.5558771  68.2257704  62.2385417  17.8869013
  69.2161721  62.3108412  16.7442047  68.4634967  73.6592541  17.2607921
  68.7557941  74.2197598  16.5420287  68.9733587  73.9521102  18.0161080
  69.0646574  55.5284283  18.1500540  69.3705451  54.6681646  17.8626455
  69.7899179  56.1201903  17.9499534  55.3570930  65.9314969  16.5382138
  55.1595330  65.3384330  15.8133204  54.8017594  65.6267179  17.2558077
  63.3367654  65.8238076  18.6576731  63.3916264  64.8711912  18.5819207
  62.5258856  65.9797515  19.1418029  64.4858848  69.7518199   9.8955014
  64.0478278  69.0354058   9.4360651  65.2269289  69.9794314   9.3340106
  61.2760014  64.4415135  16.4167110  60.4627880  64.7409306  16.8232302
  61.7719008  64.0470824  17.1341592  63.4268592  74.4372892  18.3501374
  63.3844771  74.6633739  17.4209906  64.3431291  74.2036267  18.4987176
  66.8734226  64.9056960  25.2482004  67.2283613  65.1328433  26.1076469
  67.5206357  65.2375337  24.6259259  72.6031963  68.0275396  15.9531333
  72.4649861  68.2176992  15.0252522  72.2468181  68.7894779  16.4099384
  60.7674089  62.0133491  22.0328345  61.4073468  61.8722250  21.3351308
  59.9351619  61.7268004  21.6566947  72.6301342  70.0951923  20.9642604
  73.0637849  70.0027212  21.8125658  73.3432923  70.0709423  20.3262620
  61.5434393  71.3135921  18.1463337  62.3374991  70.8186242  17.9445912
  60.8326085  70.7853785  17.7831043  66.3629237  73.6954017  22.4975705
  66.4166259  74.2644953  23.2653421  65.4944018  73.8655902  22.1329742
  57.8517156  65.4579003  14.2223090  56.9214744  65.3963459  14.4393052
  57.9474628  64.9354956  13.4259731  57.7702705  61.9833816  16.8101332
  58.0309522  62.8979149  16.7010492  58.5919877  61.5158259  16.9597944
  59.2427630  63.3971573  23.9800156  59.9150684  63.1888935  23.3312805
  58.4157417  63.1993659  23.5405388  73.4916892  70.1375623  23.4975490
  73.6852782  71.0421434  23.7434765  73.3917510  69.6783043  24.3314075
  65.1453202  60.0233514  25.9965817  64.4981118  60.7223464  25.9030293
  65.9154218  60.4569658  26.3642065  65.3217337  67.8614279  24.0562637
  66.2509397  68.0125439  23.8831604  64.9008367  67.9498300  23.2011283
  64.1205669  71.8864943  21.8261174  63.9816754  71.5183728  22.6987112
  63.3320265  72.4012583  21.6545132  64.7153821  76.9874040  13.1686711
  64.8905576  76.5162083  13.9832333  64.0286609  77.6139806  13.3967972
  65.6710884  71.2646546  19.2150012  65.3360716  71.2247316  20.1107662
  65.1714829  70.5991262  18.7420422  59.6455128  66.6714176  24.7402593
  59.5074926  65.9394415  25.3414132  60.5560051  66.5823076  24.4586781
  68.6070075  68.6102580   9.4887072  67.9899246  67.8849409   9.3920124
  68.1386564  69.3711941   9.1454146  62.2737428  66.3834135  24.2286273
  62.9837047  65.7427328  24.1872891  62.2306737  66.6347030  25.1512454
  60.9866362  63.3699353  26.0481912  60.4503719  62.9190092  26.7003509
  60.3983071  63.5045262  25.3052377  60.3968621  62.8288005   8.6108376
  59.5198088  62.7076806   8.2470623  60.8726374  62.0374083   8.3587265
  70.2641614  71.2841073  25.3806832  69.3768393  70.9466995  25.5033231
  70.8340165  70.5524104  25.6175597  51.9170761  67.6165164  18.7049883
  52.6041801  67.3026894  18.1170898  51.7618890  68.5206529  18.4317135
  56.7205484  62.5055361  23.1334907  56.6363672  61.8981031  22.3985317
  55.8988190  62.9964379  23.1344403  63.7942768  75.9442525  22.3468075
  63.7212939  76.7497497  22.8587380  63.3520161  76.1434491  21.5216096
  63.5832547  75.1814295  15.8570897  62.8000069  75.7235975  15.9509121
  64.2825293  75.6988275  16.2565138  66.8929197  60.9908925  18.5005102
  67.3897897  60.2378887  18.1806172  66.1216179  61.0273241  17.9348311
  74.7458955  66.6949290  20.1423393  74.7348831  67.5774006  19.7717326
  73.8776334  66.3420841  19.9477930  67.9758978  69.7480612  16.0743525
  67.0415257  69.8682074  15.9048230  68.1535647  68.8453079  15.8103535
  63.4764166  63.1326308  18.2276786  63.1061954  62.5797348  18.9157692
  63.9723259  62.5284441  17.6751787  71.3631530  65.5897931  16.6093559
  71.8291982  66.4225923  16.5353862  71.8139030  65.1242913  17.3138818
  69.4307761  71.9341752  13.6079711  69.7067605  71.8198347  14.5173586
  68.5612259  71.5359237  13.5691885  69.3348192  57.9578518  20.6484461
  68.4211272  58.1882745  20.8166668  69.7641294  58.0416962  21.4998493
  69.1054651  66.1468410  23.1484355  68.4526101  66.3944317  22.4936808
  69.4835031  65.3332548  22.8146832  66.0661825  76.1828103  17.2512525
  66.2484219  75.3649759  17.7140277  66.8894811  76.3995795  16.8137415
  66.4003990  75.1096288  14.5127574  66.9291757  74.5988743  13.8997736
  66.6632210  74.7938819  15.3773107  65.1542224  66.8888221  29.6350392
  64.4782861  66.7882350  30.3052767  65.9769858  66.7327435  30.0986389
  59.7559738  76.1611405  17.2725349  59.0870113  76.6457533  16.7889390
  59.6172608  76.4080625  18.1868728  51.4938738  65.6965758  20.9767350
  51.5322837  65.1629349  21.7704468  50.9879030  65.1700963  20.3578327
  58.8729500  60.5430298  24.4729893  58.9370826  61.4045129  24.0607290
  58.8096620  59.9304300  23.7402251  58.3481772  62.6153431  28.1202927
  58.9753811  62.2330508  28.7340451  57.4909691  62.3967633  28.4858619
  55.1247315  64.4229860  14.0521282  55.4200756  63.5140538  13.9988335
  54.2235351  64.4017599  13.7302284  67.0333394  76.1437124  20.8571690
  66.9084533  75.3426864  20.3482636  67.6912485  76.6383317  20.3685660
  58.6541562  62.4985857  20.0348830  57.9328148  63.1121824  19.8956304
  59.4434818  63.0343621  19.9565476  69.0968302  73.9446144  22.4851240
  68.1498638  73.8251495  22.4129567  69.4451075  73.0568642  22.5677502
  61.4567876  59.8340283  26.3089482  61.9802278  60.0802580  27.0715791
  61.2380209  60.6660318  25.8892619  56.8535157  62.1043958  14.1760607
  56.5247863  61.2241337  13.9935713  57.2074527  62.0491626  15.0636996
  66.1014736  73.7398860  18.6855592  65.9539698  72.8115568  18.8663162
  66.9268229  73.7618951  18.2012668  59.9676980  62.3916927  14.5436084
  60.3073052  62.9202849  13.8214693  60.4149100  62.7297334  15.3194651
  69.7048857  74.5627419  19.7720465  70.6295405  74.3570280  19.6344916
  69.5364161  74.3143820  20.6809807  62.6620421  60.7753978  23.9939153
  62.3217241  59.9761791  24.3959832  61.9559427  61.0755689  23.4215986
  63.3136893  57.8603291  22.4466476  64.1362962  57.3863769  22.3245366
  63.5574956  58.6393774  22.9465162  61.9545127  60.8891549  12.7429377
  62.6753490  61.2672802  12.2393094  61.3310431  61.6080426  12.8464355
  66.0976250  61.5936698  13.6787710  66.3139864  62.4761336  13.3776538
  65.6170317  61.2022911  12.9493352  60.8375471  64.5522411  20.2558454
  60.6920052  64.8662714  21.1482736  60.3600675  65.1707312  19.7029353
  62.6971854  61.5424959  20.3039344  62.6833423  60.6466053  19.9671642
  63.4144282  61.5495623  20.9377630  64.5497985  61.9762299  22.3492471
  64.2915763  62.8979370  22.3476802  64.0183025  61.5792734  23.0392935
  69.4944174  75.0813087  15.1282557  69.6681051  74.5159509  14.3756409
  69.9873065  75.8813981  14.9462047  62.1008750  60.4239339  15.5726914
  62.2224661  59.4955986  15.7717801  61.8110793  60.4378025  14.6605229
  64.9699941  58.1094250  18.7093634  64.9921637  58.1733583  17.7545613
  65.3868000  57.2698759  18.9034140  75.3483565  67.8449509  16.7472856
  75.7914711  67.0956835  16.3491980  74.4710075  67.8359646  16.3646588
  70.4819346  74.3979851  12.2279455  71.1770251  75.0186544  12.4466769
  70.8242496  73.5475202  12.5031833  72.3810769  71.8479556  13.7566786
  72.9062093  72.1866829  13.0316106  72.2933122  70.9126572  13.5729920
  64.0651430  77.9151540  18.1162039  63.6256420  77.4227918  18.8094895
  64.8159547  77.3724507  17.8754114  61.5125302  73.4589549  20.1884340
  60.8905311  72.7960254  19.8886568  62.1830169  73.4850681  19.5057988
  61.5849830  61.9371337  29.7816846  61.6337985  62.8133460  29.3994616
  62.1272344  61.3948730  29.2088490  72.1902550  69.3304926  26.3750712
  72.2400555  69.1654934  27.3166235  72.0816474  68.4632185  25.9848593
  61.0738809  72.0093472  13.6642801  61.2226929  72.6928937  13.0109474
  61.8805253  71.9898562  14.1792257  69.4806313  65.3135854  27.6910019
  70.3816176  65.1742319  27.3994017  69.5554287  65.4790309  28.6308196
  63.8149118  62.6902709  26.5363205  62.9452428  62.9836275  26.2645794
  64.0508598  63.2743154  27.2570469  73.6920747  71.7501868  26.6192734
  73.4005556  72.1131849  27.4556195  73.0792879  71.0368876  26.4406066
  74.8916430  69.3154748  19.1395304  75.7263321  69.7544552  19.3032864
  75.0275558  68.8393401  18.3203550  71.9407935  66.8734483  25.0872792
  72.4162057  67.0662129  24.2791643  71.0173501  66.9293668  24.8416175
  58.8291442  68.0358650  14.6703870  58.5837484  67.1320980  14.8684080
  58.9987357  68.0375800  13.7283348  66.5188152  58.9082326  24.0528626
  67.0370096  59.6443353  23.7275114  66.1643285  59.2146319  24.8875385
  58.0987090  63.7687007  12.1690031  57.4056335  63.8431362  11.5130067
  57.8538842  63.0047351  12.6911548  66.7700746  55.3282609  19.5729522
  67.0502500  54.6605798  20.1989949  67.5551353  55.5211704  19.0604186
  64.5734215  74.5041603  11.1354548  64.0008182  75.1231790  10.6825020
  65.1467008  75.0540964  11.6694470  70.6409604  63.7500243  23.3201097
  71.5927027  63.8498340  23.3413321  70.4713055  62.9578511  23.8299182
  68.6623984  60.8355826  23.5060498  68.0673916  61.1160839  22.8106987
  68.3773681  61.3249727  24.2777239  67.7931474  74.7878753  12.2663131
  68.7262148  74.7224314  12.4696006  67.7054687  75.6235020  11.8077663
  70.4219491  74.1044623   9.2267078  70.3433123  73.7704487  10.1202836
  71.2429158  74.5966391   9.2258551  73.1197682  66.9706362  22.4343397
  73.0874002  66.0322363  22.6203081  73.7298306  67.0490399  21.7009222
  64.9581013  65.8402415   8.4770601  65.9040118  65.7108623   8.5459019
  64.5795258  65.1017077   8.9540029  73.2692171  63.7617406  22.4801680
  72.7531219  62.9775862  22.2931609  74.1532119  63.4336122  22.6448200
  70.9302898  57.5058421  18.4397493  70.7327719  57.1973510  19.3240825
  71.5402603  58.2320060  18.5695423  78.9374232  68.0322369  21.5749434
  79.6677621  67.7707657  22.1357137  78.3281178  67.2951091  21.6151502
  77.0189529  66.1730232  22.1723885  76.2922693  66.0386197  21.5640376
  76.6036816  66.4807060  22.9780603  63.1423930  63.7652392   8.4125486
  62.2355386  63.4685504   8.4888200  63.4199911  63.4682210   7.5459772
  54.0601871  65.0858755  18.8624533  53.7404655  64.2324063  18.5698907
  53.5135299  65.3007333  19.6182500  57.8381778  67.8021196  22.5794039
  58.0567788  68.7338304  22.5982073  58.2507552  67.4429171  23.3648843
  64.7585996  58.3089281  14.5669727  63.9486724  57.9636366  14.9424974
  65.4470413  57.9996825  15.1557339  66.6876544  57.3867328  16.1894024
  67.2407583  57.8062782  16.8484047  66.9246631  56.4603076  16.2316980
  62.7109644  63.3754402  31.9696788  62.6106370  64.3248759  31.9008879
  62.4931186  63.0472641  31.0972858  61.9122715  60.6239327   8.5537465
  62.7741879  60.9494225   8.8133283  62.0973059  59.8370823   8.0410531
  53.9290131  68.7061667  20.8317654  53.2353602  68.2915619  20.3187609
  54.6763122  68.7482203  20.2351073  70.0655351  59.4967853  15.6972688
  69.4854020  60.1552657  15.3150741  69.7991284  58.6745198  15.2860106
  68.5158918  58.8972911  17.8994009  69.0158696  59.0089446  17.0908328
  69.1594526  58.5933964  18.5394817  62.5740914  66.8051541  30.7861850
  62.0907995  67.6051901  30.9925739  62.6601853  66.8159486  29.8329294
  55.8426873  68.6379920  18.7083669  55.8197561  68.7367608  17.7565552
  56.1527510  69.4845071  19.0300835  68.8480229  61.6567944  14.7529037
  67.9606084  61.9417594  14.5349231  69.2634218  61.4961707  13.9056314
  72.1994766  61.6814465  18.4683376  72.9755156  62.1710917  18.7407993
  71.4742900  62.1072519  18.9255245  74.6367324  62.3942084  19.5257316
  75.2311815  62.1537820  18.8150625  74.7093908  61.6749215  20.1530853
  67.9923443  71.4212618   8.8477057  68.6959293  71.6262621   9.4634712
  67.2686092  71.9889380   9.1126140  68.8221253  67.1722480  14.9679327
  68.7656455  67.6291031  14.1286959  69.3749596  66.4113164  14.7902170
  72.6326059  62.9612212  15.7929446  72.3762993  62.5608847  16.6237654
  72.0078927  63.6756006  15.6679585  76.9438397  65.7008285  18.3000738
  76.3837955  65.7701474  19.0732300  76.3381900  65.5249269  17.5800234
  60.0133606  77.1345012  20.0518924  59.8965990  78.0790444  19.9497614
  59.1926052  76.8318574  20.4404723  69.9010140  71.8595148  10.8975517
  70.7355744  71.4276346  10.7152991  69.7394483  71.6877161  11.8252411
  69.5556032  68.3627261  12.2631856  69.5004836  68.1971532  11.3220300
  68.9302088  69.0703294  12.4194046  62.8652158  57.8635370  11.8417174
  62.8530828  58.8077210  11.9985445  63.7575580  57.6805515  11.5476636
  61.0388120  77.7873274  23.2674852  61.9415367  77.8196884  23.5841347
  60.8125490  76.8573725  23.2821188  62.7941722  76.5404260  19.9284931
  61.8437353  76.5406122  19.8149303  63.0974208  75.7936995  19.4120966
  66.6804277  54.4578147  16.0963111  65.9136673  53.9036633  16.2419793
  67.0914982  54.5300015  16.9577263  58.6846038  60.7462942  30.1868292
  59.5477500  60.3899747  30.3971617  58.1111449  60.4076837  30.8743697
  78.5294415  82.3764799  20.9930693  79.1672825  82.2571546  20.2894033
  78.4115258  83.3245643  21.0518646  75.3384122  82.3292227  20.9292218
  75.0002633  82.2133292  20.0412753  76.2073890  81.9283392  20.9093224
  71.1970937  84.1827703  16.9189109  70.6335802  84.0917640  16.1505397
  71.0823332  83.3627608  17.3991602  75.8203905  83.4827079  26.8878424
  75.8092545  83.0879877  26.0158927  75.9824544  82.7493151  27.4812195
  68.7435369  85.6778895  19.7573329  69.5356661  85.3369720  19.3419629
  68.9832019  85.7873870  20.6775483  76.7770496  87.8498671  12.2303574
  76.1258476  88.4352751  11.8437588  77.5714859  88.3804866  12.2898611
  70.7026123  84.9387808  12.6290708  71.4756999  84.3916795  12.4903584
  71.0551522  85.8032057  12.8405170  72.5411166  86.2664190  25.8357608
  72.2501032  87.1709821  25.7204274  73.1768150  86.3080718  26.5501677
  73.4667373  83.6441039  22.4258967  74.0630945  83.4197061  21.7115930
  73.5242344  82.9025784  23.0284415  73.0392401  81.0980474  10.2609158
  73.2917922  80.5761996   9.4992621  72.1016960  80.9346620  10.3635842
  78.0835684  80.1016253  18.0683901  78.8698773  79.6835676  17.7174318
  78.3474388  81.0062345  18.2365550  78.2545761  85.5389103  12.7672558
  77.6191594  85.6123729  13.4793463  77.9243168  86.1282702  12.0891637
  83.4844111  80.0391486  18.9716880  84.2169283  79.4690703  19.2054709
  82.7283467  79.6513086  19.4123386  72.7588690  83.0008580  12.4633533
  72.6424948  82.3253484  13.1314617  72.8690950  82.5140954  11.6465686
  75.1020231  82.4618727  16.1680222  74.7378438  81.9349348  16.8793144
  75.9587347  82.0717196  15.9946708  81.0069531  73.7513060  23.4311489
  80.6752856  74.6208471  23.2072704  80.4115145  73.4349344  24.1105519
  74.7425718  77.4908627  11.1641571  74.9100120  78.3588863  11.5312042
  74.5522887  77.6535909  10.2402860  77.5001051  85.9525606  22.8307401
  77.2001774  86.8550645  22.7223209  77.1552110  85.6857789  23.6828554
  70.9513532  82.4039403  18.8644106  70.0264029  82.2715617  19.0721797
  71.1997946  83.1833622  19.3614048  80.8998195  78.4708146  20.5104839
  79.9915072  78.4023555  20.2163600  80.8485790  78.9480091  21.3386664
  74.7214939  79.9466285  12.1488238  74.6014564  80.3923335  12.9873718
  74.0267527  80.2951602  11.5901776  68.3122343  82.0472676  19.6987895
  68.4414725  82.3007155  20.6127306  67.6319795  82.6400384  19.3792550
  72.4821831  92.7169926  15.7978369  72.4045860  93.6677751  15.8766850
  71.8783474  92.3715799  16.4553295  74.9739060  79.8897792  28.4539736
  74.1972394  80.4491712  28.4442601  75.6129623  80.3754575  28.9754606
  82.7659841  76.6724585  22.2882713  82.1234221  76.9657118  21.6422507
  82.2614770  76.5577505  23.0935909  80.4200005  80.4187758  12.9768572
  81.3317861  80.6515144  12.8016269  79.9109652  81.0024802  12.4143650
  73.2285433  82.6983245  28.0157703  73.9700117  83.2368289  27.7392526
  72.5222418  83.3249534  28.1729255  78.7040772  84.8412386  26.6129864
  79.1124128  84.3994796  25.8684497  77.9818034  84.2665013  26.8664057
  75.0571842  79.7784992  23.9863421  75.9033038  80.2024406  24.1298070
  74.9970480  79.1218617  24.6801984  79.0269587  85.4013576  20.3682153
  78.3978449  85.5659290  19.6658221  78.6395249  85.8155186  21.1393117
  82.9058819  86.3368014  17.7226517  82.2209857  86.7166915  17.1723550
  82.9902668  86.9463341  18.4558465  78.2071288  77.4389361  25.6444595
  77.9632220  78.1931421  25.1078871  78.4831218  77.8174708  26.4791842
  80.1609751  83.9827973  24.3221861  80.3726646  84.6259733  23.6456242
  80.1139499  83.1490290  23.8543791  77.7635979  76.5945794  21.2258433
  76.9020459  76.8927047  21.5175170  77.7898414  76.8116193  20.2939465
  74.5797549  85.1387984  17.6332238  75.0435894  85.4175687  16.8436861
  74.3154347  84.2371429  17.4505329  71.4721630  84.6859466  20.5712002
  72.0422987  85.1146734  19.9329486  72.0629742  84.4042051  21.2696187
  73.5166435  81.2611137  14.4421803  74.2190478  81.7132180  14.9095730
  73.1847063  80.6194955  15.0701697  71.9646796  79.8522893  28.8173013
  71.3345457  80.5339174  29.0508410  71.8582884  79.7405975  27.8726151
  67.2591769  79.5194689  19.7438937  66.4690823  79.7752218  19.2679048
  67.7503016  80.3343027  19.8490978  81.2755578  86.8599928  22.4944218
  82.0973022  86.4580116  22.2126900  81.2717981  86.7568163  23.4460334
  69.2106514  79.8839269  16.7022414  68.4137678  79.9957963  17.2205909
  68.9832106  80.2225921  15.8363304  75.0412182  86.4083972  24.6504928
  75.1056614  86.8704379  25.4863100  74.3323106  85.7781337  24.7787238
  89.3661572  83.2038677  18.8429189  88.6125280  82.6346075  18.6873194
  89.5009113  83.1701341  19.7899824  74.7560200  88.0752079  14.5183909
  74.6205874  88.9203615  14.9468757  75.2970012  88.2771357  13.7549842
  68.2089597  85.5927517  15.0911834  68.7214118  86.3870768  15.2417398
  68.8612310  84.8953808  15.0245435  70.0184482  88.7093274  17.1734587
  70.1951110  89.6311238  16.9855571  70.8141315  88.3951693  17.6028967
  74.1595500  75.5701538  28.7718520  74.9005214  76.1708691  28.6922983
  74.3913423  74.8279176  28.2136563  76.3828676  88.6975646  28.6484251
  75.9392530  87.9112024  28.3305155  77.0445890  88.8854796  27.9828142
  71.1415797  90.2271447  23.1744929  71.6923222  90.0988511  22.4021923
  70.3027273  90.5266336  22.8239822  78.4809914  88.9778446  26.6765652
  78.4628389  89.7987327  26.1845921  79.4029834  88.8532521  26.9015793
  74.9382968  86.4922575  27.5189160  75.4711305  85.7310863  27.2888468
  74.4097049  86.1996227  28.2613315  78.1052663  71.5982641  23.0482802
  77.7616933  72.4884283  22.9721913  78.4731626  71.4084299  22.1852387
  66.1738514  83.9216172  15.8671404  67.0113736  84.3313180  15.6505112
  66.3516781  82.9815614  15.8371598  78.0702946  81.5891252  11.5555237
  77.5549569  82.3595857  11.7943625  77.7980254  80.9156388  12.1788299
  75.6550057  76.4340953  16.6140476  74.7991653  76.0447803  16.4346114
  76.0677009  76.5132914  15.7540261  77.1849204  73.9687296  21.0132035
  76.6813999  73.9317431  20.1999841  77.4779810  74.8780039  21.0728692
  73.4292089  74.0526026  20.0198217  74.2945086  73.8568835  19.6604107
  73.4969598  73.8236378  20.9467574  83.0437220  84.3423607  13.4908411
  82.2666663  84.0034766  13.0463573  83.7228701  84.3476230  12.8163376
  77.8589249  79.4618344  13.3815018  77.5539385  79.7764494  14.2325162
  78.8119691  79.5399764  13.4242351  76.3035681  85.6208568  15.0307972
  75.7757042  84.8861327  14.7181210  75.8023184  86.3983244  14.7847941
  81.2828527  83.8157588  20.1475019  80.6252201  84.5056850  20.2355147
  82.0868926  84.2054020  20.4909005  71.0354408  76.2828234  17.3914584
  71.6098160  76.0603415  16.6587777  71.6225391  76.3516928  18.1443185
  80.0933986  82.1701961  18.1978960  80.6065867  82.8031953  18.7000670
  80.7435210  81.5703156  17.8322320  71.3623996  78.3132695  11.4110469
  70.5261308  78.6507382  11.7319744  71.2228765  78.1781675  10.4737606
  73.3377076  73.1569483  16.1189653  72.6841489  72.8418500  15.4946268
  73.2957550  72.5345223  16.8449476  74.4488281  83.4388778   8.0342945
  73.5415343  83.2078031   8.2334094  74.9459313  82.6426397   8.2216927
  76.5714817  79.6451416  20.4437301  75.6537378  79.8666363  20.2858989
  76.9874960  79.7197727  19.5849008  77.3549864  81.0442832  15.5739981
  78.1021683  81.5564229  15.2647103  77.6241454  80.7226885  16.4344375
  75.6276515  83.5401373  12.5566936  74.7187734  83.2560406  12.6539405
  75.6571598  83.9600451  11.6970242  80.8595782  87.1507962  16.3258103
  80.4058109  86.3098872  16.3823294  80.2289749  87.7869361  16.6632883
  79.8028701  78.0799948  17.5558771  79.0651458  77.5677335  17.8869013
  80.0555475  77.6400330  16.7442047  79.3028721  88.9884459  17.2607921
  79.5951696  89.5489516  16.5420287  79.8127342  89.2813020  18.0161080
  79.9040329  70.8576200  18.1500540  80.2099206  69.9973564  17.8626455
  80.6292934  71.4493821  17.9499534  66.1964685  81.2606887  16.5382138
  65.9989085  80.6676248  15.8133204  65.6411349  80.9559097  17.2558077
  74.1761409  81.1529993  18.6576731  74.2310018  80.2003830  18.5819207
  73.3652611  81.3089432  19.1418029  75.3252602  85.0810116   9.8955014
  74.8872032  84.3645975   9.4360651  76.0663043  85.3086231   9.3340106
  72.1153768  79.7707053  16.4167110  71.3021634  80.0701224  16.8232302
  72.6112763  79.3762742  17.1341592  74.2662346  89.7664810  18.3501374
  74.2238525  89.9925656  17.4209906  75.1825045  89.5328185  18.4987176
  77.7127980  80.2348878  25.2482004  78.0677368  80.4620351  26.1076469
  78.3600111  80.5667254  24.6259259  83.4425717  83.3567313  15.9531333
  83.3043616  83.5468909  15.0252522  83.0861936  84.1186696  16.4099384
  71.6067843  77.3425409  22.0328345  72.2467223  77.2014168  21.3351308
  70.7745374  77.0559922  21.6566947  83.4695097  85.4243840  20.9642604
  83.9031603  85.3319130  21.8125658  84.1826677  85.4001341  20.3262620
  72.3828147  86.6427839  18.1463337  73.1768746  86.1478159  17.9445912
  71.6719840  86.1145702  17.7831043  77.2022992  89.0245935  22.4975705
  77.2560014  89.5936871  23.2653421  76.3337773  89.1947820  22.1329742
  68.6910911  80.7870921  14.2223090  67.7608499  80.7255376  14.4393052
  68.7868383  80.2646874  13.4259731  68.6096460  77.3125734  16.8101332
  68.8703277  78.2271067  16.7010492  69.4313632  76.8450176  16.9597944
  70.0821385  78.7263491  23.9800156  70.7544438  78.5180853  23.3312805
  69.2551172  78.5285577  23.5405388  84.3310646  85.4667541  23.4975490
  84.5246536  86.3713352  23.7434765  84.2311264  85.0074960  24.3314075
  75.9846957  75.3525432  25.9965817  75.3374872  76.0515381  25.9030293
  76.7547972  75.7861576  26.3642065  79.3925755  85.6174284  29.0716370
  79.2411261  85.3884836  28.1546454  79.3830434  86.5744885  29.0847715
  76.1611091  83.1906197  24.0562637  77.0903151  83.3417356  23.8831604
  75.7402121  83.2790217  23.2011283  74.9599423  87.2156861  21.8261174
  74.8210509  86.8475645  22.6987112  74.1714019  87.7304500  21.6545132
  75.5547575  92.3165958  13.1686711  75.7299331  91.8454001  13.9832333
  74.8680363  92.9431724  13.3967972  76.5104638  86.5938464  19.2150012
  76.1754471  86.5539234  20.1107662  76.0108584  85.9283180  18.7420422
  70.4848882  82.0006094  24.7402593  70.3468680  81.2686333  25.3414132
  71.3953806  81.9114994  24.4586781  73.1131183  81.7126053  24.2286273
  73.8230801  81.0719245  24.1872891  73.0700491  81.9638948  25.1512454
  81.1017962  88.6493406  27.1492852  81.0430508  87.9652627  26.4823435
  81.5037480  89.3912396  26.6973478  71.8260117  78.6991271  26.0481912
  71.2897474  78.2482009  26.7003509  71.2376825  78.8337180  25.3052377
  70.1208660  95.4655320  19.9426571  70.3605259  96.0973844  20.6205590
  69.2777857  95.1143360  20.2291930  71.2362376  78.1579922   8.6108376
  70.3591842  78.0368723   8.2470623  71.7120129  77.3666001   8.3587265
  81.1035369  86.6132990  25.3806832  80.2162148  86.2758912  25.5033231
  81.6733920  85.8816022  25.6175597  67.5599238  77.8347279  23.1334907
  67.4757427  77.2272948  22.3985317  66.7381945  78.3256297  23.1344403
  74.6336522  91.2734443  22.3468075  74.5606694  92.0789414  22.8587380
  74.1913915  91.4726409  21.5216096  74.4226302  90.5106213  15.8570897
  73.6393824  91.0527893  15.9509121  75.1219047  91.0280192  16.2565138
  77.7322952  76.3200842  18.5005102  78.2291652  75.5670805  18.1806172
  76.9609933  76.3565159  17.9348311  85.5852709  82.0241208  20.1423393
  85.5742586  82.9065923  19.7717326  84.7170089  81.6712759  19.9477930
  77.0935206  91.1721277  24.5026234  77.8063178  91.8068742  24.4302135
  76.6025234  91.2685143  23.6866235  78.8152733  85.0772529  16.0743525
  77.8809011  85.1973992  15.9048230  78.9929401  84.1744996  15.8103535
  74.3157921  78.4618225  18.2276786  73.9455708  77.9089266  18.9157692
  74.8117013  77.8576359  17.6751787  82.2025284  80.9189849  16.6093559
  82.6685736  81.7517840  16.5353862  82.6532785  80.4534830  17.3138818
  72.1447119  88.9215720  25.3231804  72.8456579  89.5552203  25.4761199
  71.6742234  89.2630452  24.5627444  80.2701515  87.2633670  13.6079711
  80.5461359  87.1490265  14.5173586  79.4006014  86.8651155  13.5691885
  80.1741947  73.2870436  20.6484461  79.2605027  73.5174663  20.8166668
  80.6035048  73.3708880  21.4998493  79.9448405  81.4760328  23.1484355
  79.2919855  81.7236235  22.4936808  80.3228785  80.6624466  22.8146832
  76.9055579  91.5120021  17.2512525  77.0877974  90.6941677  17.7140277
  77.7288565  91.7287713  16.8137415  77.2397745  90.4388206  14.5127574
  77.7685511  89.9280661  13.8997736  77.5025964  90.1230736  15.3773107
  75.9935978  82.2180139  29.6350392  75.3176615  82.1174268  30.3052767
  76.8163612  82.0619352  30.0986389  67.7414837  88.4552075  22.2562907
  68.3268274  87.7095763  22.3890811  67.5439676  88.7656032  23.1399571
  70.5953493  91.4903323  17.2725349  69.9263868  91.9749450  16.7889390
  70.4566362  91.7372543  18.1868728  74.7358761  93.5247066  23.8708008
  75.2877069  93.6878688  24.6357093  75.0764955  94.1151504  23.1988033
  69.7123254  75.8722216  24.4729893  69.7764581  76.7337047  24.0607290
  69.6490375  75.2596218  23.7402251  79.5869635  88.3508324  29.7256662
  80.1309539  88.9638282  29.2311617  79.0056480  88.9087902  30.2423675
  65.9641070  79.7521778  14.0521282  66.2594511  78.8432456  13.9988335
  65.0629105  79.7309517  13.7302284  77.8727148  91.4729042  20.8571690
  77.7478288  90.6718782  20.3482636  78.5306240  91.9675235  20.3685660
  69.4935317  77.8277774  20.0348830  68.7721902  78.4413742  19.8956304
  70.2828572  78.3635539  19.9565476  79.9362057  89.2738062  22.4851240
  78.9892392  89.1543413  22.4129567  80.2844830  88.3860560  22.5677502
  72.2961630  75.1632201  26.3089482  72.8196032  75.4094497  27.0715791
  72.0773963  75.9952236  25.8892619  67.6928911  77.4335875  14.1760607
  67.3641617  76.5533254  13.9935713  68.0468282  77.3783544  15.0636996
  76.9408490  89.0690778  18.6855592  76.7933453  88.1407485  18.8663162
  77.7661984  89.0910869  18.2012668  70.8070734  77.7208845  14.5436084
  71.1466807  78.2494766  13.8214693  71.2542855  78.0589251  15.3194651
  80.5442612  89.8919337  19.7720465  81.4689159  89.6862198  19.6344916
  80.3757915  89.6435738  20.6809807  73.5014175  76.1045896  23.9939153
  73.1610996  75.3053709  24.3959832  72.7953182  76.4047607  23.4215986
  74.1530647  73.1895208  22.4466476  74.9756716  72.7155686  22.3245366
  74.3968711  73.9685692  22.9465162  72.7938882  76.2183467  12.7429377
  73.5147244  76.5964719  12.2393094  72.1704186  76.9372344  12.8464355
  76.9370004  76.9228616  13.6787710  77.1533619  77.8053254  13.3776538
  76.4564072  76.5314829  12.9493352  71.6769226  79.8814329  20.2558454
  71.5313807  80.1954632  21.1482736  71.1994429  80.4999229  19.7029353
  73.5365609  76.8716877  20.3039344  73.5227177  75.9757970  19.9671642
  74.2538037  76.8787541  20.9377630  75.3891739  77.3054217  22.3492471
  75.1309517  78.2271288  22.3476802  74.8576780  76.9084652  23.0392935
  80.3337928  90.4105004  15.1282557  80.5074806  89.8451427  14.3756409
  80.8266819  91.2105899  14.9462047  72.9402505  75.7531257  15.5726914
  73.0618416  74.8247903  15.7717801  72.6504547  75.7669943  14.6605229
  75.8093695  73.4386168  18.7093634  75.8315392  73.5025501  17.7545613
  76.2261754  72.5990676  18.9034140  86.1877319  83.1741427  16.7472856
  86.6308465  82.4248752  16.3491980  85.3103830  83.1651564  16.3646588
  74.8824572  91.0905548  25.8856662  75.1911699  90.8454695  26.7579362
  75.6800055  91.2952186  25.3975532  74.9045185  93.2443457  18.1162039
  74.4650175  92.7519836  18.8094895  75.6553301  92.7016425  17.8754114
  67.3837524  89.4354998  18.1186667  68.2095543  89.1358770  17.7385310
  67.0331576  88.6662621  18.5676456  72.3519057  88.7881467  20.1884340
  71.7299066  88.1252172  19.8886568  73.0223924  88.8142598  19.5057988
  65.5846129  87.3541325  19.0775600  64.7478037  86.9263499  18.8959602
  65.5569774  87.5473768  20.0146392  82.9098430  87.8104378  29.0617984
  82.1193974  87.7928517  28.5222483  82.6731784  88.3492671  29.8167020
  83.0296305  84.6596844  26.3750712  83.0794310  84.4946852  27.3166235
  82.9210228  83.7924103  25.9848593  71.9132564  87.3385390  13.6642801
  72.0620684  88.0220854  13.0109474  72.7199007  87.3190480  14.1792257
  80.3200067  80.6427772  27.6910019  81.2209930  80.5034237  27.3994017
  80.3948042  80.8082227  28.6308196  74.6542873  78.0194627  26.5363205
  73.7846182  78.3128193  26.2645794  74.8902353  78.6035072  27.2570469
  84.5314502  87.0793786  26.6192734  84.2399310  87.4423766  27.4556195
  83.9186633  86.3660794  26.4406066  85.7310184  84.6446665  19.1395304
  86.5657075  85.0836470  19.3032864  85.8669313  84.1685319  18.3203550
  82.7801690  82.2026400  25.0872792  83.2555812  82.3954047  24.2791643
  81.8567255  82.2585586  24.8416175  69.6685197  83.3650567  14.6703870
  69.4231239  82.4612897  14.8684080  69.8381111  83.3667718  13.7283348
  77.3581906  74.2374244  24.0528626  77.8763850  74.9735271  23.7275114
  77.0037039  74.5438237  24.8875385  68.9380844  79.0978925  12.1690031
  68.2450089  79.1723280  11.5130067  68.6932596  78.3339269  12.6911548
  77.6094501  70.6574526  19.5729522  77.8896254  69.9897715  20.1989949
  78.3945108  70.8503622  19.0604186  81.4803359  79.0792160  23.3201097
  82.4320782  79.1790258  23.3413321  81.3106809  78.2870429  23.8299182
  79.5017738  76.1647744  23.5060498  78.9067671  76.4452756  22.8106987
  79.2167435  76.6541645  24.2777239  83.9591437  82.2998280  22.4343397
  83.9267757  81.3614281  22.6203081  84.5692060  82.3782317  21.7009222
  75.7974768  81.1694333   8.4770601  76.7433872  81.0400541   8.5459019
  75.4189013  80.4308995   8.9540029  84.1085925  79.0909323  22.4801680
  83.5924974  78.3067780  22.2931609  84.9925874  78.7628040  22.6448200
  81.7696652  72.8350339  18.4397493  81.5721473  72.5265427  19.3240825
  82.3796358  73.5611978  18.5695423  89.7767987  83.3614287  21.5749434
  90.5071375  83.0999575  22.1357137  89.1674932  82.6243009  21.6151502
  87.8583284  81.5022149  22.1723885  87.1316447  81.3678114  21.5640376
  87.4430571  81.8098978  22.9780603  75.6813460  85.2212079  29.9371258
  76.6016470  85.3990678  30.1311304  75.6463043  84.2768125  29.7850957
  73.9817685  79.0944309   8.4125486  73.0749140  78.7977422   8.4888200
  74.2593666  78.7974128   7.5459772  68.6775533  83.1313114  22.5794039
  68.8961542  84.0630222  22.5982073  69.0901307  82.7721088  23.3648843
  75.5979750  73.6381199  14.5669727  74.7880479  73.2928284  14.9424974
  76.2864167  73.3288743  15.1557339  77.5270299  72.7159246  16.1894024
  78.0801337  73.1354699  16.8484047  77.7640385  71.7894994  16.2316980
  72.7516469  75.9531245   8.5537465  73.6135633  76.2786143   8.8133283
  72.9366814  75.1662741   8.0410531  80.9049106  74.8259771  15.6972688
  80.3247775  75.4844575  15.3150741  80.6385039  74.0037116  15.2860106
  79.3552672  74.2264829  17.8994009  79.8552451  74.3381363  17.0908328
  79.9988280  73.9225882  18.5394817  73.4134668  82.1343458  30.7861850
  72.9301750  82.9343819  30.9925739  73.4995607  82.1451403  29.8329294
  66.6820628  83.9671838  18.7083669  66.6591316  84.0659525  17.7565552
  66.9921264  84.8136989  19.0300835  69.3408006  86.0247993  22.8230283
  70.2951259  85.9931935  22.7560215  69.1420529  85.5638617  23.6380509
  69.9307388  84.5949109  25.3901081  70.7500277  85.0893188  25.4135918
  70.2044195  83.6781077  25.3618649  79.6873984  76.9859861  14.7529037
  78.7999839  77.2709512  14.5349231  80.1027973  76.8253625  13.9056314
  83.0388520  77.0106382  18.4683376  83.8148910  77.5002835  18.7407993
  82.3136654  77.4364437  18.9255245  85.4761079  77.7234002  19.5257316
  86.0705569  77.4829738  18.8150625  85.5487662  77.0041132  20.1530853
  67.6958234  91.5667613  19.8400481  67.5612702  90.8068014  19.2738479
  67.2790297  92.2908512  19.3729270  79.6615008  82.5014397  14.9679327
  79.6050209  82.9582949  14.1286959  80.2143350  81.7405082  14.7902170
  83.4719814  78.2904129  15.7929446  83.2156748  77.8900765  16.6237654
  82.8472682  79.0047923  15.6679585  87.7832151  81.0300203  18.3000738
  87.2231709  81.0993392  19.0732300  87.1775655  80.8541187  17.5800234
  70.8527360  92.4636930  20.0518924  70.7359744  93.4082362  19.9497614
  70.0319806  92.1610491  20.4404723  80.3949787  83.6919179  12.2631856
  80.3398591  83.5263450  11.3220300  79.7695842  84.3995212  12.4194046
  77.7095694  85.9968091  31.5885419  78.5786854  86.1708743  31.2272054
  77.2302446  86.8162507  31.4661148  73.7045912  73.1927288  11.8417174
  73.6924582  74.1369128  11.9985445  74.5969334  73.0097433  11.5476636
  71.8781874  93.1165192  23.2674852  72.7809121  93.1488802  23.5841347
  71.6519244  92.1865642  23.2821188  73.6335476  91.8696178  19.9284931
  72.6831107  91.8698040  19.8149303  73.9367963  91.1228913  19.4120966
  77.5198032  69.7870064  16.0963111  76.7530428  69.2328551  16.2419793
  77.9308737  69.8591933  16.9577263  86.1777876  97.6584145  20.9292218
  85.8396388  97.5425209  20.0412753  87.0467644  97.2575310  20.9093224
  86.6597659  98.8118996  26.8878424  86.6486300  98.4171795  26.0158927
  86.8218299  98.0785069  27.4812195  83.3804920 101.5956108  25.8357608
  83.0894786 102.5001739  25.7204274  84.0161905 101.6372636  26.5501677
  84.3061127  98.9732957  22.4258967  84.9024699  98.7488979  21.7115930
  84.3636099  98.2317702  23.0284415  91.8463286  89.0804978  23.4311489
  91.5146611  89.9500389  23.2072704  91.2508899  88.7641262  24.1105519
  81.7907287  97.7331320  18.8644106  80.8657783  97.6007535  19.0721797
  82.0391700  98.5125540  19.3614048  91.7391949  93.8000064  20.5104839
  90.8308826  93.7315472  20.2163600  91.6879545  94.2772009  21.3386664
  79.1516098  97.3764594  19.6987895  79.2808479  97.6299073  20.6127306
  78.4713549  97.9692302  19.3792550  85.8132815  95.2189709  28.4539736
  85.0366149  95.7783630  28.4442601  86.4523378  95.7046492  28.9754606
  93.6053596  92.0016502  22.2882713  92.9627976  92.2949035  21.6422507
  93.1008524  91.8869423  23.0935909  84.0679187  98.0275163  28.0157703
  84.8093872  98.5660207  27.7392526  83.3616173  98.6541452  28.1729255
  89.5434527 100.1704303  26.6129864  89.9517883  99.7286714  25.8684497
  88.8211788  99.5956931  26.8664057  85.8965597  95.1076910  23.9863421
  86.7426792  95.5316324  24.1298070  85.8364235  94.4510534  24.6801984
  89.0465042  92.7681278  25.6444595  88.8025974  93.5223339  25.1078871
  89.3224973  93.1466626  26.4791842  91.0003505  99.3119891  24.3221861
  91.2120400  99.9551651  23.6456242  90.9533253  98.4782207  23.8543791
  88.6029734  91.9237711  21.2258433  87.7414213  92.2218965  21.5175170
  88.6292169  92.1408110  20.2939465  82.8040551  95.1814811  28.8173013
  82.1739212  95.8631092  29.0508410  82.6976639  95.0697893  27.8726151
  78.0985523  94.8486607  19.7438937  77.3084577  95.1044136  19.2679048
  78.5896771  95.6634945  19.8490978  85.8805936 101.7375889  24.6504928
  85.9450369 102.1996297  25.4863100  85.1716860 101.1073254  24.7787238
  76.3823226  95.1017097  22.1753928  76.6331265  95.9864107  22.4411504
  76.9182775  94.9221699  21.4029020  82.0821294  89.4835577  31.1798264
  81.6888239  88.9301775  31.8545908  82.8987434  89.7946155  31.5704781
  84.9989255  90.8993456  28.7718520  85.7398968  91.5000609  28.6922983
  85.2307178  90.1571094  28.2136563  80.1430593  96.0849823  27.0496750
  80.0284108  95.1835080  27.3503849  79.2875110  96.3313520  26.6981567
  87.2222430 104.0267563  28.6484251  86.7786285 103.2403942  28.3305155
  87.8839644 104.2146714  27.9828142  89.3203669 104.3070363  26.6765652
  89.3022144 105.1279244  26.1845921  90.2423589 104.1824439  26.9015793
  85.7776723 101.8214493  27.5189160  86.3105059 101.0602781  27.2888468
  85.2490804 101.5288145  28.2613315  88.9446418  86.9274559  23.0482802
  88.6010687  87.8176200  22.9721913  89.3125380  86.7376216  22.1852387
  88.0242958  89.2979214  21.0132035  87.5207754  89.2609349  20.1999841
  88.3173565  90.2071957  21.0728692  84.2685844  89.3817944  20.0198217
  85.1338841  89.1860752  19.6604107  84.3363353  89.1528295  20.9467574
  81.8748163  91.6120152  17.3914584  82.4491915  91.3895333  16.6587777
  82.4619145  91.6808846  18.1443185  84.1770831  88.4861401  16.1189653
  83.5235243  88.1710418  15.4946268  84.1351305  87.8637141  16.8449476
  87.4108571  94.9743334  20.4437301  86.4931132  95.1958281  20.2858989
  87.8268715  95.0489645  19.5849008  90.7434083  86.1868118  18.1500540
  91.0492960  85.3265481  17.8626455  91.4686688  86.7785738  17.9499534
  77.0358439  96.5898805  16.5382138  76.8382839  95.9968165  15.8133204
  76.4805103  96.2851015  17.2558077  88.5521735  95.5640795  25.2482004
  88.9071122  95.7912268  26.1076469  89.1993866  95.8959172  24.6259259
  82.4461598  92.6717326  22.0328345  83.0860977  92.5306085  21.3351308
  81.6139128  92.3851840  21.6566947  79.4490214  92.6417651  16.8101332
  79.7097031  93.5562985  16.7010492  80.2707386  92.1742094  16.9597944
  80.9215139  94.0555408  23.9800156  81.5938193  93.8472771  23.3312805
  80.0944926  93.8577494  23.5405388  86.8240711  90.6817349  25.9965817
  86.1768627  91.3807299  25.9030293  87.5941727  91.1153493  26.3642065
  90.2319509 100.9466202  29.0716370  90.0805016 100.7176753  28.1546454
  90.2224189 101.9036803  29.0847715  87.0004846  98.5198114  24.0562637
  87.9296906  98.6709274  23.8831604  86.5795876  98.6082135  23.2011283
  81.3242637  97.3298011  24.7402593  81.1862435  96.5978250  25.3414132
  82.2347560  97.2406912  24.4586781  83.9524937  97.0417971  24.2286273
  84.6624556  96.4011163  24.1872891  83.9094246  97.2930866  25.1512454
  82.6653871  94.0283189  26.0481912  82.1291228  93.5773927  26.7003509
  82.0770580  94.1629098  25.3052377  91.9429123 101.9424908  25.3806832
  91.0555902 101.6050830  25.5033231  92.5127674 101.2107939  25.6175597
  73.5958270  98.2749000  18.7049883  74.2829310  97.9610730  18.1170898
  73.4406399  99.1790364  18.4317135  78.3992993  93.1639196  23.1334907
  78.3151181  92.5564866  22.3985317  77.5775699  93.6548215  23.1344403
  88.5716706  91.6492760  18.5005102  89.0685406  90.8962722  18.1806172
  87.8003688  91.6857077  17.9348311  85.1551675  93.7910143  18.2276786
  84.7849463  93.2381183  18.9157692  85.6510768  93.1868276  17.6751787
  82.9840874 104.2507638  25.3231804  83.6850333 104.8844121  25.4761199
  82.5135989 104.5922369  24.5627444  91.0135701  88.6162353  20.6484461
  90.0998781  88.8466580  20.8166668  91.4428803  88.7000797  21.4998493
  90.7842160  96.8052245  23.1484355  90.1313610  97.0528153  22.4936808
  91.1622540  95.9916384  22.8146832  86.8329733  97.5472056  29.6350392
  86.1570370  97.4466186  30.3052767  87.6557367  97.3911270  30.0986389
  78.5808592 103.7843993  22.2562907  79.1662029 103.0387681  22.3890811
  78.3833430 104.0947950  23.1399571  73.1726247  96.3549593  20.9767350
  73.2110346  95.8213184  21.7704468  72.6666539  95.8284799  20.3578327
  80.5517009  91.2014134  24.4729893  80.6158335  92.0628965  24.0607290
  80.4884129  90.5888135  23.7402251  80.0269281  93.2737266  28.1202927
  80.6541320  92.8914344  28.7340451  79.1697200  93.0551468  28.4858619
  90.4263390 103.6800241  29.7256662  90.9703294 104.2930200  29.2311617
  89.8450235 104.2379820  30.2423675  80.3329071  93.1569692  20.0348830
  79.6115657  93.7705660  19.8956304  81.1222327  93.6927457  19.9565476
  83.1355385  90.4924118  26.3089482  83.6589786  90.7386415  27.0715791
  82.9167718  91.3244153  25.8892619  84.3407930  91.4337814  23.9939153
  84.0004750  90.6345627  24.3959832  83.6346936  91.7339524  23.4215986
  84.9924402  88.5187126  22.4466476  85.8150471  88.0447604  22.3245366
  85.2362465  89.2977610  22.9465162  82.5162980  95.2106247  20.2558454
  82.3707561  95.5246550  21.1482736  82.0388184  95.8291147  19.7029353
  84.3759363  92.2008795  20.3039344  84.3620932  91.3049888  19.9671642
  85.0931791  92.2079458  20.9377630  86.2285494  92.6346135  22.3492471
  85.9703272  93.5563205  22.3476802  85.6970534  92.2376569  23.0392935
  76.9908642  97.7511591  23.1946115  76.4462111  98.5271399  23.3266390
  77.8687992  98.0982395  23.0365237  86.6487450  88.7678085  18.7093634
  86.6709146  88.8317418  17.7545613  87.0655509  87.9282594  18.9034140
  77.7774664  96.8781487  26.0876272  77.0356400  97.0264123  26.6740903
  77.4567409  97.1389753  25.2243022  83.2637339  92.5955172  29.7816846
  83.3125494  93.4717295  29.3994616  83.8059853  92.0532565  29.2088490
  93.7492184 103.1396295  29.0617984  92.9587728 103.1220434  28.5222483
  93.5125539 103.6784589  29.8167020  93.8690059  99.9888762  26.3750712
  93.9188064  99.8238769  27.3166235  93.7603983  99.1216021  25.9848593
  91.1593822  95.9719690  27.6910019  92.0603685  95.8326155  27.3994017
  91.2341796  96.1374145  28.6308196  85.4936627  93.3486545  26.5363205
  84.6239937  93.6420111  26.2645794  85.7296107  93.9326990  27.2570469
  93.6195444  97.5318318  25.0872792  94.0949566  97.7245964  24.2791643
  92.6961010  97.5877504  24.8416175  88.1975661  89.5666162  24.0528626
  88.7157605  90.3027188  23.7275114  87.8430794  89.8730155  24.8875385
  88.4488255  85.9866444  19.5729522  88.7290009  85.3189633  20.1989949
  89.2338862  86.1795540  19.0604186  92.3197113  94.4084078  23.3201097
  93.2714536  94.5082176  23.3413321  92.1500564  93.6162347  23.8299182
  90.3411493  91.4939661  23.5060498  89.7461425  91.7744674  22.8106987
  90.0561190  91.9833562  24.2777239  94.9479680  94.4201241  22.4801680
  94.4318728  93.6359698  22.2931609  95.8319628  94.0919958  22.6448200
  92.6090407  88.1642257  18.4397493  92.4115228  87.8557345  19.3240825
  93.2190112  88.8903896  18.5695423  86.5207215 100.5503997  29.9371258
  87.4410224 100.7282596  30.1311304  86.4856798  99.6060042  29.7850957
  75.7389380  95.7442591  18.8624533  75.4192164  94.8907899  18.5698907
  75.1922808  95.9591169  19.6182500  79.5169287  98.4605032  22.5794039
  79.7355297  99.3922139  22.5982073  79.9295061  98.1013006  23.3648843
  88.3664053  88.0451164  16.1894024  88.9195092  88.4646617  16.8484047
  88.6034140  87.1186912  16.2316980  84.3897153  94.0338237  31.9696788
  84.2893879  94.9832594  31.9008879  84.1718695  93.7056476  31.0972858
  75.6077640  99.3645502  20.8317654  74.9141111  98.9499455  20.3187609
  76.3550631  99.4066039  20.2351073  84.2528423  97.4635376  30.7861850
  83.7695504  98.2635736  30.9925739  84.3389362  97.4743321  29.8329294
  77.5214382  99.2963756  18.7083669  77.4985070  99.3951443  17.7565552
  77.8315019 100.1428907  19.0300835  80.1801760 101.3539911  22.8230283
  81.1345014 101.3223853  22.7560215  79.9814284 100.8930535  23.6380509
  80.7701142  99.9241027  25.3901081  81.5894031 100.4185106  25.4135918
  81.0437950  99.0072995  25.3618649  76.0236056  94.2579161  26.0893278
  76.6694920  93.7478115  26.5780503  75.8153208  94.9947842  26.6636703
  88.5489449 101.3260008  31.5885419  89.4180608 101.5000661  31.2272054
  88.0696200 102.1454425  31.4661148  88.3591786  85.1161982  16.0963111
  87.5924182  84.5620469  16.2419793  88.7702491  85.1883851  16.9577263
  80.3633547  91.4046778  30.1868292  81.2265009  91.0483583  30.3971617
  79.7898958  91.0660673  30.8743697  92.9215048 104.8127494  31.1798264
  92.5281994 104.2593693  31.8545908  93.7381189 105.1238073  31.5704781
  95.2290907 109.3630155  31.9696788  95.1287634 110.3124512  31.9008879
  95.0112449 109.0348394  31.0972858  91.2027302 106.7338695  30.1868292
  92.0658763 106.3775500  30.3971617  90.6292713 106.3952590  30.8743697
  47.0688373  19.3694693  16.4501969  47.6128277  19.9824652  15.9556924
  46.4875218  19.9274272  16.9668982  50.3917168  18.8290747  15.7863290
  49.6012711  18.8114886  15.2467790  50.1550522  19.3679041  16.5412327
  45.1914432  17.0154460  18.3130725  46.0605592  17.1895112  17.9517360
  44.7121183  17.8348877  18.1906455  56.8506908  28.7243086   7.7176000
  57.4885318  28.6049833   7.0139340  56.7327751  29.6723930   7.7763952
  54.1416397  29.8305366  13.6123730  54.1305038  29.4358164  12.7404234
  54.3037036  29.0971438  14.2057502  50.8623658  32.6142478  12.5602914
  50.5713524  33.5188109  12.4449581  51.4980642  32.6559005  13.2746984
  51.7879865  29.9919326   9.1504274  52.3843437  29.7675349   8.4361237
  51.8454836  29.2504072   9.7529722  61.8056603  26.3869773   5.6962187
  62.5381775  25.8168990   5.9300016  61.0495959  25.9991374   6.1368692
  59.3282024  20.0991347  10.1556795  58.9965348  20.9686758   9.9318010
  58.7327637  19.7827631  10.8350826  55.8213543  32.3003893   9.5552708
  55.5214266  33.2028932   9.4468515  55.4764603  32.0336076  10.4073861
  50.8034323  39.0648214   2.5223676  50.7258353  40.0156039   2.6012156
  50.1995967  38.7194086   3.1798602  53.2951553  26.2376079  15.1785043
  52.5184887  26.7969999  15.1687907  53.9342116  26.7232862  15.6999913
  61.0872333  23.0202872   9.0128019  60.4446714  23.3135405   8.3667814
  60.5827262  22.9055792   9.8181216  51.5497925  29.0461532  14.7403010
  52.2912609  29.5846576  14.4637833  50.8434910  29.6727821  14.8974561
  57.0253265  31.1890673  13.3375171  57.4336621  30.7473083  12.5929803
  56.3030526  30.6143300  13.5909364  53.3784335  26.1263280  10.7108728
  54.2245530  26.5502693  10.8543377  53.3182972  25.4696904  11.4047291
  57.3482079  31.7491863   7.0927460  56.7190942  31.9137578   6.3903528
  56.9607741  32.1633473   7.8638424  61.2271311  32.6846301   4.4471824
  60.5422349  33.0645203   3.8968857  61.3115161  33.2941628   5.1803771
  56.5283780  23.7867648  12.3689902  56.2844712  24.5409708  11.8324177
  56.8043711  24.1652996  13.2037149  58.4822243  30.3306260  11.0467167
  58.6939138  30.9738020  10.3701548  58.4351991  29.4968577  10.5789097
  50.2859289  26.2001181  15.5418320  49.6557949  26.8817461  15.7753716
  50.1795377  26.0884262  14.5971458  59.5968071  33.2078216   9.2189525
  60.4185514  32.8058403   8.9372206  59.5930474  33.1046450  10.1705640
  53.3624674  32.7562259  11.3750235  53.4269107  33.2182666  12.2108407
  52.6535598  32.1259624  11.5032545  67.6874064  29.5516964   5.5674496
  66.9337772  28.9824362   5.4118500  67.8221605  29.5179629   6.5145131
  49.5640031  20.5021946  17.9043571  49.1706977  19.9488145  18.5791215
  50.3806172  20.8132525  18.2950088  52.4807992  21.9179825  15.4963827
  53.2217706  22.5186979  15.4168290  52.7125915  21.1757463  14.9381870
  47.6249330  27.1036193  13.7742057  47.5102846  26.2021450  14.0749156
  46.7693848  27.3499889  13.4226873  54.7041168  35.0453933  15.3729557
  54.2605022  34.2590312  15.0550462  55.3658382  35.2333084  14.7073448
  49.4628289  36.5749735   9.8990236  50.0135715  36.4466798   9.1267230
  48.6239765  36.8744624   9.5485129  56.8022406  35.3256733  13.4010959
  56.7840882  36.1465614  12.9091228  57.7242326  35.2010808  13.6261100
  53.2595460  32.8400862  14.2434467  53.7923797  32.0789151  14.0133775
  52.7309542  32.5474514  14.9858622  59.6041019  30.1635875   6.8720325
  58.9464694  30.8535137   6.9600454  60.4081418  30.5532307   7.2154312
  59.1808274  33.4986250   3.0503410  58.7270601  32.6577159   3.1068600
  58.5502241  34.1347648   3.3878190  57.6241213  35.3362746   3.9853228
  57.9164188  35.8967803   3.2665594  58.1339834  35.6291307   4.7406387
  52.5874839  36.1143097   5.0746681  52.5451017  36.3403944   4.1455213
  53.5037537  35.8806472   5.2232482  56.0340472  26.5827165  11.9727310
  56.3889860  26.8098638  12.8321776  56.6812604  26.9145542  11.3504566
  61.7907589  31.7722128   7.6887911  62.2244096  31.6797417   8.5370965
  62.5039170  31.7479628   7.0507927  55.5235484  35.3724222   9.2221011
  55.5772506  35.9415158   9.9898727  54.6550265  35.5426107   8.8575049
  62.6523139  31.8145828  10.2220796  62.8459029  32.7191639  10.4680071
  62.5523757  31.3553247  11.0559381  54.3059449  21.7003719  12.7211124
  53.6587364  22.3993669  12.6275600  55.0760465  22.1339863  13.0887372
  57.7138247  31.9652571  15.7961677  57.5623754  31.7363123  14.8791761
  57.7042927  32.9223173  15.8093022  54.4823584  29.5384484  10.7807943
  55.4115644  29.6895644  10.6076911  54.0614614  29.6268505   9.9256590
  53.2811915  33.5635148   8.5506481  53.1423001  33.1953933   9.4232419
  52.4926512  34.0782788   8.3790439  54.8317131  32.9416751   5.9395319
  54.4966963  32.9017521   6.8352969  54.3321076  32.2761467   5.4665729
  48.8061375  28.3484381  11.4647900  48.6681172  27.6164620  12.0659439
  49.7166298  28.2593281  11.1832088  51.4343675  28.0604340  10.9531580
  52.1443294  27.4197533  10.9118198  51.3912983  28.3117235  11.8757760
  59.4230454  34.9971694  13.8738159  59.3643000  34.3130914  13.2068742
  59.8249972  35.7390684  13.4218785  50.1472609  25.0469558  12.7727219
  49.6109966  24.5960297  13.4248815  49.5589318  25.1815467  12.0297683
  48.4421153  41.8133608   6.6671878  48.6817751  42.4452132   7.3450896
  47.5990349  41.4621648   6.9537237  59.4247861  32.9611278  12.1052138
  58.5374640  32.6237199  12.2278537  59.9946412  32.2294309  12.3420904
  52.9549015  37.6212730   9.0713382  52.8819186  38.4267701   9.5832686
  52.5126408  37.8204696   8.2461403  63.9065202  28.3719495   6.8668700
  63.8955078  29.2544210   6.4962633  63.0382581  28.0191046   6.6723237
  55.4147698  37.5199564  11.2271540  56.1275670  38.1547029  11.1547442
  54.9237727  37.6163430  10.4111542  50.4659612  35.2694007  12.0477111
  51.1669071  35.9030490  12.2006505  49.9954727  35.6108739  11.2872750
  58.2660898  27.8238615   9.8729661  57.6132348  28.0714522   9.2182114
  58.6441277  27.0102753   9.5392139  55.2268071  37.8598308   3.9757832
  55.4090466  37.0419964   4.4385584  56.0501057  38.0766000   3.5382722
  54.3148471  28.5658426  16.3595699  53.6389108  28.4652555  17.0298074
  55.1376104  28.4097640  16.8231696  46.0627330  34.8030363   8.9808214
  46.6480766  34.0574050   9.1136118  45.8652168  35.1134319   9.8644878
  53.0571253  39.8725353  10.5953315  53.6089561  40.0356975  11.3602400
  53.3977447  40.4629791   9.9233339  47.5088019  24.2923636  14.8448233
  48.1360058  23.9100713  15.4585758  46.6515938  24.0737838  15.2103926
  57.9082128  34.6986611  16.4501969  58.4522032  35.3116569  15.9556924
  57.3268973  35.2566189  16.9668982  56.1939641  37.8207329   7.5816997
  56.0690780  37.0197069   7.0727942  56.8518732  38.3153522   7.0930967
  58.2574549  35.6216349   9.2096547  57.3104885  35.5021700   9.1374873
  58.6057322  34.7338847   9.2922808  50.6174122  21.5110488  13.0334789
  51.1408524  21.7572785  13.7961098  50.3986456  22.3430523  12.6137926
  55.2620982  35.4169065   5.4100899  55.1145945  34.4885773   5.5908469
  56.0874476  35.4389156   4.9257974  58.8655104  36.2397624   6.4965772
  59.7901652  36.0340485   6.3590223  58.6970408  35.9914025   7.4055113
  58.6550420  36.7583291   1.8527863  58.8287298  36.1929714   1.1001716
  59.1479312  37.5584186   1.6707353  64.5089812  29.5219714   3.4718163
  64.9520958  28.7727040   3.0737286  63.6316322  29.5129851   3.0891895
  45.2593402  27.8967857  12.8121579  44.5175138  28.0450492  13.3986209
  44.9386146  28.1576122  11.9488328  53.2037065  37.4383835  12.6101969
  53.5124191  37.1932982  13.4824668  54.0012547  37.6430473  12.1220839
  53.2257677  39.5921745   4.8407345  52.7862667  39.0998123   5.5340202
  53.9765794  39.0494712   4.5999421  50.6731549  35.1359754   6.9129647
  50.0511558  34.4730459   6.6131875  51.3436416  35.1620886   6.2303295
  50.7456076  23.6141542  16.5062153  50.7944232  24.4903665  16.1239923
  51.2878591  23.0718935  15.9333796  61.2310922  34.1582665  15.7863290
  60.4406466  34.1406804  15.2467790  60.9944277  34.6970959  16.5412327
  61.3508797  31.0075131  13.0996019  61.4006802  30.8425139  14.0411542
  61.2422721  30.1402390  12.7093900  58.6412560  26.9906059  14.4155325
  59.5422422  26.8512524  14.1239323  58.7160534  27.1560514  15.3553503
  52.9755365  24.3672914  13.2608512  52.1058674  24.6606480  12.9891100
  53.2114845  24.9513359  13.9815775  62.8526994  33.4272073  13.3438040
  62.5611802  33.7902053  14.1801501  62.2399125  32.7139081  13.1651372
  64.0522676  30.9924953   5.8640611  64.8869568  31.4314757   6.0278171
  64.1881805  30.5163606   5.0448856  61.1014182  28.5504688  11.8118098
  61.5768304  28.7432334  11.0036950  60.1779748  28.6063873  11.5661482
  59.8015851  25.4270448  10.0446404  60.7533274  25.5268545  10.0658628
  59.6319302  24.6348716  10.5544488  57.8230231  22.5126031  10.2305805
  57.2280163  22.7931044   9.5352293  57.5379927  23.0019932  11.0022546
  62.2803929  28.6476567   9.1588704  62.2480249  27.7092568   9.3448387
  62.8904553  28.7260604   8.4254528  62.4298418  25.4387611   9.2046987
  61.9137466  24.6546067   9.0176916  63.3138366  25.1106327   9.3693506
  68.0980479  29.7092574   8.2994740  68.8283867  29.4477862   8.8602444
  67.4887424  28.9721296   8.3396808  66.1795776  27.8500437   8.8969192
  65.4528940  27.7156402   8.2885683  65.7643063  28.1577265   9.7025910
  54.0025952  31.5690366  16.6616565  54.9228962  31.7468965  16.8556611
  53.9675535  30.6246412  16.5096264  51.8715890  25.0524607  18.6942095
  51.7712617  26.0018964  18.6254186  51.6537432  24.7242846  17.8218165
  51.7347160  28.4821746  17.5107156  51.2514242  29.2822106  17.7171045
  51.8208099  28.4929691  16.5574600  47.6620498  32.3726280   9.5475590
  48.6163751  32.3410223   9.4805522  47.4633021  31.9116904  10.3625816
  48.2519880  30.9427396  12.1146388  49.0712769  31.4371475  12.1381225
  48.5256688  30.0259365  12.0863955  46.0170727  37.9145900   6.5645788
  45.8825195  37.1546301   5.9983786  45.6002789  38.6386800   6.0974577
  66.1044644  27.3778490   5.0246044  65.5444202  27.4471679   5.7977606
  65.4988147  27.2019474   4.3045541  49.1739852  38.8115217   6.7764231
  49.0572237  39.7560649   6.6742921  48.3532299  38.5088778   7.1650030
  56.0308186  32.3446378  18.3130725  56.8999346  32.5187030  17.9517360
  55.5514938  33.1640795  18.1906455  50.1994367  39.4643479   9.9920159
  51.1021613  39.4967089  10.3086654  49.9731737  38.5343930  10.0066495
  51.9547969  38.2174465   6.6530238  51.0043600  38.2176327   6.5394610
  52.2580455  37.4707200   6.1366272  47.8452285  22.4233147  16.9113599
  48.7083747  22.0669952  17.1216924  47.2717696  22.0847042  17.5989003
  67.6900662  44.0535004   7.7176000  68.3279072  43.9341751   7.0139340
  67.5721505  45.0015848   7.7763952  64.4990368  44.0062432   7.6537525
  64.1608880  43.8903497   6.7658060  65.3680137  43.6053597   7.6338531
  60.3577184  45.8597908   3.6434416  59.7942049  45.7687845   2.8750703
  60.2429579  45.0397813   4.1236908  64.9810151  45.1597284  13.6123730
  64.9698792  44.7650082  12.7404234  65.1430791  44.4263356  14.2057502
  57.9041616  47.3549100   6.4818636  58.6962908  47.0139924   6.0664935
  58.1438266  47.4644075   7.4020789  65.9376743  49.5268876  -1.0451119
  65.2864723  50.1122956  -1.4317106  66.7321106  50.0575071  -0.9856082
  59.8632370  46.6158013  -0.6463985  60.6363246  46.0687000  -0.7851109
  60.2157769  47.4802262  -0.4349524  61.7017413  47.9434395  12.5602914
  61.4107279  48.8480026  12.4449581  62.3374397  47.9850923  13.2746984
  62.6273619  45.3211244   9.1504274  63.2237192  45.0967266   8.4361237
  62.6848591  44.5795989   9.7529722  62.1998648  42.7750679  -3.0145535
  62.4524168  42.2532200  -3.7762072  61.2623207  42.6116825  -2.9118852
  67.2441931  41.7786458   4.7929208  68.0305020  41.3605881   4.4419625
  67.5080635  42.6832550   4.9610856  67.4152008  47.2159308  -0.5082135
  66.7797841  47.2893934   0.2038770  67.0849414  47.8052907  -1.1863056
  72.6450358  41.7161691   5.6962187  73.3775530  41.1460908   5.9300016
  71.8889713  41.3283291   6.1368692  61.9194937  44.6778785  -0.8121160
  61.8031195  44.0023689  -0.1440076  62.0297196  44.1911159  -1.6289007
  64.2626477  44.1388932   2.8925529  63.8984685  43.6119553   3.6038450
  65.1193593  43.7487401   2.7192014  70.1675778  35.4283265  10.1556795
  69.8359103  36.2978676   9.9318010  69.5721391  35.1119549  10.8350826
  66.6607298  47.6295811   9.5552708  66.3608021  48.5320850   9.4468515
  66.3158357  47.3627994  10.4073861  60.1119779  44.0809608   5.5889412
  59.1870276  43.9485822   5.7967104  60.3604192  44.8603827   6.0859355
  70.0604441  40.1478351   7.2350145  69.1521319  40.0793759   6.9408906
  70.0092037  40.6250296   8.0631971  63.8821185  41.6236489  -1.1266456
  63.7620811  42.0693540  -0.2880975  63.1873774  41.9721807  -1.6852917
  57.4728590  43.7242881   6.4233201  57.6020971  43.9777360   7.3372613
  56.7926041  44.3170589   6.1037856  61.6428077  54.3940131   2.5223676
  61.5652107  55.3447956   2.6012156  61.0389721  54.0486004   3.1798602
  64.1345307  41.5667997  15.1785043  63.3578641  42.1261917  15.1687907
  64.7735870  42.0524780  15.6999913  71.9266088  38.3494789   9.0128019
  71.2840468  38.6427323   8.3667814  71.4221016  38.2347710   9.8181216
  69.5806251  42.0957963  -0.2986122  70.4924108  42.3285349  -0.4738424
  69.0715899  42.6795007  -0.8611043  62.3891680  44.3753450  14.7403010
  63.1306364  44.9138494  14.4637833  61.6828665  45.0019739  14.8974561
  67.8647019  46.5182590  13.3375171  68.2730375  46.0765001  12.5929803
  67.1424281  45.9435218  13.5909364  64.2178089  41.4555197  10.7108728
  65.0639284  41.8794611  10.8543377  64.1576727  40.7988822  11.4047291
  68.1875834  47.0783781   7.0927460  67.5584696  47.2429495   6.3903528
  67.8001496  47.4925391   7.8638424  72.0665066  48.0138219   4.4471824
  71.3816104  48.3937120   3.8968857  72.1508915  48.6233546   5.1803771
  67.3677535  39.1159566  12.3689902  67.1238466  39.8701626  11.8324177
  67.6437465  39.4944913  13.2037149  69.3215997  45.6598178  11.0467167
  69.5332893  46.3029938  10.3701548  69.2745746  44.8260495  10.5789097
  66.9242226  38.2715999   7.9503739  66.0626705  38.5697252   8.2420477
  66.9504661  38.4886398   7.0184772  63.7403796  46.8158189   4.3577545
  64.2042141  47.0945892   3.5682167  63.4760594  45.9141634   4.1750636
  60.6327877  46.3629671   7.2957308  61.2029234  46.7916939   6.6574793
  61.2235989  46.0812255   7.9941494  62.6772682  42.9381342   1.1667110
  63.3796725  43.3902385   1.6341036  62.3453310  42.2965160   1.7947003
  61.1253043  41.5293098  15.5418320  60.4951704  42.2109379  15.7753716
  61.0189131  41.4176180  14.5971458  56.4198016  41.1964894   6.4684244
  55.6297070  41.4522423   5.9924354  56.9109263  42.0113232   6.5736284
  70.4361825  48.5370133   9.2189525  71.2579269  48.1350321   8.9372206
  70.4324228  48.4338368  10.1705640  58.3712761  41.5609473   3.4267720
  57.5743924  41.6728168   3.9451216  58.1438353  41.8996126   2.5608611
  64.2018429  48.0854177  11.3750235  64.2662861  48.5474584  12.2108407
  63.4929353  47.4551542  11.5032545  54.7035719  41.4495385   8.8999234
  54.9543757  42.3342395   9.1656810  55.2395267  41.2699986   8.1274326
  78.5267818  44.8808882   5.5674496  77.7731527  44.3116280   5.4118500
  78.6615360  44.8471546   6.5145131  63.9166446  49.7522284   1.2429215
  63.7812121  50.5973820   1.6714063  64.4576259  49.9541562   0.4795149
  60.4033786  35.8313864  17.9043571  60.0100732  35.2780063  18.5791215
  61.2199926  36.1424443  18.2950088  57.3695844  47.2697722   1.8157140
  57.8820364  48.0640972   1.9662705  58.0218557  46.5724013   1.7490742
  59.1790728  50.3863478   3.8979894  59.3557357  51.3081443   3.7100877
  59.9747562  50.0721898   4.3274273  63.3201747  37.2471743  15.4963827
  64.0611460  37.8478896  15.4168290  63.5519670  36.5049381  14.9381870
  58.4643085  42.4328110  13.7742057  58.3496600  41.5313368  14.0749156
  57.6087603  42.6791807  13.4226873  65.5434923  50.3745851  15.3729557
  65.0998777  49.5882229  15.0550462  66.2052136  50.5625001  14.7073448
  60.3022044  51.9041652   9.8990236  60.8529469  51.7758716   9.1267230
  59.4633520  52.2036541   9.5485129  67.6416161  50.6548651  13.4010959
  67.6234636  51.4757532  12.9091228  68.5636081  50.5302726  13.6261100
  64.0989215  48.1692780  14.2434467  64.6317552  47.4081068  14.0133775
  63.5703296  47.8766432  14.9858622  67.2658910  33.2752846   9.7728109
  66.9223179  34.1654488   9.6967219  67.6337873  33.0854504   8.9097694
  55.3344761  45.5986377   2.5916711  56.1719983  46.0083385   2.3750419
  55.5123028  44.6585819   2.5616905  67.2309193  43.2661457  -1.7199456
  66.7155816  44.0366062  -1.4811069  66.9586501  42.5926593  -1.0966395
  64.8156304  38.1111158   3.3385782  63.9597900  37.7218008   3.1591421
  65.2283255  38.1903119   2.4785568  66.3455450  35.6457501   7.7377342
  65.8420246  35.6087636   6.9245147  66.6386057  36.5550244   7.7973999
  62.5898336  35.7296231   6.7443524  63.4551333  35.5339040   6.3849413
  62.6575845  35.5006583   7.6712881  72.2043467  46.0193812   0.2153717
  71.4272910  45.6804971  -0.2291121  72.8834948  46.0246435  -0.4591318
  67.0195496  41.1388549   0.1060325  66.7145631  41.4534698   0.9570468
  67.9725938  41.2169969   0.1487658  65.4641928  47.2978773   1.7553279
  64.9363289  46.5631532   1.4426517  64.9629430  48.0753449   1.5093247
  70.4434774  45.4927793   6.8720325  69.7858448  46.1827054   6.9600454
  71.2475173  45.8824225   7.2154312  60.1960655  37.9598439   4.1159891
  60.7704407  37.7373620   3.3833084  60.7831638  38.0287133   4.8688492
  69.2540232  43.8472166   4.9224267  69.7672114  44.4802158   5.4245977
  69.9041456  43.2473361   4.5567627  62.4983323  34.8339688   2.8434960
  61.8447735  34.5188705   2.2191575  62.4563797  34.2115428   3.5694783
  63.6094528  45.1158983  -5.2411748  62.7021590  44.8848236  -5.0420599
  64.1065560  44.3196602  -5.0537766  66.5162607  53.8256490  -2.3215062
  65.8424305  54.1288187  -1.7130104  66.9028429  54.6285570  -2.6709605
  65.7321063  41.3221621   7.1682608  64.8143625  41.5436568   7.0104296
  66.1481207  41.3967932   6.3094315  66.5156111  42.7213037   2.2985288
  67.2627930  43.2334434   1.9892410  66.7847701  42.3997090   3.1589681
  64.7882761  45.2171578  -0.7187758  63.8793981  44.9330611  -0.6215288
  64.8177845  45.6370656  -1.5784451  70.0202029  48.8278167   3.0503410
  69.5664356  47.9869077   3.1068600  69.3895995  49.4639566   3.3878190
  68.9634948  39.7570153   4.2804077  68.2257705  39.2447539   4.6114320
  69.2161722  39.3170535   3.4687354  68.4634968  50.6654664   3.9853228
  68.7557942  51.2259721   3.2665594  68.9733588  50.9583225   4.7406387
  69.0646576  32.5346405   4.8745846  69.3705452  31.6743769   4.5871762
  69.7899180  33.1264025   4.6744840  55.3570932  42.9377092   3.2627444
  55.1595331  42.3446453   2.5378511  54.8017596  42.6329302   3.9803383
  63.3367655  42.8300198   5.3822038  63.3916265  41.8774035   5.3064514
  62.5258857  42.9859637   5.8663336  64.4858849  46.7580321  -3.3799679
  64.0478279  46.0416180  -3.8394042  65.2269290  46.9856436  -3.9414588
  61.2760015  41.4477258   3.1412416  60.4627881  41.7471429   3.5477609
  61.7719009  41.0532947   3.8586899  63.4268593  51.4435015   5.0746681
  63.3844772  51.6695861   4.1455213  64.3431292  51.2098390   5.2232482
  66.8734227  41.9119083  11.9727310  67.2283615  42.1390556  12.8321776
  67.5206358  42.2437459  11.3504566  72.6031964  45.0337518   2.6776639
  72.4649862  45.2239114   1.7497829  72.2468183  45.7956901   3.1344690
  60.7674090  39.0195614   8.7573651  61.4073469  38.8784373   8.0596615
  59.9351621  38.7330127   8.3812253  72.6301343  47.1014045   7.6887911
  73.0637850  47.0089335   8.5370965  73.3432924  47.0771546   7.0507927
  61.5434394  48.3198044   4.8708644  62.3374992  47.8248364   4.6691219
  60.8326086  47.7915907   4.5076349  66.3629238  50.7016140   9.2221011
  66.4166261  51.2707076   9.9898727  65.4944020  50.8718025   8.8575049
  57.8517157  42.4641126   0.9468397  56.9214745  42.4025581   1.1638359
  57.9474629  41.9417078   0.1505038  57.7702706  38.9895939   3.5346638
  58.0309524  39.9041272   3.4255799  58.5919879  38.5220381   3.6843251
  59.2427632  40.4033696  10.7045463  59.9150685  40.1951058  10.0558112
  58.4157418  40.2055782  10.2650695  73.4916893  47.1437746  10.2220796
  73.6852783  48.0483557  10.4680071  73.3917511  46.6845165  11.0559381
  65.1453204  37.0295637  12.7211124  64.4981119  37.7285586  12.6275600
  65.9154219  37.4631781  13.0887372  68.5532002  47.2944489  15.7961677
  68.4017508  47.0655041  14.8791761  68.5436681  48.2515090  15.8093022
  65.3217338  44.8676402  10.7807943  66.2509398  45.0187561  10.6076911
  64.9008368  44.9560422   9.9256590  64.1205670  48.8927066   8.5506481
  63.9816756  48.5245850   9.4232419  63.3320266  49.4074705   8.3790439
  64.7153822  53.9936162  -0.1067983  64.8905578  53.5224206   0.7077640
  64.0286610  54.6201929   0.1213278  65.6710885  48.2708669   5.9395319
  65.3360718  48.2309439   6.8352969  65.1714831  47.6053385   5.4665729
  59.6455129  43.6776299  11.4647900  59.5074927  42.9456538  12.0659439
  60.5560052  43.5885199  11.1832088  68.6070077  45.6164703  -3.7867622
  67.9899247  44.8911531  -3.8834569  68.1386565  46.3774063  -4.1300547
  62.2737430  43.3896258  10.9531580  62.9837048  42.7489450  10.9118198
  62.2306738  43.6409153  11.8757760  70.2624208  50.3263611  13.8738159
  70.2036755  49.6422832  13.2068742  70.6643727  51.0682601  13.4218785
  60.9866364  40.3761476  12.7727219  60.4503721  39.9252214  13.4248815
  60.3983072  40.5107385  12.0297683  59.2814907  57.1425525   6.6671878
  59.5211505  57.7744049   7.3450896  58.4384104  56.7913565   6.9537237
  70.2641616  48.2903195  12.1052138  69.3768394  47.9529117  12.2278537
  70.8340167  47.5586227  12.3420904  51.9170763  44.6227287   5.4295190
  52.6041803  44.3089017   4.8416205  51.7618891  45.5268652   5.1562441
  56.7205485  39.5117484   9.8580213  56.6363674  38.9043153   9.1230623
  55.8988191  40.0026502   9.8589710  63.7942769  52.9504648   9.0713382
  63.7212940  53.7559619   9.5832686  63.3520162  53.1496613   8.2461403
  63.5832549  52.1876418   2.5816203  62.8000071  52.7298098   2.6754428
  64.2825294  52.7050397   2.9810444  66.8929199  37.9971047   5.2250409
  67.3897898  37.2441009   4.9051479  66.1216180  38.0335364   4.6593618
  74.7458956  43.7011413   6.8668700  74.7348832  44.5836128   6.4962633
  73.8776336  43.3482964   6.6723237  66.2541453  52.8491482  11.2271540
  66.9669425  53.4838947  11.1547442  65.7631481  52.9455348  10.4111542
  67.9758979  46.7542734   2.7988832  67.0415258  46.8744197   2.6293536
  68.1535648  45.8515201   2.5348842  63.4764167  40.1388430   4.9522093
  63.1061955  39.5859471   5.6402999  63.9723260  39.5346564   4.3997093
  71.3631531  42.5960054   3.3338866  71.8291983  43.4288045   3.2599169
  71.8139031  42.1305035   4.0384125  61.3053366  50.5985925  12.0477111
  62.0062826  51.2322408  12.2006505  60.8348481  50.9400657  11.2872750
  69.4307762  48.9403875   0.3325018  69.7067606  48.8260470   1.2418892
  68.5612261  48.5421360   0.2937191  69.3348194  34.9640641   7.3729767
  68.4211273  35.1944867   7.5411974  69.7641295  35.0479085   8.2243800
  69.1054652  43.1530533   9.8729661  68.4526102  43.4006440   9.2182114
  69.4835032  42.3394671   9.5392139  66.0661826  53.1890226   3.9757832
  66.2484220  52.3711882   4.4385584  66.8894812  53.4057918   3.5382722
  66.4003991  52.1158411   1.2372880  66.9291758  51.6050866   0.6243042
  66.6632211  51.8000941   2.1018413  65.1542225  43.8950344  16.3595699
  64.4782862  43.7944473  17.0298074  65.9769859  43.7389557  16.8231696
  56.9021084  50.1322280   8.9808214  57.4874521  49.3865968   9.1136118
  56.7045923  50.4426237   9.8644878  59.7559739  53.1673528   3.9970656
  59.0870115  53.6519655   3.5134696  59.6172609  53.4142748   4.9114035
  51.4938739  42.7027880   7.7012657  51.5322838  42.1691471   8.4949775
  50.9879032  42.1763086   7.0823634  63.8965008  55.2017271  10.5953315
  64.4483316  55.3648893  11.3602400  64.2371201  55.7921709   9.9233339
  58.8729501  37.5492421  11.1975199  58.9370828  38.4107252  10.7852597
  58.8096621  36.9366423  10.4647558  58.3481774  39.6215553  14.8448233
  58.9753813  39.2392631  15.4585758  57.4909693  39.4029755  15.2103926
  68.7475882  50.0278529  16.4501969  69.2915786  50.6408487  15.9556924
  68.1662727  50.5858107  16.9668982  55.1247316  41.4291983   0.7766588
  55.4200758  40.5202661   0.7233642  54.2235352  41.4079722   0.4547591
  67.0333395  53.1499247   7.5816997  66.9084535  52.3488986   7.0727942
  67.6912486  53.6445440   7.0930967  58.6541563  39.5047979   6.7594137
  57.9328149  40.1183947   6.6201610  59.4434819  40.0405744   6.6810783
  69.0968304  50.9508267   9.2096547  68.1498639  50.8313618   9.1374873
  69.4451077  50.0630765   9.2922808  61.4567877  36.8402406  13.0334789
  61.9802279  37.0864702  13.7961098  61.2380210  37.6722440  12.6137926
  56.8535158  39.1106080   0.9005913  56.5247864  38.2303459   0.7181019
  57.2074529  39.0553749   1.7882303  66.1014737  50.7460983   5.4100899
  65.9539699  49.8177690   5.5908469  66.9268230  50.7681074   4.9257974
  59.9676981  39.3979050   1.2681391  60.3073054  39.9264971   0.5459999
  60.4149102  39.7359456   2.0439958  69.7048859  51.5689542   6.4965772
  70.6295406  51.3632403   6.3590223  69.5364162  51.3205943   7.4055113
  62.6620422  37.7816101  10.7184459  62.3217242  36.9823914  11.1205139
  61.9559428  38.0817812  10.1461292  63.3136894  34.8665413   9.1711782
  64.1362963  34.3925891   9.0490673  63.5574957  35.6455897   9.6710468
  61.9545128  37.8953672  -0.5325316  62.6753491  38.2734924  -1.0361599
  61.3310432  38.6142548  -0.4290338  66.0976251  38.5998821   0.4033016
  66.3139866  39.4823458   0.1021844  65.6170318  38.2085034  -0.3261342
  60.8375473  41.5584534   6.9803761  60.6920053  41.8724837   7.8728042
  60.3600676  42.1769434   6.4274659  62.6971855  38.5487082   7.0284650
  62.6833424  37.6528175   6.6916948  63.4144284  38.5557746   7.6622936
  64.5497986  38.9824422   9.0737778  64.2915764  39.9041493   9.0722108
  64.0183027  38.5854857   9.7638242  69.4944175  52.0875209   1.8527863
  69.6681052  51.5221632   1.1001716  69.9873066  52.8876104   1.6707353
  55.3121135  44.0989878   9.9191422  54.7674603  44.8749686  10.0511696
  56.1900485  44.4460683   9.7610543  62.1008751  37.4301462   2.2972221
  62.2224663  36.5018108   2.4963108  61.8110794  37.4440148   1.3850536
  64.9699942  35.1156373   5.4338940  64.9921639  35.1795706   4.4790920
  65.3868001  34.2760881   5.6279447  75.3483566  44.8511632   3.4718163
  75.7914712  44.1018957   3.0737286  74.4710076  44.8421768   3.0891895
  70.4819347  51.4041974  -1.0475239  71.1770252  52.0248666  -0.8287924
  70.8242498  50.5537325  -0.7722861  56.0987157  43.2259774  12.8121579
  55.3568893  43.3742410  13.3986209  55.7779901  43.4868040  11.9488328
  72.3810771  48.8541679   0.4812092  72.9062095  49.1928952  -0.2438588
  72.2933123  47.9188694   0.2975227  64.0430819  52.7675753  12.6101969
  64.3517946  52.5224899  13.4824668  64.8406301  52.9722391  12.1220839
  64.0651431  54.9213662   4.8407345  63.6256422  54.4290041   5.5340202
  64.8159548  54.3786630   4.5999421  56.5443770  51.1125203   4.8431973
  57.3701790  50.8128975   4.4630617  56.1937822  50.3432826   5.2921762
  61.5125303  50.4651671   6.9129647  60.8905313  49.8022376   6.6131875
  62.1830170  50.4912803   6.2303295  54.7452375  49.0311530   5.8020907
  53.9084284  48.6033704   5.6204908  54.7176021  49.2243973   6.7391698
  61.5849831  38.9433459  16.5062153  61.6337986  39.8195582  16.1239923
  62.1272345  38.4010852  15.9333796  72.0704677  49.4874583  15.7863290
  71.2800220  49.4698722  15.2467790  71.8338031  50.0262876  16.5412327
  72.1902552  46.3367049  13.0996019  72.2400557  46.1717057  14.0411542
  72.0816475  45.4694308  12.7093900  61.0738810  49.0155595   0.3888108
  61.2226931  49.6991059  -0.2645220  61.8805254  48.9960685   0.9037563
  69.4806314  42.3197977  14.4155325  70.3816177  42.1804442  14.1239323
  69.5554289  42.4852432  15.3553503  63.8149119  39.6964832  13.2608512
  62.9452429  39.9898398  12.9891100  64.0508600  40.2805277  13.9815775
  73.6920749  48.7563991  13.3438040  73.4005557  49.1193971  14.1801501
  73.0792880  48.0430999  13.1651372  74.8916431  46.3216870   5.8640611
  75.7263322  46.7606674   6.0278171  75.0275560  45.8455524   5.0448856
  71.9407937  43.8796605  11.8118098  72.4162058  44.0724252  11.0036950
  71.0173502  43.9355791  11.5661482  58.8291443  45.0420772   1.3949177
  58.5837485  44.1383102   1.5929387  58.9987358  45.0437923   0.4528655
  66.5188153  35.9144449  10.7773932  67.0370097  36.6505476  10.4520421
  66.1643286  36.2208442  11.6120691  66.7700747  32.3344731   6.2974829
  67.0502501  31.6667920   6.9235255  67.5551354  32.5273827   5.7849493
  64.5734216  51.5103725  -2.1400145  64.0008183  52.1293912  -2.5929673
  65.1467010  52.0603087  -1.6060223  70.6409606  40.7562365  10.0446404
  71.5927029  40.8560463  10.0658628  70.4713056  39.9640634  10.5544488
  68.6623985  37.8417949  10.2305805  68.0673917  38.1222961   9.5352293
  68.3773682  38.3311849  11.0022546  67.7931476  51.7940875  -1.0091563
  68.7262149  51.7286437  -0.8058687  67.7054689  52.6297142  -1.4677030
  70.4219492  51.1106746  -4.0487615  70.3433124  50.7766609  -3.1551857
  71.2429159  51.6028514  -4.0496143  73.1197684  43.9768485   9.1588704
  73.0874004  43.0384486   9.3448387  73.7298307  44.0552522   8.4254528
  64.9581014  42.8464538  -4.7984092  65.9040119  42.7170746  -4.7295674
  64.5795259  42.1079200  -4.3214664  73.2692172  40.7679528   9.2046987
  72.7531221  39.9837985   9.0176916  74.1532121  40.4398245   9.3693506
  70.9302899  34.5120544   5.1642799  70.7327720  34.2035632   6.0486131
  71.5402605  35.2382183   5.2940729  78.9374233  45.0384492   8.2994740
  79.6677622  44.7769780   8.8602444  78.3281179  44.3013214   8.3396808
  77.0189531  43.1792354   8.8969192  76.2922694  43.0448319   8.2885683
  76.6036817  43.4869183   9.7025910  64.8419707  46.8982284  16.6616565
  65.7622716  47.0760883  16.8556611  64.8069290  45.9538329  16.5096264
  54.0601872  42.0920878   5.5869839  53.7404656  41.2386186   5.2944213
  53.5135300  42.3069456   6.3427807  57.8381779  44.8083319   9.3039346
  58.0567789  45.7400427   9.3227380  58.2507553  44.4491293  10.0894150
  64.7585997  35.3151404   1.2915034  63.9486726  34.9698489   1.6670280
  65.4470414  35.0058948   1.8802646  66.6876546  34.3929451   2.9139331
  67.2407584  34.8124904   3.5729354  66.9246632  33.4665199   2.9562287
  62.7109645  40.3816525  18.6942095  62.6106372  41.3310881  18.6254186
  62.4931187  40.0534763  17.8218165  53.9290132  45.7123789   7.5562961
  53.2353603  45.2977742   7.0432915  54.6763123  45.7544326   6.9596380
  70.0655353  36.5029976   2.4217995  69.4854022  37.1614780   2.0396047
  69.7991285  35.6807321   2.0105412  68.5158919  35.9035034   4.6239315
  69.0158697  36.0151568   3.8153634  69.1594527  35.5996087   5.2640124
  62.5740915  43.8113663  17.5107156  62.0907997  44.6114023  17.7171045
  62.6601854  43.8221608  16.5574600  55.8426874  45.6442043   5.4328976
  55.8197563  45.7429730   4.4810859  56.1527511  46.4907194   5.7546142
  58.5014252  47.7018198   9.5475590  59.4557506  47.6702140   9.4805522
  58.3026776  47.2408822  10.3625816  59.0913634  46.2719314  12.1146388
  59.9106523  46.7663393  12.1381225  59.3650442  45.3551282  12.0863955
  68.8480231  38.6630066   1.4774343  67.9606086  38.9479717   1.2594538
  69.2634220  38.5023830   0.6301620  72.1994767  38.6876587   5.1928682
  72.9755157  39.1773040   5.4653299  71.4742901  39.1134642   5.6500552
  74.6367325  39.4004207   6.2502623  75.2311816  39.1599943   5.5395931
  74.7093909  38.6811337   6.8776159  56.8564481  53.2437818   6.5645788
  56.7218949  52.4838218   5.9983786  56.4396543  53.9678717   6.0974577
  67.9923444  48.4274741  -4.4277637  68.6959294  48.6324744  -3.8119981
  67.2686093  48.9951503  -4.1628553  68.8221254  44.1784602   1.6924633
  68.7656456  44.6353154   0.8532266  69.3749597  43.4175287   1.5147476
  72.6326060  39.9674334   2.5174753  72.3762995  39.5670970   3.3482961
  72.0078928  40.6818128   2.3924892  76.9438398  42.7070407   5.0246044
  76.3837956  42.7763597   5.7977606  76.3381902  42.5311392   4.3045541
  60.0133607  54.1407135   6.7764231  59.8965991  55.0852567   6.6742921
  59.1926053  53.8380696   7.1650030  69.9010142  48.8657270  -2.3779177
  70.7355745  48.4338469  -2.5601702  69.7394484  48.6939284  -1.4502282
  69.5556034  45.3689384  -1.0122837  69.5004838  45.2033655  -1.9534393
  68.9302089  46.0765417  -0.8560648  54.3448549  40.6057448  12.8138585
  54.9907412  40.0956402  13.3025810  54.1365700  41.3426130  13.3882010
  66.8701941  47.6738295  18.3130725  67.7393101  47.8478948  17.9517360
  66.3908692  48.4932712  18.1906455  61.0388121  54.7935396   9.9920159
  61.9415368  54.8259007  10.3086654  60.8125491  53.8635847  10.0066495
  62.7941723  53.5466383   6.6530238  61.8437354  53.5468245   6.5394610
  63.0974209  52.7999118   6.1366272  66.6804279  31.4640269   2.8208418
  65.9136674  30.9098756   2.9665100  67.0914984  31.5362138   3.6822569
  58.6846040  37.7525065  16.9113599  59.5477501  37.3961870  17.1216924
  58.1111450  37.4138960  17.5989003  78.5294417  59.3826921   7.7176000
  79.1672827  59.2633669   7.0139340  78.4115260  60.3307765   7.7763952
  75.3384123  59.3354350   7.6537525  75.0002634  59.2195414   6.7658060
  76.2073891  58.9345515   7.6338531  71.1970939  61.1889826   3.6434416
  70.6335804  61.0979763   2.8750703  71.0823334  60.3689730   4.1236908
  75.8203906  60.4889201  13.6123730  75.8092547  60.0942000  12.7404234
  75.9824545  59.7555274  14.2057502  68.7435371  62.6841018   6.4818636
  69.5356662  62.3431842   6.0664935  68.9832021  62.7935993   7.4020789
  76.7770497  64.8560794  -1.0451119  76.1258477  65.4414874  -1.4317106
  77.5714860  65.3866989  -0.9856082  70.7026124  61.9449931  -0.6463985
  71.4757000  61.3978918  -0.7851109  71.0551523  62.8094180  -0.4349524
  72.5411167  63.2726313  12.5602914  72.2501033  64.1771944  12.4449581
  73.1768151  63.3142841  13.2746984  73.4667374  60.6503162   9.1504274
  74.0630946  60.4259184   8.4361237  73.5242345  59.9087907   9.7529722
  73.0392402  58.1042597  -3.0145535  73.2917923  57.5824118  -3.7762072
  72.1016961  57.9408742  -2.9118852  78.0835685  57.1078375   4.7929208
  78.8698774  56.6897798   4.4419625  78.3474389  58.0124467   4.9610856
  78.2545762  62.5451226  -0.5082135  77.6191595  62.6185852   0.2038770
  77.9243169  63.1344824  -1.1863056  83.4844112  57.0453608   5.6962187
  84.2169284  56.4752825   5.9300016  82.7283468  56.6575209   6.1368692
  72.7588691  60.0070703  -0.8121160  72.6424949  59.3315606  -0.1440076
  72.8690951  59.5203077  -1.6289007  75.1020232  59.4680850   2.8925529
  74.7378439  58.9411471   3.6038450  75.9587348  59.0779319   2.7192014
  81.0069533  50.7575183  10.1556795  80.6752857  51.6270594   9.9318010
  80.4115146  50.4411467  10.8350826  74.7425719  54.4970750  -2.1113122
  74.9100121  55.3650986  -1.7442651  74.5522888  54.6598031  -3.0351833
  77.5001052  62.9587729   9.5552708  77.2001775  63.8612767   9.4468515
  77.1552112  62.6919912  10.4073861  70.9513534  59.4101525   5.5889412
  70.0264030  59.2777739   5.7967104  71.1997947  60.1895745   6.0859355
  80.8998196  55.4770269   7.2350145  79.9915073  55.4085677   6.9408906
  80.8485792  55.9542214   8.0631971  74.7214940  56.9528407  -1.1266456
  74.6014565  57.3985458  -0.2880975  74.0267528  57.3013725  -1.6852917
  68.3122345  59.0534799   6.4233201  68.4414726  59.3069278   7.3372613
  67.6319796  59.6462507   6.1037856  72.4821832  69.7232049   2.5223676
  72.4045862  70.6739874   2.6012156  71.8783476  69.3777921   3.1798602
  74.9739062  56.8959914  15.1785043  74.1972396  57.4553834  15.1687907
  75.6129625  57.3816697  15.6999913  82.7659842  53.6786707   9.0128019
  82.1234223  53.9719240   8.3667814  82.2614771  53.5639627   9.8181216
  80.4200006  57.4249880  -0.2986122  81.3317862  57.6577267  -0.4738424
  79.9109653  58.0086925  -0.8611043  73.2285434  59.7045368  14.7403010
  73.9700118  60.2430412  14.4637833  72.5222419  60.3311656  14.8974561
  78.7040774  61.8474508  13.3375171  79.1124130  61.4056919  12.5929803
  77.9818035  61.2727136  13.5909364  75.0571844  56.7847115  10.7108728
  75.9033039  57.2086528  10.8543377  74.9970481  56.1280739  11.4047291
  79.0269588  62.4075699   7.0927460  78.3978451  62.5721413   6.3903528
  78.6395250  62.8217308   7.8638424  82.9058820  63.3430137   4.4471824
  82.2209858  63.7229038   3.8968857  82.9902669  63.9525463   5.1803771
  78.2071289  54.4451483  12.3689902  77.9632221  55.1993544  11.8324177
  78.4831220  54.8236831  13.2037149  80.1609752  60.9890096  11.0467167
  80.3726647  61.6321856  10.3701548  80.1139500  60.1552412  10.5789097
  77.7635981  53.6007916   7.9503739  76.9020460  53.8989170   8.2420477
  77.7898415  53.8178315   7.0184772  74.5797550  62.1450107   4.3577545
  75.0435896  62.4237810   3.5682167  74.3154348  61.2433551   4.1750636
  71.4721631  61.6921588   7.2957308  72.0422988  62.1208857   6.6574793
  72.0629743  61.4104173   7.9941494  73.5166436  58.2673259   1.1667110
  74.2190480  58.7194303   1.6341036  73.1847065  57.6257078   1.7947003
  71.9646798  56.8585016  15.5418320  71.3345458  57.5401297  15.7753716
  71.8582886  56.7468097  14.5971458  67.2591770  56.5256812   6.4684244
  66.4690824  56.7814340   5.9924354  67.7503018  57.3405150   6.5736284
  81.2755580  63.8662051   9.2189525  82.0973023  63.4642238   8.9372206
  81.2717983  63.7630285  10.1705640  69.2106516  56.8901391   3.4267720
  68.4137679  57.0020085   3.9451216  68.9832108  57.2288043   2.5608611
  75.0412183  63.4146094  11.3750235  75.1056616  63.8766502  12.2108407
  74.3323107  62.7843459  11.5032545  65.5429473  56.7787302   8.8999234
  65.7937512  57.6634312   9.1656810  66.0789022  56.5991904   8.1274326
  89.3661573  60.2100800   5.5674496  88.6125281  59.6408198   5.4118500
  89.5009114  60.1763464   6.5145131  74.7560201  65.0814202   1.2429215
  74.6205876  65.9265738   1.6714063  75.2970013  65.2833479   0.4795149
  71.2427540  51.1605782  17.9043571  70.8494486  50.6071980  18.5791215
  72.0593681  51.4716360  18.2950088  68.2089598  62.5989640   1.8157140
  68.7214119  63.3932890   1.9662705  68.8612311  61.9015930   1.7490742
  70.0184483  65.7155396   3.8979894  70.1951111  66.6373361   3.7100877
  70.8141316  65.4013815   4.3274273  74.1595501  52.5763661  15.4963827
  74.9005215  53.1770814  15.4168290  74.3913424  51.8341299  14.9381870
  69.3036839  57.7620028  13.7742057  69.1890355  56.8605285  14.0749156
  68.4481357  58.0083725  13.4226873  76.3828677  65.7037768  15.3729557
  75.9392531  64.9174147  15.0550462  77.0445891  65.8916919  14.7073448
  71.1415798  67.2333570   9.8990236  71.6923224  67.1050633   9.1267230
  70.3027274  67.5328459   9.5485129  78.4809915  65.9840568  13.4010959
  78.4628391  66.8049449  12.9091228  79.4029835  65.8594644  13.6261100
  74.9382969  63.4984698  14.2434467  75.4711306  62.7372986  14.0133775
  74.4097051  63.2058350  14.9858622  78.1052664  48.6044764   9.7728109
  77.7616934  49.4946405   9.6967219  78.4731627  48.4146421   8.9097694
  66.1738515  60.9278294   2.5916711  67.0113737  61.3375303   2.3750419
  66.3516783  59.9877736   2.5616905  78.0702947  58.5953375  -1.7199456
  77.5549571  59.3657979  -1.4811069  77.7980256  57.9218511  -1.0966395
  75.6550058  53.4403076   3.3385782  74.7991654  53.0509926   3.1591421
  76.0677010  53.5195036   2.4785568  77.1849205  50.9749419   7.7377342
  76.6814000  50.9379554   6.9245147  77.4779812  51.8842162   7.7973999
  73.4292091  51.0588149   6.7443524  74.2945087  50.8630957   6.3849413
  73.4969600  50.8298500   7.6712881  83.0437221  61.3485729   0.2153717
  82.2666664  61.0096889  -0.2291121  83.7228702  61.3538353  -0.4591318
  77.8589250  56.4680467   0.1060325  77.5539386  56.7826616   0.9570468
  78.8119692  56.5461887   0.1487658  76.3035682  62.6270690   1.7553279
  75.7757044  61.8923450   1.4426517  75.8023185  63.4045367   1.5093247
  81.2828528  60.8219711   6.8720325  80.6252203  61.5118972   6.9600454
  82.0868927  61.2116143   7.2154312  71.0354410  53.2890357   4.1159891
  71.6098162  53.0665538   3.3833084  71.6225392  53.3579051   4.8688492
  80.0933987  59.1764083   4.9224267  80.6065869  59.8094075   5.4245977
  80.7435211  58.5765279   4.5567627  71.3623997  55.3194818  -1.8644224
  70.5261309  55.6569504  -1.5434949  71.2228767  55.1843797  -2.8017087
  73.3377077  50.1631605   2.8434960  72.6841490  49.8480623   2.2191575
  73.2957552  49.5407346   3.5694783  74.4488282  60.4450901  -5.2411748
  73.5415344  60.2140154  -5.0420599  74.9459314  59.6488520  -5.0537766
  76.5714818  56.6513539   7.1682608  75.6537379  56.8728486   7.0104296
  76.9874961  56.7259849   6.3094315  77.3549866  58.0504955   2.2985288
  78.1021685  58.5626352   1.9892410  77.6241455  57.7289007   3.1589681
  75.6276516  60.5463495  -0.7187758  74.7187735  60.2622528  -0.6215288
  75.6571600  60.9662574  -1.5784451  80.8595783  64.1570085   3.0503410
  80.4058110  63.3160995   3.1068600  80.2289750  64.7931483   3.3878190
  79.8028703  55.0862071   4.2804077  79.0651460  54.5739457   4.6114320
  80.0555476  54.6462453   3.4687354  79.3028722  65.9946582   3.9853228
  79.5951697  66.5551639   3.2665594  79.8127343  66.2875143   4.7406387
  79.9040330  47.8638323   4.8745846  80.2099207  47.0035686   4.5871762
  80.6292935  48.4555943   4.6744840  66.1964686  58.2669010   3.2627444
  65.9989086  57.6738370   2.5378511  65.6411350  57.9621220   3.9803383
  74.1761410  58.1592116   5.3822038  74.2310020  57.2065952   5.3064514
  73.3652612  58.3151555   5.8663336  75.3252604  62.0872239  -3.3799679
  74.8872033  61.3708098  -3.8394042  76.0663044  62.3148354  -3.9414588
  72.1153770  56.7769176   3.1412416  71.3021635  57.0763346   3.5477609
  72.6112764  56.3824865   3.8586899  74.2662348  66.7726933   5.0746681
  74.2238526  66.9987779   4.1455213  75.1825046  66.5390307   5.2232482
  77.7127981  57.2411000  11.9727310  78.0677369  57.4682473  12.8321776
  78.3600113  57.5729377  11.3504566  83.4425718  60.3629436   2.6776639
  83.3043617  60.5531032   1.7497829  83.0861937  61.1248819   3.1344690
  71.6067844  54.3487531   8.7573651  72.2467224  54.2076290   8.0596615
  70.7745375  54.0622045   8.3812253  83.4695098  62.4305963   7.6887911
  83.9031605  62.3381252   8.5370965  84.1826679  62.4063464   7.0507927
  72.3828148  63.6489962   4.8708644  73.1768747  63.1540282   4.6691219
  71.6719841  63.1207825   4.5076349  77.2022993  66.0308057   9.2221011
  77.2560015  66.5998994   9.9898727  76.3337774  66.2009942   8.8575049
  68.6910912  57.7933043   0.9468397  67.7608500  57.7317499   1.1638359
  68.7868384  57.2708996   0.1505038  68.6096461  54.3187856   3.5346638
  68.8703278  55.2333189   3.4255799  69.4313633  53.8512299   3.6843251
  70.0821386  55.7325613  10.7045463  70.7544440  55.5242976  10.0558112
  69.2551173  55.5347699  10.2650695  84.3310648  62.4729664  10.2220796
  84.5246538  63.3775474  10.4680071  84.2311266  62.0137083  11.0559381
  75.9846958  52.3587554  12.7211124  75.3374873  53.0577504  12.6275600
  76.7547974  52.7923698  13.0887372  79.3925756  62.6236407  15.7961677
  79.2411263  62.3946958  14.8791761  79.3830436  63.5807008  15.8093022
  76.1611093  60.1968319  10.7807943  77.0903153  60.3479479  10.6076911
  75.7402123  60.2852340   9.9256590  74.9599424  64.2218984   8.5506481
  74.8210510  63.8537768   9.4232419  74.1714021  64.7366623   8.3790439
  75.5547576  69.3228080  -0.1067983  75.7299332  68.8516123   0.7077640
  74.8680364  69.9493846   0.1213278  76.5104640  63.6000586   5.9395319
  76.1754472  63.5601356   6.8352969  76.0108585  62.9345302   5.4665729
  70.4848883  59.0068216  11.4647900  70.3468681  58.2748455  12.0659439
  71.3953807  58.9177116  11.1832088  73.1131184  58.7188176  10.9531580
  73.8230803  58.0781368  10.9118198  73.0700492  58.9701071  11.8757760
  81.1017963  65.6555529  13.8738159  81.0430509  64.9714749  13.2068742
  81.5037481  66.3974519  13.4218785  71.8260118  55.7053394  12.7727219
  71.2897475  55.2544132  13.4248815  71.2376827  55.8399302  12.0297683
  70.1208662  72.4717443   6.6671878  70.3605260  73.1035967   7.3450896
  69.2777858  72.1205483   6.9537237  71.2362377  55.1642045  -4.6646317
  70.3591843  55.0430846  -5.0284071  71.7120130  54.3728123  -4.9167429
  81.1035370  63.6195113  12.1052138  80.2162149  63.2821035  12.2278537
  81.6733921  62.8878144  12.3420904  62.7564517  59.9519205   5.4295190
  63.4435557  59.6380935   4.8416205  62.6012646  60.8560569   5.1562441
  67.5599239  54.8409401   9.8580213  67.4757428  54.2335071   9.1230623
  66.7381946  55.3318420   9.8589710  74.6336524  68.2796565   9.0713382
  74.5606695  69.0851537   9.5832686  74.1913917  68.4788531   8.2461403
  74.4226303  67.5168335   2.5816203  73.6393825  68.0590016   2.6754428
  75.1219048  68.0342315   2.9810444  77.7322953  53.3262965   5.2250409
  78.2291653  52.5732927   4.9051479  76.9609935  53.3627281   4.6593618
  85.5852711  59.0303330   6.8668700  85.5742587  59.9128046   6.4962633
  84.7170090  58.6774881   6.6723237  77.0935207  68.1783399  11.2271540
  77.8063179  68.8130864  11.1547442  76.6025236  68.2747265  10.4111542
  78.8152734  62.0834652   2.7988832  77.8809013  62.2036115   2.6293536
  78.9929402  61.1807119   2.5348842  74.3157922  55.4680348   4.9522093
  73.9455710  54.9151388   5.6402999  74.8117014  54.8638481   4.3997093
  82.2025285  57.9251971   3.3338866  82.6685737  58.7579963   3.2599169
  82.6532786  57.4596953   4.0384125  72.1447121  65.9277843  12.0477111
  72.8456580  66.5614326  12.2006505  71.6742236  66.2692574  11.2872750
  80.2701516  64.2695793   0.3325018  80.5461360  64.1552387   1.2418892
  79.4006015  63.8713277   0.2937191  80.1741948  50.2932558   7.3729767
  79.2605028  50.5236785   7.5411974  80.6035049  50.3771002   8.2243800
  79.9448407  58.4822450   9.8729661  79.2919857  58.7298358   9.2182114
  80.3228786  57.6686588   9.5392139  76.9055580  68.5182143   3.9757832
  77.0877975  67.7003799   4.4385584  77.7288566  68.7349836   3.5382722
  77.2397746  67.4450329   1.2372880  77.7685512  66.9342783   0.6243042
  77.5025965  67.1292859   2.1018413  75.9935980  59.2242261  16.3595699
  75.3176617  59.1236391  17.0298074  76.8163613  59.0681475  16.8231696
  67.7414839  65.4614198   8.9808214  68.3268275  64.7157886   9.1136118
  67.5439677  65.7718155   9.8644878  70.5953494  68.4965445   3.9970656
  69.9263869  68.9811573   3.5134696  70.4566364  68.7434666   4.9114035
  62.3332493  58.0319798   7.7012657  62.3716593  57.4983389   8.4949775
  61.8272786  57.5055004   7.0823634  74.7358762  70.5309189  10.5953315
  75.2877070  70.6940810  11.3602400  75.0764956  71.1213627   9.9233339
  69.7123256  52.8784339  11.1975199  69.7764582  53.7399169  10.7852597
  69.6490376  52.2658340  10.4647558  69.1875528  54.9507471  14.8448233
  69.8147567  54.5684548  15.4585758  68.3303447  54.7321673  15.2103926
  79.5869637  65.3570446  16.4501969  80.1309541  65.9700405  15.9556924
  79.0056482  65.9150025  16.9668982  65.9641071  56.7583900   0.7766588
  66.2594512  55.8494579   0.7233642  65.0629107  56.7371640   0.4547591
  77.8727150  68.4791164   7.5816997  77.7478289  67.6780904   7.0727942
  78.5306241  68.9737358   7.0930967  69.4935318  54.8339897   6.7594137
  68.7721904  55.4475865   6.6201610  70.2828574  55.3697662   6.6810783
  79.9362058  66.2800184   9.2096547  78.9892394  66.1605536   9.1374873
  80.2844831  65.3922682   9.2922808  72.2961631  52.1694323  13.0334789
  72.8196033  52.4156620  13.7961098  72.0773965  53.0014358  12.6137926
  67.6928913  54.4397998   0.9005913  67.3641619  53.5595377   0.7181019
  68.0468283  54.3845667   1.7882303  76.9408491  66.0752901   5.4100899
  76.7933454  65.1469608   5.5908469  77.7661985  66.0972991   4.9257974
  70.8070736  54.7270968   1.2681391  71.1466808  55.2556889   0.5459999
  71.2542856  55.0651374   2.0439958  80.5442613  66.8981459   6.4965772
  81.4689161  66.6924321   6.3590223  80.3757917  66.6497861   7.4055113
  73.5014177  53.1108018  10.7184459  73.1610997  52.3115831  11.1205139
  72.7953183  53.4109729  10.1461292  74.1530648  50.1957331   9.1711782
  74.9756718  49.7217809   9.0490673  74.3968712  50.9747815   9.6710468
  72.7938883  53.2245589  -0.5325316  73.5147245  53.6026842  -1.0361599
  72.1704187  53.9434466  -0.4290338  76.9370006  53.9290738   0.4033016
  77.1533620  54.8115376   0.1021844  76.4564073  53.5376952  -0.3261342
  71.6769227  56.8876451   6.9803761  71.5313808  57.2016755   7.8728042
  71.1994431  57.5061352   6.4274659  73.5365610  53.8778999   7.0284650
  73.5227179  52.9820093   6.6916948  74.2538038  53.8849663   7.6622936
  75.3891741  54.3116340   9.0737778  75.1309519  55.2333410   9.0722108
  74.8576781  53.9146774   9.7638242  80.3337929  67.4167127   1.8527863
  80.5074807  66.8513549   1.1001716  80.8266821  68.2168022   1.6707353
  66.1514889  59.4281796   9.9191422  65.6068357  60.2041604  10.0511696
  67.0294239  59.7752600   9.7610543  72.9402506  52.7593380   2.2972221
  73.0618417  51.8310026   2.4963108  72.6504548  52.7732066   1.3850536
  75.8093696  50.4448290   5.4338940  75.8315393  50.5087623   4.4790920
  76.2261755  49.6052799   5.6279447  86.1877321  60.1803550   3.4718163
  86.6308467  59.4310875   3.0737286  85.3103831  60.1713686   3.0891895
  66.9380911  58.5551692  12.8121579  66.1962647  58.7034328  13.3986209
  66.6173655  58.8159958  11.9488328  74.8824574  68.0967670  12.6101969
  75.1911700  67.8516817  13.4824668  75.6800056  68.3014309  12.1220839
  74.9045186  70.2505580   4.8407345  74.4650176  69.7581959   5.5340202
  75.6553303  69.7078548   4.5999421  67.3837525  66.4417121   4.8431973
  68.2095545  66.1420893   4.4630617  67.0331577  65.6724743   5.2921762
  72.3519058  65.7943589   6.9129647  71.7299067  65.1314294   6.6131875
  73.0223925  65.8204721   6.2303295  65.5846130  64.3603447   5.8020907
  64.7478038  63.9325622   5.6204908  65.5569775  64.5535891   6.7391698
  72.4243585  54.2725377  16.5062153  72.4731741  55.1487500  16.1239923
  72.9666100  53.7302770  15.9333796  82.9098431  64.8166500  15.7863290
  82.1193975  64.7990639  15.2467790  82.6731786  65.3554794  16.5412327
  83.0296306  61.6658967  13.0996019  83.0794311  61.5008974  14.0411542
  82.9210230  60.7986226  12.7093900  71.9132565  64.3447512   0.3888108
  72.0620685  65.0282977  -0.2645220  72.7199008  64.3252603   0.9037563
  80.3200069  57.6489895  14.4155325  81.2209931  57.5096360  14.1239323
  80.3948043  57.8144350  15.3553503  74.6542874  55.0256750  13.2608512
  73.7846183  55.3190316  12.9891100  74.8902354  55.6097195  13.9815775
  84.5314503  64.0855908  13.3438040  84.2399311  64.4485889  14.1801501
  83.9186634  63.3722917  13.1651372  85.7310185  61.6508788   5.8640611
  86.5657077  62.0898592   6.0278171  85.8669314  61.1747441   5.0448856
  82.7801691  59.2088523  11.8118098  83.2555813  59.4016169  11.0036950
  81.8567257  59.2647709  11.5661482  69.6685198  60.3712690   1.3949177
  69.4231240  59.4675020   1.5929387  69.8381112  60.3729841   0.4528655
  77.3581908  51.2436366  10.7773932  77.8763852  51.9797393  10.4520421
  77.0037040  51.5500360  11.6120691  68.9380845  56.1041048  -1.1064662
  68.2450090  56.1785403  -1.7624626  68.6932597  55.3401391  -0.5843145
  77.6094502  47.6636649   6.2974829  77.8896256  46.9959838   6.9235255
  78.3945109  47.8565745   5.7849493  81.4803360  56.0854283  10.0446404
  82.4320783  56.1852381  10.0658628  81.3106811  55.2932552  10.5544488
  79.5017740  53.1709866  10.2305805  78.9067672  53.4514879   9.5352293
  79.2167436  53.6603767  11.0022546  83.9591438  59.3060403   9.1588704
  83.9267758  58.3676403   9.3448387  84.5692062  59.3844439   8.4254528
  75.7974769  58.1756456  -4.7984092  76.7433874  58.0462664  -4.7295674
  75.4189014  57.4371118  -4.3214664  84.1085927  56.0971446   9.2046987
  83.5924975  55.3129903   9.0176916  84.9925875  55.7690163   9.3693506
  81.7696653  49.8412462   5.1642799  81.5721475  49.5327550   6.0486131
  82.3796359  50.5674101   5.2940729  89.7767988  60.3676410   8.2994740
  90.5071376  60.1061698   8.8602444  89.1674933  59.6305131   8.3396808
  87.8583285  58.5084272   8.8969192  87.1316449  58.3740237   8.2885683
  87.4430572  58.8161101   9.7025910  75.6813461  62.2274202  16.6616565
  76.6016471  62.4052801  16.8556611  75.6463044  61.2830247  16.5096264
  73.9817686  56.1006432  -4.8629207  73.0749141  55.8039545  -4.7866494
  74.2593667  55.8036250  -5.7294921  64.8995626  57.4212795   5.5869839
  64.5798411  56.5678104   5.2944213  64.3529055  57.6361374   6.3427807
  68.6775534  60.1375236   9.3039346  68.8961544  61.0692344   9.3227380
  69.0901308  59.7783211  10.0894150  75.5979752  50.6443322   1.2915034
  74.7880480  50.2990407   1.6670280  76.2864169  50.3350865   1.8802646
  77.5270300  49.7221369   2.9139331  78.0801339  50.1416822   3.5729354
  77.7640386  48.7957117   2.9562287  73.5503399  55.7108442  18.6942095
  73.4500126  56.6602799  18.6254186  73.3324941  55.3826681  17.8218165
  72.7516471  52.9593367  -4.7217228  73.6135635  53.2848266  -4.4621411
  72.9366815  52.1724863  -5.2344162  64.7683886  61.0415707   7.5562961
  64.0747358  60.6269660   7.0432915  65.5156877  61.0836243   6.9596380
  80.9049107  51.8321894   2.4217995  80.3247776  52.4906698   2.0396047
  80.6385040  51.0099238   2.0105412  79.3552674  51.2326951   4.6239315
  79.8552452  51.3443486   3.8153634  79.9988281  50.9288004   5.2640124
  73.4134669  59.1405581  17.5107156  72.9301751  59.9405941  17.7171045
  73.4995608  59.1513526  16.5574600  66.6820629  60.9733961   5.4328976
  66.6591317  61.0721648   4.4810859  66.9921265  61.8199112   5.7546142
  69.3408007  63.0310116   9.5475590  70.2951260  62.9994058   9.4805522
  69.1420530  62.5700739  10.3625816  69.9307389  61.6011232  12.1146388
  70.7500278  62.0955310  12.1381225  70.2044197  60.6843200  12.0863955
  79.6873985  53.9921984   1.4774343  78.7999840  54.2771635   1.2594538
  80.1027974  53.8315747   0.6301620  83.0388521  54.0168505   5.1928682
  83.8148911  54.5064958   5.4653299  82.3136655  54.4426559   5.6500552
  85.4761080  54.7296124   6.2502623  86.0705571  54.4891860   5.5395931
  85.5487664  54.0103255   6.8776159  67.6958236  68.5729735   6.5645788
  67.5612704  67.8130136   5.9983786  67.2790298  69.2970635   6.0974577
  79.6615009  59.5076520   1.6924633  79.6050210  59.9645071   0.8532266
  80.2143351  58.7467205   1.5147476  83.4719815  55.2966252   2.5174753
  83.2156749  54.8962888   3.3482961  82.8472683  56.0110046   2.3924892
  87.7832153  58.0362325   5.0246044  87.2231711  58.1055514   5.7977606
  87.1775656  57.8603310   4.3045541  70.8527361  69.4699052   6.7764231
  70.7359746  70.4144485   6.6742921  70.0319808  69.1672614   7.1650030
  80.3949788  60.6981301  -1.0122837  80.3398592  60.5325573  -1.9534393
  79.7695843  61.4057334  -0.8560648  65.1842303  55.9349366  12.8138585
  65.8301167  55.4248320  13.3025810  64.9759454  56.6718047  13.3882010
  77.7095695  63.0030213  18.3130725  78.5786855  63.1770865  17.9517360
  77.2302447  63.8224630  18.1906455  73.7045914  50.1989410  -1.4337519
  73.6924583  51.1431250  -1.2769248  74.5969336  50.0159556  -1.7278058
  71.8781876  70.1227314   9.9920159  72.7809122  70.1550924  10.3086654
  71.6519246  69.1927765  10.0066495  73.6335478  68.8758301   6.6530238
  72.6831109  68.8760162   6.5394610  73.9367964  68.1291035   6.1366272
  77.5198033  46.7932187   2.8208418  76.7530429  46.2390674   2.9665100
  77.9308738  46.8654056   3.6822569  69.5239794  53.0816983  16.9113599
  70.3871256  52.7253788  17.1216924  68.9505205  52.7430878  17.5989003
  86.1777877  74.6646267   7.6537525  85.8396389  74.5487332   6.7658060
  87.0467646  74.2637432   7.6338531  86.6597660  75.8181119  13.6123730
  86.6486301  75.4233917  12.7404234  86.8218300  75.0847192  14.2057502
  83.3804922  78.6018231  12.5602914  83.0894788  79.5063862  12.4449581
  84.0161906  78.6434758  13.2746984  84.3061128  75.9795079   9.1504274
  84.9024701  75.7551102   8.4361237  84.3636100  75.2379825   9.7529722
  91.8463287  66.0867100  10.1556795  91.5146612  66.9562511   9.9318010
  91.2508900  65.7703384  10.8350826  81.7907288  74.7393443   5.5889412
  80.8657785  74.6069657   5.7967104  82.0391701  75.5187662   6.0859355
  91.7391950  70.8062186   7.2350145  90.8308828  70.7377595   6.9408906
  91.6879546  71.2834131   8.0631971  79.1516099  74.3826717   6.4233201
  79.2808480  74.6361196   7.3372613  78.4713550  74.9754425   6.1037856
  85.8132816  72.2251832  15.1785043  85.0366150  72.7845752  15.1687907
  86.4523379  72.7108615  15.6999913  93.6053597  69.0078625   9.0128019
  92.9627977  69.3011158   8.3667814  93.1008525  68.8931545   9.8181216
  84.0679188  75.0337285  14.7403010  84.8093873  75.5722329  14.4637833
  83.3616174  75.6603574  14.8974561  89.5434528  77.1766426  13.3375171
  89.9517884  76.7348836  12.5929803  88.8211790  76.6019053  13.5909364
  85.8965598  72.1139033  10.7108728  86.7426793  72.5378446  10.8543377
  85.8364236  71.4572657  11.4047291  89.0465044  69.7743401  12.3689902
  88.8025975  70.5285461  11.8324177  89.3224974  70.1528749  13.2037149
  91.0003506  76.3182013  11.0467167  91.2120402  76.9613773  10.3701548
  90.9533255  75.4844330  10.5789097  88.6029735  68.9299834   7.9503739
  87.7414214  69.2281088   8.2420477  88.6292170  69.1470233   7.0184772
  82.8040552  72.1876934  15.5418320  82.1739213  72.8693214  15.7753716
  82.6976640  72.0760015  14.5971458  78.0985525  71.8548730   6.4684244
  77.3084579  72.1106258   5.9924354  78.5896772  72.6697067   6.5736284
  85.8805938  78.7438012  11.3750235  85.9450370  79.2058419  12.2108407
  85.1716862  78.1135377  11.5032545  76.3823228  72.1079220   8.8999234
  76.6331266  72.9926230   9.1656810  76.9182776  71.9283822   8.1274326
  82.0821295  66.4897699  17.9043571  81.6888241  65.9363898  18.5791215
  82.8987435  66.8008278  18.2950088  84.9989256  67.9055578  15.4963827
  85.7398969  68.5062732  15.4168290  85.2307179  67.1633216  14.9381870
  80.1430594  73.0911946  13.7742057  80.0284109  72.1897203  14.0749156
  79.2875112  73.3375642  13.4226873  87.2222432  81.0329686  15.3729557
  86.7786286  80.2466065  15.0550462  87.8839645  81.2208837  14.7073448
  89.3203670  81.3132486  13.4010959  89.3022145  82.1341367  12.9091228
  90.2423590  81.1886561  13.6261100  85.7776724  78.8276615  14.2434467
  86.3105061  78.0664904  14.0133775  85.2490805  78.5350267  14.9858622
  88.9446419  63.9336681   9.7728109  88.6010688  64.8238323   9.6967219
  89.3125381  63.7438339   8.9097694  88.0242959  66.3041337   7.7377342
  87.5207755  66.2671472   6.9245147  88.3173566  67.2134079   7.7973999
  84.2685845  66.3880066   6.7443524  85.1338842  66.1922875   6.3849413
  84.3363354  66.1590418   7.6712881  81.8748164  68.6182274   4.1159891
  82.4491916  68.3957456   3.3833084  82.4619147  68.6870969   4.8688492
  84.1770832  65.4923523   2.8434960  83.5235244  65.1772540   2.2191575
  84.1351306  64.8699264   3.5694783  87.4108572  71.9805457   7.1682608
  86.4931134  72.2020404   7.0104296  87.8268716  72.0551767   6.3094315
  90.7434085  63.1930241   4.8745846  91.0492961  62.3327604   4.5871762
  91.4686689  63.7847861   4.6744840  77.0358441  73.5960927   3.2627444
  76.8382840  73.0030288   2.5378511  76.4805105  73.2913137   3.9803383
  88.5521736  72.5702918  11.9727310  88.9071124  72.7974391  12.8321776
  89.1993867  72.9021295  11.3504566  82.4461599  69.6779449   8.7573651
  83.0860978  69.5368208   8.0596615  81.6139130  69.3913962   8.3812253
  79.4490215  69.6479774   3.5346638  79.7097033  70.5625107   3.4255799
  80.2707388  69.1804216   3.6843251  80.9215141  71.0617531  10.7045463
  81.5938194  70.8534893  10.0558112  80.0944927  70.8639617  10.2650695
  86.8240713  67.6879472  12.7211124  86.1768628  68.3869422  12.6275600
  87.5941728  68.1215616  13.0887372  90.2319511  77.9528324  15.7961677
  90.0805017  77.7238876  14.8791761  90.2224190  78.9098926  15.8093022
  87.0004847  75.5260237  10.7807943  87.9296907  75.6771397  10.6076911
  86.5795877  75.6144258   9.9256590  81.3242638  74.3360134  11.4647900
  81.1862436  73.6040373  12.0659439  82.2347561  74.2469034  11.1832088
  83.9524939  74.0480093  10.9531580  84.6624557  73.4073286  10.9118198
  83.9094247  74.2992988  11.8757760  82.6653873  71.0345311  12.7727219
  82.1291230  70.5836050  13.4248815  82.0770581  71.1691220  12.0297683
  91.9429125  78.9487031  12.1052138  91.0555903  78.6112952  12.2278537
  92.5127676  78.2170062  12.3420904  73.5958272  75.2811122   5.4295190
  74.2829312  74.9672852   4.8416205  73.4406400  76.1852487   5.1562441
  78.3992994  70.1701319   9.8580213  78.3151183  69.5626989   9.1230623
  77.5775700  70.6610337   9.8589710  88.5716708  68.6554883   5.2250409
  89.0685407  67.9024845   4.9051479  87.8003689  68.6919199   4.6593618
  85.1551676  70.7972265   4.9522093  84.7849464  70.2443306   5.6402999
  85.6510769  70.1930399   4.3997093  82.9840875  81.2569761  12.0477111
  83.6850335  81.8906243  12.2006505  82.5135990  81.5984492  11.2872750
  91.0135703  65.6224476   7.3729767  90.0998782  65.8528703   7.5411974
  91.4428804  65.7062920   8.2243800  90.7842161  73.8114368   9.8729661
  90.1313611  74.0590275   9.2182114  91.1622541  72.9978506   9.5392139
  86.8329734  74.5534179  16.3595699  86.1570371  74.4528308  17.0298074
  87.6557368  74.3973393  16.8231696  78.5808593  80.7906116   8.9808214
  79.1662030  80.0449803   9.1136118  78.3833432  81.1010072   9.8644878
  73.1726248  73.3611716   7.7012657  73.2110347  72.8275306   8.4949775
  72.6666541  72.8346921   7.0823634  80.5517010  68.2076256  11.1975199
  80.6158337  69.0691087  10.7852597  80.4884130  67.5950258  10.4647558
  80.0269283  70.2799389  14.8448233  80.6541321  69.8976466  15.4585758
  79.1697202  70.0613591  15.2103926  90.4263391  80.6862364  16.4501969
  90.9703295  81.2992322  15.9556924  89.8450236  81.2441942  16.9668982
  80.3329072  70.1631814   6.7594137  79.6115658  70.7767782   6.6201610
  81.1222328  70.6989579   6.6810783  83.1355386  67.4986241  13.0334789
  83.6589788  67.7448538  13.7961098  82.9167719  68.3306276  12.6137926
  84.3407931  68.4399936  10.7184459  84.0004751  67.6407749  11.1205139
  83.6346937  68.7401647  10.1461292  84.9924403  65.5249249   9.1711782
  85.8150472  65.0509727   9.0490673  85.2362466  66.3039732   9.6710468
  82.5162982  72.2168369   6.9803761  82.3707562  72.5308672   7.8728042
  82.0388185  72.8353269   6.4274659  84.3759364  69.2070917   7.0284650
  84.3620933  68.3112010   6.6916948  85.0931793  69.2141581   7.6622936
  86.2285495  69.6408257   9.0737778  85.9703273  70.5625328   9.0722108
  85.6970536  69.2438692   9.7638242  76.9908644  74.7573714   9.9191422
  76.4462112  75.5333522  10.0511696  77.8687994  75.1044518   9.7610543
  86.6487451  65.7740208   5.4338940  86.6709148  65.8379541   4.4790920
  87.0655510  64.9344717   5.6279447  77.7774666  73.8843610  12.8121579
  77.0356402  74.0326245  13.3986209  77.4567410  74.1451875  11.9488328
  83.2637340  69.6017295  16.5062153  83.3125495  70.4779418  16.1239923
  83.8059854  69.0594688  15.9333796  93.7492186  80.1458418  15.7863290
  92.9587729  80.1282557  15.2467790  93.5125540  80.6846712  16.5412327
  93.8690061  76.9950884  13.0996019  93.9188066  76.8300892  14.0411542
  93.7603984  76.1278143  12.7093900  91.1593823  72.9781812  14.4155325
  92.0603686  72.8388277  14.1239323  91.2341798  73.1436267  15.3553503
  85.4936628  70.3548667  13.2608512  84.6239938  70.6482233  12.9891100
  85.7296109  70.9389112  13.9815775  93.6195446  74.5380441  11.8118098
  94.0949567  74.7308087  11.0036950  92.6961011  74.5939626  11.5661482
  88.1975662  66.5728284  10.7773932  88.7157606  67.3089311  10.4520421
  87.8430795  66.8792277  11.6120691  88.4488256  62.9928567   6.2974829
  88.7290010  62.3251756   6.9235255  89.2338863  63.1857662   5.7849493
  92.3197115  71.4146201  10.0446404  93.2714538  71.5144298  10.0658628
  92.1500565  70.6224469  10.5544488  90.3411494  68.5001784  10.2305805
  89.7461426  68.7806797   9.5352293  90.0561191  68.9895685  11.0022546
  94.9479681  71.4263364   9.2046987  94.4318730  70.6421820   9.0176916
  95.8319630  71.0982080   9.3693506  92.6090408  65.1704379   5.1642799
  92.4115229  64.8619468   6.0486131  93.2190113  65.8966018   5.2940729
  86.5207216  77.5566119  16.6616565  87.4410225  77.7344718  16.8556611
  86.4856799  76.6122165  16.5096264  75.7389381  72.7504713   5.5869839
  75.4192165  71.8970021   5.2944213  75.1922809  72.9653291   6.3427807
  79.5169288  75.4667154   9.3039346  79.7355298  76.3984262   9.3227380
  79.9295062  75.1075129  10.0894150  88.3664055  65.0513286   2.9139331
  88.9195093  65.4708740   3.5729354  88.6034141  64.1249034   2.9562287
  84.3897154  71.0400360  18.6942095  84.2893881  71.9894717  18.6254186
  84.1718696  70.7118599  17.8218165  75.6077641  76.3707625   7.5562961
  74.9141112  75.9561577   7.0432915  76.3550632  76.4128161   6.9596380
  84.2528424  74.4697499  17.5107156  83.7695506  75.2697859  17.7171045
  84.3389363  74.4805444  16.5574600  77.5214383  76.3025878   5.4328976
  77.4985072  76.4013566   4.4810859  77.8315020  77.1491029   5.7546142
  80.1801761  78.3602033   9.5475590  81.1345015  78.3285976   9.4805522
  79.9814285  77.8992657  10.3625816  80.7701143  76.9303149  12.1146388
  81.5894032  77.4247228  12.1381225  81.0437951  76.0135118  12.0863955
  76.0236058  71.2641283  12.8138585  76.6694921  70.7540237  13.3025810
  75.8153209  72.0009965  13.3882010  88.5489450  78.3322131  18.3130725
  89.4180610  78.5062783  17.9517360  88.0696201  79.1516548  18.1906455
  88.3591788  62.1224105   2.8208418  87.5924183  61.5682591   2.9665100
  88.7702493  62.1945973   3.6822569  80.3633549  68.4108900  16.9113599
  81.2265010  68.0545705  17.1216924  79.7898959  68.0722795  17.5989003
  92.9215049  81.8189617  17.9043571  92.5281995  81.2655816  18.5791215
  93.7381190  82.1300196  18.2950088  95.2290908  86.3692278  18.6942095
  95.1287635  87.3186635  18.6254186  95.0112450  86.0410516  17.8218165
  91.2027303  83.7400818  16.9113599  92.0658765  83.3837623  17.1216924
  90.6292714  83.4014713  17.5989003  68.7475884  27.0340651   3.1747276
  69.2915787  27.6470609   2.6802230  68.1662728  27.5920230   3.6914289
  72.0704678  26.4936705   2.5108597  71.2800222  26.4760844   1.9713096
  71.8338032  27.0324999   3.2657633  66.8701942  24.6800418   5.0376032
  67.7393102  24.8541070   4.6762667  66.3908694  25.4994835   4.9151761
  78.5294418  36.3889044  -5.5578693  79.1672828  36.2695791  -6.2615353
  78.4115261  37.3369888  -5.4990741  75.8203907  37.4951324   0.3369037
  75.8092548  37.1004122  -0.5350459  75.9824547  36.7617396   0.9302808
  72.5411168  40.2788436  -0.7151779  72.2501034  41.1834066  -0.8305113
  73.1768153  40.3204963  -0.0007710  73.4667375  37.6565284  -4.1250419
  74.0630947  37.4321307  -4.8393457  73.5242347  36.9150030  -3.5224972
  77.5001053  39.9649851  -3.7201985  77.2001776  40.8674890  -3.8286178
  77.1552113  39.6982034  -2.8680833  72.4821833  46.7294171 -10.7531018
  72.4045863  47.6801997 -10.6742537  71.8783477  46.3840044 -10.0956091
  74.9739063  33.9022037   1.9030349  74.1972397  34.4615957   1.8933214
  75.6129626  34.3878820   2.4245219  73.2285435  36.7107490   1.4648316
  73.9700120  37.2492534   1.1883140  72.5222421  37.3373779   1.6219868
  78.7040775  38.8536631   0.0620478  79.1124131  38.4119041  -0.6824890
  77.9818036  38.2789258   0.3154671  75.0571845  33.7909238  -2.5645965
  75.9033040  34.2148651  -2.4211316  74.9970483  33.1342862  -1.8707402
  79.0269590  39.4137821  -6.1827233  78.3978452  39.5783535  -6.8851166
  78.6395252  39.8279431  -5.4116269  78.2071290  31.4513606  -0.9064792
  77.9632222  32.2055666  -1.4430516  78.4831221  31.8298953  -0.0717545
  80.1609753  37.9952218  -2.2287526  80.3726648  38.6383978  -2.9053145
  80.1139501  37.1614535  -2.6965596  71.9646799  33.8647138   2.2663626
  71.3345460  34.5463419   2.4999023  71.8582887  33.7530220   1.3216764
  81.2755581  40.8724174  -4.0565169  82.0973025  40.4704361  -4.3382487
  81.2717984  40.7692408  -3.1049053  75.0412184  40.4208217  -1.9004458
  75.1056617  40.8828624  -1.0646287  74.3323108  39.7905582  -1.7722149
  71.2427542  28.1667904   4.6288877  70.8494487  27.6134103   5.3036521
  72.0593682  28.4778483   5.0195395  74.1595503  29.5825783   2.2209134
  74.9005216  30.1832937   2.1413596  74.3913426  28.8403421   1.6627176
  69.3036841  34.7682151   0.4987363  69.1890356  33.8667408   0.7994462
  68.4481358  35.0145847   0.1472180  76.3828678  42.7099891   2.0974864
  75.9392533  41.9236270   1.7795769  77.0445892  42.8979041   1.4318755
  71.1415800  44.2395693  -3.3764457  71.6923225  44.1112756  -4.1487463
  70.3027276  44.5390582  -3.7269565  78.4809917  42.9902691   0.1256265
  78.4628392  43.8111572  -0.3663466  79.4029837  42.8656766   0.3506406
  74.9382971  40.5046820   0.9679774  75.4711307  39.7435109   0.7379082
  74.4097052  40.2120472   1.7103928  79.3028724  43.0008704  -9.2901465
  79.5951698  43.5613761 -10.0089100  79.8127344  43.2937265  -8.5348306
  74.2662349  43.7789055  -8.2008012  74.2238528  44.0049902  -9.1299480
  75.1825048  43.5452430  -8.0522211  77.7127983  34.2473123  -1.3027383
  78.0677370  34.4744596  -0.4432917  78.3600114  34.5791500  -1.9250128
  77.2022994  43.0370180  -4.0533682  77.2560016  43.6061116  -3.2855966
  76.3337775  43.2072065  -4.4179645  84.3310649  39.4791786  -3.0533897
  84.5246539  40.3837597  -2.8074622  84.2311267  39.0199205  -2.2195312
  75.9846960  29.3649677  -0.5543570  75.3374875  30.0639627  -0.6479093
  76.7547975  29.7985821  -0.1867322  79.3925757  39.6298529   2.5206983
  79.2411264  39.4009081   1.6037067  79.3830437  40.5869131   2.5338329
  76.1611094  37.2030442  -2.4946750  77.0903154  37.3541601  -2.6677783
  75.7402124  37.2914463  -3.3498104  74.9599426  41.2281106  -4.7248212
  74.8210511  40.8599891  -3.8522274  74.1714022  41.7428746  -4.8964255
  76.5104641  40.6062709  -7.3359375  76.1754473  40.5663479  -6.4401725
  76.0108586  39.9407425  -7.8088964  70.4848885  36.0130339  -1.8106793
  70.3468683  35.2810578  -1.2095254  71.3953808  35.9239239  -2.0922606
  73.1131185  35.7250298  -2.3223114  73.8230804  35.0843491  -2.3636495
  73.0700494  35.9763193  -1.3996933  81.1017964  42.6617652   0.5983465
  81.0430510  41.9776872  -0.0685952  81.5037482  43.4036642   0.1464091
  71.8260119  32.7115516  -0.5027474  71.2897476  32.2606255   0.1494122
  71.2376828  32.8461425  -1.2457010  70.1208663  49.4779565  -6.6082816
  70.3605261  50.1098090  -5.9303797  69.2777859  49.1267606  -6.3217456
  81.1035371  40.6257236  -1.1702555  80.2162150  40.2883157  -1.0476156
  81.6733922  39.8940267  -0.9333790  74.6336525  45.2858688  -4.2041312
  74.5606696  46.0913659  -3.6922007  74.1913918  45.4850654  -5.0293290
  77.0935208  45.1845522  -2.0483153  77.8063180  45.8192987  -2.1207252
  76.6025237  45.2809388  -2.8643151  72.1447122  42.9339965  -1.2277582
  72.8456581  43.5676448  -1.0748188  71.6742237  43.2754697  -1.9881943
  79.9448408  35.4884573  -3.4025032  79.2919858  35.7360480  -4.0572579
  80.3228788  34.6748711  -3.7362555  76.9055582  45.5244266  -9.2996862
  77.0877976  44.7065922  -8.8369109  77.7288568  45.7411958  -9.7371972
  75.9935981  36.2304384   3.0841005  75.3176618  36.1298513   3.7543380
  76.8163615  36.0743598   3.5477002  67.7414840  42.4676320  -4.2946480
  68.3268277  41.7220008  -4.1618575  67.5439678  42.7780277  -3.4109816
  74.7358764  47.5371311  -2.6801379  75.2877072  47.7002933  -1.9152294
  75.0764957  48.1275749  -3.3521354  69.1875529  31.9569594   1.5693540
  69.8147568  31.5746671   2.1831064  68.3303448  31.7383796   1.9349233
  79.5869638  42.3632569   3.1747276  80.1309542  42.9762527   2.6802230
  79.0056483  42.9212147   3.6914289  77.8727151  45.4853287  -5.6937697
  77.7478290  44.6843027  -6.2026751  78.5306242  45.9799480  -6.1823727
  79.9362059  43.2862307  -4.0658147  78.9892395  43.1667658  -4.1379820
  80.2844832  42.3984805  -3.9831885  72.2961633  29.1756446  -0.2419905
  72.8196035  29.4218742   0.5206405  72.0773966  30.0076481  -0.6616767
  76.9408493  43.0815023  -7.8653794  76.7933455  42.1531731  -7.6846224
  77.7661986  43.1035114  -8.3496719  80.5442614  43.9043582  -6.7788922
  81.4689162  43.6986443  -6.9164470  80.3757918  43.6559983  -5.8699580
  66.9380912  35.5613815  -0.4633115  66.1962648  35.7096450   0.1231516
  66.6173657  35.8222080  -1.3266365  74.8824575  45.1029793  -0.6652724
  75.1911701  44.8578940   0.2069975  75.6800057  45.3076431  -1.1533854
  74.9045187  47.2567703  -8.4347348  74.4650177  46.7644081  -7.7414491
  75.6553304  46.7140670  -8.6755273  72.3519059  42.8005712  -6.3625046
  71.7299068  42.1376417  -6.6622818  73.0223926  42.8266844  -7.0451398
  72.4243587  31.2787500   3.2307460  72.4731742  32.1549623   2.8485229
  72.9666101  30.7364893   2.6579103  82.9098432  41.8228623   2.5108597
  82.1193976  41.8052762   1.9713096  82.6731787  42.3616917   3.2657633
  83.0296307  38.6721089  -0.1758675  83.0794312  38.5071097   0.7656848
  82.9210231  37.8048348  -0.5660794  80.3200070  34.6552017   1.1400632
  81.2209933  34.5158482   0.8484630  80.3948044  34.8206472   2.0798810
  74.6542875  32.0318872  -0.0146182  73.7846185  32.3252438  -0.2863593
  74.8902355  32.6159317   0.7061082  84.5314504  41.0918031   0.0683347
  84.2399313  41.4548011   0.9046808  83.9186636  40.3785039  -0.1103321
  82.7801692  36.2150645  -1.4636595  83.2555814  36.4078292  -2.2717744
  81.8567258  36.2709831  -1.7093211  79.5017741  30.1771989  -3.0448889
  78.9067673  30.4577002  -3.7402400  79.2167438  30.6665890  -2.2732147
  75.6813463  39.2336324   3.3861871  76.6016472  39.4114923   3.5801918
  75.6463046  38.2892370   3.2341570  73.5503401  32.7170565   5.4187401
  73.4500127  33.6664922   5.3499492  73.3324943  32.3888804   4.5463471
  73.4134671  36.1467704   4.2352463  72.9301752  36.9468064   4.4416352
  73.4995610  36.1575648   3.2819907  69.3408008  40.0372238  -3.7279103
  70.2951262  40.0056181  -3.7949172  69.1420532  39.5762862  -2.9128877
  69.9307390  38.6073354  -1.1608306  70.7500279  39.1017433  -1.1373468
  70.2044198  37.6905323  -1.1890738  67.6958237  45.5791858  -6.7108905
  67.5612705  44.8192259  -7.2770907  67.2790299  46.3032758  -7.1780117
  70.8527363  46.4761175  -6.4990463  70.7359747  47.4206607  -6.6011773
  70.0319809  46.1734736  -6.1104664  77.7095697  40.0092336   5.0376032
  78.5786856  40.1832988   4.6762667  77.2302448  40.8286753   4.9151761
  71.8781877  47.1289437  -3.2834534  72.7809124  47.1613047  -2.9668039
  71.6519247  46.1989888  -3.2688199  73.6335479  45.8820423  -6.6224456
  72.6831110  45.8822285  -6.7360083  73.9367965  45.1353158  -7.1388421
  69.5239795  30.0879105   3.6358906  70.3871257  29.7315910   3.8462230
  68.9505206  29.7493000   4.3234310  86.1777879  51.6708390  -5.6217169
  85.8396390  51.5549454  -6.5096634  87.0467647  51.2699555  -5.6416163
  86.6597662  52.8243242   0.3369037  86.6486302  52.4296040  -0.5350459
  86.8218301  52.0909314   0.9302808  83.3804923  55.6080353  -0.7151779
  83.0894789  56.5125984  -0.8305113  84.0161907  55.6496881  -0.0007710
  84.3061130  52.9857202  -4.1250419  84.9024702  52.7613224  -4.8393457
  84.3636101  52.2441947  -3.5224972  81.7907289  51.7455566  -7.6865281
  80.8657786  51.6131780  -7.4787589  82.0391703  52.5249785  -7.1895339
  79.1516100  51.3888839  -6.8521492  79.2808482  51.6423318  -5.9382080
  78.4713552  51.9816547  -7.1716837  85.8132817  49.2313955   1.9030349
  85.0366152  49.7907875   1.8933214  86.4523380  49.7170738   2.4245219
  84.0679190  52.0399408   1.4648316  84.8093874  52.5784452   1.1883140
  83.3616175  52.6665697   1.6219868  89.5434529  54.1828548   0.0620478
  89.9517885  53.7410959  -0.6824890  88.8211791  53.6081176   0.3154671
  85.8965599  49.1201155  -2.5645965  86.7426795  49.5440569  -2.4211316
  85.8364237  48.4634780  -1.8707402  89.0465045  46.7805524  -0.9064792
  88.8025977  47.5347584  -1.4430516  89.3224975  47.1590871  -0.0717545
  91.0003508  53.3244136  -2.2287526  91.2120403  53.9675896  -2.9053145
  90.9533256  52.4906452  -2.6965596  82.8040553  49.1939056   2.2663626
  82.1739214  49.8755337   2.4999023  82.6976641  49.0822138   1.3216764
  78.0985526  48.8610852  -6.8070450  77.3084580  49.1168381  -7.2830339
  78.5896773  49.6759190  -6.7018409  85.8805939  55.7500135  -1.9004458
  85.9450371  56.2120542  -1.0646287  85.1716863  55.1197500  -1.7722149
  76.3823229  49.1141343  -4.3755459  76.6331267  49.9988353  -4.1097883
  76.9182777  48.9345944  -5.1480367  82.0821296  43.4959822   4.6288877
  81.6888242  42.9426021   5.3036521  82.8987437  43.8070400   5.0195395
  84.9989257  44.9117701   2.2209134  85.7398971  45.5124854   2.1413596
  85.2307180  44.1695339   1.6627176  80.1430595  50.0974068   0.4987363
  80.0284110  49.1959326   0.7994462  79.2875113  50.3437765   0.1472180
  87.2222433  58.0391809   2.0974864  86.7786287  57.2528187   1.7795769
  87.8839647  58.2270959   1.4318755  89.3203671  58.3194609   0.1256265
  89.3022146  59.1403490  -0.3663466  90.2423591  58.1948684   0.3506406
  85.7776725  55.8338738   0.9679774  86.3105062  55.0727026   0.7379082
  85.2490806  55.5412390   1.7103928  87.4108574  48.9867579  -6.1072086
  86.4931135  49.2082526  -6.2650398  87.8268717  49.0613890  -6.9660378
  77.0358442  50.6023050 -10.0127249  76.8382842  50.0092410 -10.7376182
  76.4805106  50.2975260  -9.2951310  88.5521737  49.5765040  -1.3027383
  88.9071125  49.8036514  -0.4432917  89.1993868  49.9083417  -1.9250128
  82.4461600  46.6841572  -4.5181042  83.0860980  46.5430331  -5.2158079
  81.6139131  46.3976085  -4.8942440  79.4490217  46.6541897  -9.7408055
  79.7097034  47.5687230  -9.8498895  80.2707389  46.1866339  -9.5911442
  80.9215142  48.0679654  -2.5709231  81.5938195  47.8597016  -3.2196582
  80.0944929  47.8701740  -3.0103998  86.8240714  44.6941595  -0.5543570
  86.1768629  45.3931544  -0.6479093  87.5941729  45.1277739  -0.1867322
  90.2319512  54.9590447   2.5206983  90.0805018  54.7300998   1.6037067
  90.2224191  55.9161048   2.5338329  87.0004848  52.5322360  -2.4946750
  87.9296908  52.6833519  -2.6677783  86.5795878  52.6206380  -3.3498104
  81.3242639  51.3422257  -1.8106793  81.1862437  50.6102495  -1.2095254
  82.2347563  51.2531157  -2.0922606  83.9524940  51.0542216  -2.3223114
  84.6624558  50.4135408  -2.3636495  83.9094248  51.3055111  -1.3996933
  82.6653874  48.0407434  -0.5027474  82.1291231  47.5898172   0.1494122
  82.0770582  48.1753343  -1.2457010  91.9429126  55.9549153  -1.1702555
  91.0555905  55.6175075  -1.0476156  92.5127677  55.2232184  -0.9333790
  73.5958273  52.2873245  -7.8459504  74.2829313  51.9734975  -8.4338488
  73.4406402  53.1914610  -8.1192252  78.3992995  47.1763442  -3.4174480
  78.3151184  46.5689111  -4.1524070  77.5775702  47.6672460  -3.4164984
  82.9840876  58.2631883  -1.2277582  83.6850336  58.8968366  -1.0748188
  82.5135991  58.6046615  -1.9881943  90.7842162  50.8176491  -3.4025032
  90.1313613  51.0652398  -4.0572579  91.1622542  50.0040629  -3.7362555
  86.8329735  51.5596302   3.0841005  86.1570372  51.4590431   3.7543380
  87.6557369  51.4035515   3.5477002  78.5808594  57.7968238  -4.2946480
  79.1662031  57.0511926  -4.1618575  78.3833433  58.1072195  -3.4109816
  73.1726249  50.3673838  -5.5742036  73.2110349  49.8337429  -4.7804918
  72.6666542  49.8409044  -6.1931059  80.5517011  45.2138379  -2.0779494
  80.6158338  46.0753210  -2.4902096  80.4884132  44.6012381  -2.8107136
  80.0269284  47.2861511   1.5693540  80.6541323  46.9038589   2.1831064
  79.1697203  47.0675713   1.9349233  90.4263392  57.6924487   3.1747276
  90.9703296  58.3054445   2.6802230  89.8450237  58.2504065   3.6914289
  80.3329074  47.1693937  -6.5160556  79.6115659  47.7829905  -6.6553083
  81.1222329  47.7051702  -6.5943911  83.1355387  44.5048364  -0.2419905
  83.6589789  44.7510660   0.5206405  82.9167720  45.3368398  -0.6616767
  84.3407932  45.4462059  -2.5570234  84.0004753  44.6469872  -2.1549554
  83.6346939  45.7463770  -3.1293401  84.9924404  42.5311371  -4.1042911
  85.8150473  42.0571849  -4.2264021  85.2362468  43.3101855  -3.6044225
  82.5162983  49.2230492  -6.2950933  82.3707564  49.5370795  -5.4026651
  82.0388186  49.8415392  -6.8480034  84.3759366  46.2133040  -6.2470043
  84.3620934  45.3174133  -6.5837745  85.0931794  46.2203703  -5.6131757
  86.2285496  46.6470380  -4.2016916  85.9703274  47.5687451  -4.2032585
  85.6970537  46.2500814  -3.5116451  76.9908645  51.7635836  -3.3563271
  76.4462113  52.5395644  -3.2242997  77.8687995  52.1106641  -3.5144150
  77.7774667  50.8905732  -0.4633115  77.0356403  51.0388368   0.1231516
  77.4567411  51.1513998  -1.3266365  83.2637341  46.6079417   3.2307460
  83.3125497  47.4841540   2.8485229  83.8059855  46.0656810   2.6579103
  93.7492187  57.1520541   2.5108597  92.9587731  57.1344679   1.9713096
  93.5125541  57.6908834   3.2657633  93.8690062  54.0013007  -0.1758675
  93.9188067  53.8363014   0.7656848  93.7603985  53.1340266  -0.5660794
  91.1593824  49.9843935   1.1400632  92.0603687  49.8450400   0.8484630
  91.2341799  50.1498390   2.0798810  85.4936630  47.3610790  -0.0146182
  84.6239939  47.6544356  -0.2863593  85.7296110  47.9451235   0.7061082
  93.6195447  51.5442563  -1.4636595  94.0949569  51.7370209  -2.2717744
  92.6961012  51.6001749  -1.7093211  88.1975663  43.5790407  -2.4980761
  88.7157607  44.3151434  -2.8234273  87.8430796  43.8854400  -1.6634002
  90.3411495  45.5063906  -3.0448889  89.7461428  45.7868919  -3.7402400
  90.0561192  45.9957807  -2.2732147  86.5207217  54.5628242   3.3861871
  87.4410227  54.7406841   3.5801918  86.4856800  53.6184287   3.2341570
  75.7389382  49.7566836  -7.6884854  75.4192167  48.9032144  -7.9810480
  75.1922810  49.9715414  -6.9326887  79.5169290  52.4729277  -3.9715348
  79.7355299  53.4046385  -3.9527314  79.9295064  52.1137251  -3.1860544
  84.3897155  48.0462482   5.4187401  84.2893882  48.9956839   5.3499492
  84.1718697  47.7180721   4.5463471  75.6077642  53.3769747  -5.7191733
  74.9141114  52.9623700  -6.2321778  76.3550633  53.4190284  -6.3158314
  84.2528425  51.4759621   4.2352463  83.7695507  52.2759981   4.4416352
  84.3389364  51.4867566   3.2819907  77.5214385  53.3088001  -7.8425718
  77.4985073  53.4075688  -8.7943835  77.8315021  54.1553152  -7.5208552
  80.1801763  55.3664156  -3.7279103  81.1345016  55.3348098  -3.7949172
  79.9814286  54.9054780  -2.9128877  80.7701145  53.9365272  -1.1608306
  81.5894034  54.4309351  -1.1373468  81.0437952  53.0197240  -1.1890738
  76.0236059  48.2703406  -0.4616109  76.6694923  47.7602360   0.0271117
  75.8153210  49.0072088   0.1127317  88.5489451  55.3384253   5.0376032
  89.4180611  55.5124906   4.6762667  88.0696203  56.1578670   4.9151761
  80.3633550  45.4171023   3.6358906  81.2265011  45.0607828   3.8462230
  79.7898961  45.0784918   4.3234310  92.9215051  58.8251740   4.6288877
  92.5281996  58.2717938   5.3036521  93.7381191  59.1362318   5.0195395
  95.2290910  63.3754400   5.4187401  95.1287636  64.3248757   5.3499492
  95.0112452  63.0472639   4.5463471  91.2027304  60.7462941   3.6358906
  92.0658766  60.3899746   3.8462230  90.6292715  60.4076835   4.3234310
   2.6511531  98.5330598  71.9447960   1.8975239  97.9637996  71.7891964
   2.7859072  98.4993263  72.8918594   3.0617946  98.6906208  74.6768204
   3.7921334  98.4291496  75.2375907   2.4524891  97.9534930  74.7170272
   1.1433243  96.8314071  75.2742655   0.4166406  96.6970036  74.6659147
   0.7280530  97.1390899  76.0799373   1.0682110  96.3592124  71.4019508
   0.5081668  96.4285313  72.1751070   0.4625614  96.1833108  70.6819004
   4.0284042 101.5160039  71.2519310   4.3342919 100.6557403  70.9645225
   4.7536647 102.1077659  71.0518304   1.7338214 101.3158365  72.6748292
   2.0139968 100.6481554  73.3008719   2.5188821 101.5087461  72.1622956
   1.6441745 100.4453903  69.1981882   0.8774141  99.8912390  69.3438564
   2.0552450 100.5175772  70.0596033   2.6511532  75.5392721  58.6693266
   1.8975240  74.9700119  58.5137271   2.7859073  75.5055385  59.6163901
   3.0617947  75.6968331  61.4013511   3.7921335  75.4353619  61.9621214
   2.4524892  74.9597053  61.4415579   1.1433244  73.8376193  61.9987962
   0.4166408  73.7032158  61.3904453   0.7280531  74.1453022  62.8044680
   1.0682112  73.3654246  58.1264815   0.5081670  73.4347436  58.8996377
   0.4625615  73.1895231  57.4064311   2.6538130  90.0410760  60.8194770
   3.2916540  89.9217508  60.1158110   2.5358973  90.9891604  60.8782723
   2.2079399  87.7662214  57.8947978   2.9942488  87.3481637  57.5438395
   2.4718103  88.6708306  58.0629627   2.3789476  93.2035064  52.5936635
   1.7435309  93.2769691  53.3057540   2.0486882  93.7928663  51.9155714
   7.6087826  87.7037447  58.7980957   8.3412998  87.1336664  59.0318786
   6.8527181  87.3159048  59.2387463   5.1313246  81.4159021  63.2575566
   4.7996571  82.2854432  63.0336781   4.5358860  81.0995305  63.9369596
   1.6244766  93.6171567  62.6571478   1.3245489  94.5196606  62.5487286
   1.2795825  93.3503751  63.5092631   5.0241909  86.1354108  60.3368916
   4.1158787  86.0669516  60.0427677   4.9729505  86.6126053  61.1650741
   6.8903556  84.3370546  62.1146790   6.2477936  84.6303079  61.4686584
   6.3858484  84.2223466  62.9199986   4.5443720  88.0833719  52.8032649
   5.4561576  88.3161106  52.6280346   4.0353367  88.6670763  52.2407727
   2.8284487  92.5058347  66.4393941   3.2367843  92.0640758  65.6948574
   2.1061749  91.9310975  66.6928134   3.1513302  93.0659538  60.1946230
   2.5222164  93.2305252  59.4922298   2.7638964  93.4801147  60.9657194
   7.0302534  94.0013976  57.5490594   6.3453572  94.3812877  56.9987627
   7.1146383  94.6109302  58.2822542   2.3315003  85.1035322  65.4708672
   2.0875934  85.8577383  64.9342948   2.6074933  85.4820670  66.3055919
   4.2853465  91.6473935  64.1485938   4.4970361  92.2905694  63.4720319
   4.2383214  90.8136251  63.6807868   1.8879694  84.2591755  61.0522510
   1.0264173  84.5573009  61.3439247   1.9142129  84.4762154  60.1203542
   5.3999293  94.5245890  62.3208295   6.2216737  94.1226077  62.0390977
   5.3961696  94.4214124  63.2724411  13.4905286  90.8684638  58.6693266
  12.7368995  90.2992037  58.5137271  13.6252828  90.8347303  59.6163901
   2.6053629  96.6424407  66.5029729   2.5872104  97.4633288  66.0109998
   3.5273549  96.5178482  66.7279870   2.2296378  79.2628603  62.8746879
   1.8860647  80.1530244  62.7985990   2.5975341  79.0730260  62.0116464
   2.1946661  89.2537214  51.3819314   1.6793284  90.0241818  51.6207702
   1.9223969  88.5802350  52.0052376   1.3092918  81.6333258  60.8396112
   0.8057714  81.5963393  60.0263918   1.6023525  82.5426001  60.8992769
   7.1680935  92.0069568  53.3172488   6.3910378  91.6680728  52.8727650
   7.8472416  92.0122192  52.6427453   1.9832964  87.1264306  53.2079095
   1.6783099  87.4410455  54.0589239   2.9363406  87.2045726  53.2506428
   5.4072242  91.4803550  59.9739096   4.7495916  92.1702811  60.0619224
   6.2112641  91.8699982  60.3173082   4.2177701  89.8347922  58.0243037
   4.7309582  90.4677914  58.5264747   4.8678924  89.2349118  57.6586398
   1.4800075  99.8132247  50.7803709   0.8061774 100.1163943  51.3888666
   1.8665897 100.6161327  50.4309166   1.4793579  88.7088794  55.4004058
   2.2265398  89.2210191  55.0911180   1.7485169  88.3872846  56.2608452
   4.9839497  94.8153924  56.1522180   4.5301824  93.9744834  56.2087371
   4.3533463  95.4515322  56.4896960   3.9272416  85.7445910  57.3822848
   3.1895173  85.2323296  57.7133090   4.1799190  85.3046291  56.5706124
   3.4272436  96.6530420  57.0871998   3.7195410  97.2135478  56.3684364
   3.9371057  96.9458981  57.8425157   4.0284044  78.5222162  57.9764617
   4.3342920  77.6619525  57.6890532   4.7536648  79.1139782  57.7763611
   1.8371695  87.8994839  65.0746081   2.1921083  88.1266312  65.9340546
   2.4843826  88.2313216  64.4523336   7.5669432  91.0213275  55.7795410
   7.4287330  91.2114871  54.8516599   7.2105651  91.7832658  56.2363461
   7.5938811  93.0889802  60.7906681   8.0275318  92.9965091  61.6389735
   8.3070392  93.0647302  60.1526697   1.3266706  96.6891896  62.3239782
   1.3803729  97.2582832  63.0917498   0.4581488  96.8593781  61.9593819
   8.4554361  93.1313503  63.3239567   8.6490251  94.0359313  63.5698842
   8.3554979  92.6720922  64.1578152   3.5169470  93.2820245  68.8980447
   3.3654976  93.0530797  67.9810531   3.5074149  94.2390847  68.9111792
   3.5707545  91.6040460  49.3151149   2.9536715  90.8787288  49.2184201
   3.1024033  92.3649820  48.9718223   5.2261676  96.3139368  66.9756929
   5.1674223  95.6298588  66.3087512   5.6281195  97.0558358  66.5237555
   5.2279084  94.2778952  65.2070909   4.3405862  93.9404874  65.3297308
   5.7977635  93.5461983  65.4439674   1.8566667  83.9846804  58.3269179
   2.3535366  83.2316766  58.0070249   1.0853648  84.0211120  57.7612388
   9.7096424  89.6887169  59.9687470   9.6986300  90.5711885  59.5981404
   8.8413804  89.3358720  59.7742007   1.2178921  98.8367238  64.3290311
   1.9306893  99.4714703  64.2566212   0.7268949  98.9331104  63.5130312
   2.9396447  92.7418491  55.9007602   2.0052726  92.8619953  55.7312307
   3.1173116  91.8390958  55.6367612   6.3268999  88.5835810  56.4357636
   6.7929451  89.4163802  56.3617939   6.7776499  88.1180792  57.1402895
   4.3945230  94.9279632  53.4343788   4.6705074  94.8136226  54.3437663
   3.5249729  94.5297116  53.3955962   4.2985662  80.9516397  60.4748538
   3.3848741  81.1820624  60.6430745   4.7278763  81.0354841  61.3262570
   4.0692120  89.1406289  62.9748432   3.4163570  89.3882197  62.3200885
   4.4472500  88.3270427  62.6410909   1.0299294  99.1765982  57.0776602
   1.2121688  98.3587638  57.5404354   1.8532280  99.3933675  56.6401492
   1.3641459  98.1034168  54.3391651   1.8929226  97.5926622  53.7261813
   1.6269679  97.7876698  55.2037184   3.7113350  96.0154285  69.5520739
   4.2553254  96.6284243  69.0575694   3.1300195  96.5733864  70.0687752
   1.9970863  99.1375003  60.6835767   1.8722003  98.3364743  60.1746713
   2.6549954  99.6321197  60.1949737   4.0605772  96.9384023  62.3115317
   3.1136107  96.8189374  62.2393644   4.4088545  96.0506521  62.3941579
   1.0652205  96.7336740  58.5119669   0.9177167  95.8053447  58.6927239
   1.8905698  96.7556830  58.0276745   4.6686327  97.5565298  59.5984542
   5.5932874  97.3508160  59.4608993   4.5001630  97.3081699  60.5073884
   1.0613719  84.5874577  53.5051787   1.2777334  85.4699215  53.2040615
   0.5807786  84.1960791  52.7757429   4.4581643  98.0750966  54.9546634
   4.6318521  97.5097388  54.2020486   4.9510534  98.8751861  54.7726124
  10.3121034  90.8387389  56.5736933  10.7552180  90.0894714  56.1756057
   9.4347544  90.8297525  56.1910665   5.4456815  97.3917730  52.0543532
   6.1407720  98.0124423  52.2730846   5.7879966  96.5413081  52.3295910
   7.3448239  94.8417436  53.5830863   7.8699563  95.1804708  52.8580183
   7.2570591  93.9064451  53.3993997   7.0342145  95.4750339  68.8882061
   6.2437688  95.4574478  68.3486560   6.7975499  96.0138633  69.6431097
   7.1540020  92.3242806  66.2014789   7.2038025  92.1592813  67.1430312
   7.0453943  91.4570065  65.8112670   4.4443782  88.3073734  67.5174096
   5.3453645  88.1680199  67.2258094   4.5191757  88.4728189  68.4572273
   8.6558217  94.7439747  66.4456811   8.3643025  95.1069728  67.2820272
   8.0430348  94.0306755  66.2670143   9.8553899  92.3092627  58.9659381
  10.6900790  92.7482431  59.1296941   9.9913028  91.8331280  58.1467627
   6.9045405  89.8672362  64.9136869   7.3799526  90.0600008  64.1055720
   5.9810970  89.9231548  64.6680252   1.4825621  81.9020205  63.8792703
   2.0007565  82.6381232  63.5539191   1.1280754  82.2084199  64.7139462
   1.7338215  78.3220488  59.3993599   2.0139969  77.6543677  60.0254026
   2.5188822  78.5149584  58.8868263   5.6047074  86.7438122  63.1465174
   6.5564497  86.8436220  63.1677398   5.4350524  85.9516390  63.6563259
   3.6261453  83.8293705  63.3324575   3.0311385  84.1098718  62.6371064
   3.3411150  84.3187606  64.1041316   2.7568944  97.7816632  52.0927208
   3.6899617  97.7162194  52.2960083   2.6692157  98.6172899  51.6341740
   5.3856960  97.0982502  49.0531155   5.3070592  96.7642366  49.9466913
   6.2066627  97.5904270  49.0522628   8.0835152  89.9644242  62.2607474
   8.0511472  89.0260242  62.4467158   8.6935775  90.0428278  61.5273299
   8.2329640  86.7555285  62.3065757   7.7168689  85.9713742  62.1195686
   9.1169589  86.4274002  62.4712277   5.8940367  80.4996301  58.2661570
   5.6965188  80.1911389  59.1504902   6.5040073  81.2257939  58.3959500
  13.9011701  91.0260248  61.4013511  14.6315090  90.7645537  61.9621214
  13.2918647  90.2888970  61.4415579  11.9826999  89.1668111  61.9987962
  11.2560162  89.0324076  61.3904453  11.5674285  89.4744940  62.8044680
   1.6514014  80.3805207  56.0158101   2.2045052  80.8000661  56.6748124
   1.8884100  79.4540956  56.0581057   5.0292821  82.4905733  55.5236765
   4.4491490  83.1490537  55.1414818   4.7628753  81.6683077  55.1124183
   3.4796387  81.8910790  57.7258086   3.9796165  82.0027325  56.9172405
   4.1231995  81.5871843  58.3658894   3.8117699  84.6505823  54.5793114
   2.9243554  84.9355474  54.3613308   4.2271688  84.4899586  53.7320391
   7.1632235  84.6752344  58.2947453   7.9392625  85.1648796  58.5672070
   6.4380369  85.1010398  58.7519322   9.6004793  85.3879963  59.3521393
  10.1949284  85.1475699  58.6414702   9.6731377  84.6687094  59.9794930
   2.9560912  94.4150498  48.6741134   3.6596762  94.6200500  49.2898789
   2.2323561  94.9827260  48.9390217   3.7858722  90.1660359  54.7943404
   3.7293924  90.6228910  53.9551036   4.3387065  89.4051044  54.6166247
   7.5963528  85.9550091  55.6193523   7.3400463  85.5546726  56.4501731
   6.9716396  86.6693885  55.4943662  11.9075866  88.6946164  58.1264815
  11.3475424  88.7639353  58.8996377  11.3019370  88.5187149  57.4064311
   4.8647610  94.8533027  50.7239594   5.6993213  94.4214225  50.5417068
   4.7031952  94.6815041  51.6516488   4.5193502  91.3565140  52.0895933
   4.4642306  91.1909412  51.1484377   3.8939557  92.0641173  52.2458123
   1.8339409  93.6614052  71.4149496   2.7030569  93.8354704  71.0536131
   1.3546160  94.4808469  71.2925225   1.6441747  77.4516026  55.9227188
   0.8774142  76.8974513  56.0683871   2.0552452  77.5237895  56.7841340
  13.0473153 103.0954132  57.8947978  13.8336242 102.6773555  57.5438395
  13.3111857 104.0000224  58.0629627  18.4481580 103.0329365  58.7980957
  19.1806752 102.4628582  59.0318786  17.6920936 102.6450965  59.2387463
  15.9707001  96.7450939  63.2575566  15.6390325  97.6146350  63.0336781
  15.3752614  96.4287223  63.9369596   9.7063187 100.4846506  50.9905648
   9.8737589 101.3526743  51.3576119   9.5160356 100.6473788  50.0666937
  15.8635664 101.4646025  60.3368916  14.9552541 101.3961434  60.0427677
  15.8123260 101.9417970  61.1650741   9.6852408 102.9404164  51.9752315
   9.5652033 103.3861214  52.8137795   8.9904996 103.2889481  51.4165853
   9.9376530 102.8835671  68.2803813   9.1609864 103.4429591  68.2706678
  10.5767093 103.3692454  68.8018683  17.7297310  99.6662464  62.1146790
  17.0871691  99.9594997  61.4686584  17.2252239  99.5515384  62.9199986
  15.3837474 103.4125637  52.8032649  16.2955330 103.6453024  52.6280346
  14.8747121 103.9962681  52.2407727  10.0209312 102.7722872  63.8127498
  10.8670507 103.1962285  63.9562147   9.9607949 102.1156496  64.5066061
  13.1708757 100.4327240  65.4708672  12.9269689 101.1869300  64.9342948
  13.4468688 100.8112587  66.3055919  12.7273449  99.5883673  61.0522510
  11.8657928  99.8864926  61.3439247  12.7535883  99.8054072  60.1203542
  24.3299041 106.1976556  58.6693266  23.5762749 105.6283954  58.5137271
  24.4646582 106.1639221  59.6163901   6.2065009  97.1481538  71.0062341
   5.8131954  96.5947737  71.6809985   7.0231149  97.4592117  71.3968858
   9.1232969  98.5639417  68.5982597   9.8642683  99.1646571  68.5187060
   9.3550892  97.8217055  68.0400640  13.0690132  94.5920520  62.8746879
  12.7254402  95.4822162  62.7985990  13.4369095  94.4022178  62.0116464
  13.0340415 104.5829131  51.3819314  12.5187039 105.3533736  51.6207702
  12.7617724 103.9094268  52.0052376  10.6187526  99.4278832  56.4404553
   9.7629123  99.0385683  56.2610191  11.0314478  99.5070793  55.5804338
  12.1486673  96.9625175  60.8396112  11.6451468  96.9255311  60.0263918
  12.4417280  97.8717918  60.8992769   8.3929559  97.0463905  59.8462294
   9.2582555  96.8506714  59.4868184   8.4607068  96.8174257  60.7731651
  18.0074689 107.3361486  53.3172488  17.2304132 106.9972646  52.8727650
  18.6866170 107.3414109  52.6427453  12.8226718 102.4556224  53.2079095
  12.5176854 102.7702373  54.0589239  13.7757160 102.5337643  53.2506428
   5.9991878  99.2766113  57.2178661   6.5735630  99.0541295  56.4851854
   6.5862860  99.3454808  57.9707262  15.0571455 105.1639840  58.0243037
  15.5703337 105.7969832  58.5264747  15.7072679 104.5641036  57.6586398
   6.3261465 101.3070574  51.2374546   5.4898777 101.6445261  51.5583821
   6.1866235 101.1719554  50.3001683   8.3014545  96.1507362  55.9453730
   7.6478958  95.8356379  55.3210345   8.2595020  95.5283102  56.6713553
  11.5352286 102.6389296  60.2701378  10.6174847 102.8604243  60.1123066
  11.9512429 102.7135606  59.4113085  12.3187334 104.0380711  55.4004058
  13.0659153 104.5502108  55.0911180  12.5878923 103.7164764  56.2608452
  14.7666171 101.0737828  57.3822848  14.0288928 100.5615214  57.7133090
  15.0192944 100.6338209  56.5706124  14.8677798  93.8514080  57.9764617
  15.1736675  92.9911443  57.6890532  15.5930403  94.4431700  57.7763611
   7.0791238 102.7644932  56.2431187   6.2659103 103.0639103  56.6496379
   7.5750232 102.3700621  56.9605669  12.6765449 103.2286757  65.0746081
  13.0314837 103.4558230  65.9340546  13.3237581 103.5605134  64.4523336
  18.4063186 106.3505193  55.7795410  18.2681085 106.5406789  54.8516599
  18.0499405 107.1124575  56.2363461   6.5705313 100.3363288  61.8592422
   7.2104692 100.1952047  61.1615385   5.7382843 100.0497801  61.4831024
   3.5733929 100.3063613  56.6365409   3.8340746 101.2208946  56.5274569
   4.3951101  99.8388055  56.7862021   5.0458854 101.7201370  63.8064233
   5.7181908 101.5118732  63.1576882   4.2188641 101.5223456  63.3669465
  10.9484426  98.3463311  65.8229894  10.3012341  99.0453261  65.7294370
  11.7185442  98.7799455  66.1906142   6.7897586 101.6929150  65.8745989
   6.2534943 101.2419889  66.5267586   6.2014295 101.8275059  65.1316454
   6.1999845 101.1517802  48.4372453   5.3229311 101.0306602  48.0734700
   6.6757598 100.3603880  48.1851342   2.5236707 100.8285158  62.9598984
   2.4394896 100.2210827  62.2249394   1.7019414 101.3194176  62.9608480
  12.6960421  99.3138721  58.3269179  13.1929121  98.5608684  58.0070249
  11.9247403  99.3503038  57.7612388  20.5490179 105.0179087  59.9687470
  20.5380055 105.9003802  59.5981404  19.6807558 104.6650638  59.7742007
   9.2795390 101.4556104  58.0540863   8.9093178 100.9027145  58.7421769
   9.7754482 100.8514238  57.5015864  17.1662753 103.9127728  56.4357636
  17.6323206 104.7455720  56.3617939  17.6170254 103.4472709  57.1402895
  15.1379416  96.2808315  60.4748538  14.2242496  96.5112542  60.6430745
  15.5672518  96.3646759  61.3262570  14.9085875 104.4698207  62.9748432
  14.2557325 104.7174114  62.3200885  15.2866254 103.6562345  62.6410909
   4.6760724  98.8660095  64.2993970   4.7402050  99.7274926  63.8871367
   4.6127844  98.2534097  63.5666328   4.1512996 100.9383228  67.9467004
   4.7785035 100.5560305  68.5604528   3.2940915 100.7197430  68.3122696
   4.4572786 100.8215653  59.8612907   3.7359372 101.4351621  59.7220381
   5.2466042 101.3573418  59.7829553   7.2599099  98.1570080  66.1353559
   7.7833501  98.4032376  66.8979868   7.0411433  98.9890115  65.7156696
   2.6566381 100.4273754  54.0024684   2.3279087  99.5471133  53.8199790
   3.0105751 100.3721423  54.8901073   5.7708204 100.7146724  54.3700162
   6.1104276 101.2432646  53.6478770   6.2180324 101.0527130  55.1458728
   8.4651645  99.0983775  63.8203230   8.1248465  98.2991588  64.2223909
   7.7590651  99.3985486  63.2480063   9.1168116  96.1833087  62.2730553
   9.9394186  95.7093566  62.1509443   9.3606180  96.9623571  62.7729239
   7.7576351  99.2121346  52.5693454   8.4784713  99.5902599  52.0657171
   7.1341655  99.9310223  52.6728432  11.9007474  99.9166495  53.5051787
  12.1171088 100.7991133  53.2040615  11.4201541  99.5252708  52.7757429
   8.5003078  99.8654756  60.1303421   8.4864647  98.9695849  59.7935719
   9.2175506  99.8725420  60.7641707  10.3529209 100.2992096  62.1756548
  10.0946987 101.2209167  62.1740879   9.8214249  99.9022531  62.8657012
   7.9039974  98.7469136  55.3990991   8.0255885  97.8185783  55.5981878
   7.6142016  98.7607822  54.4869306  10.7731164  96.4324047  58.5357711
  10.7952861  96.4963380  57.5809690  11.1899223  95.5928555  58.7298217
  21.1514789 106.1679306  56.5736933  21.5945935 105.4186632  56.1756057
  20.2741299 106.1589443  56.1910665   7.3881053 100.2601134  69.6080924
   7.4369209 101.1363257  69.2258693   7.9303568  99.7178527  69.0352567
  15.2837537 103.6365651  67.5174096  16.1847399 103.4972116  67.2258094
  15.3585511 103.8020106  68.4572273   9.6180342 101.0132506  66.3627282
   8.7483651 101.3066072  66.0909871   9.8539822 101.5972951  67.0834546
  20.6947653 107.6384545  58.9659381  21.5294545 108.0774349  59.1296941
  20.8306782 107.1623198  58.1467627  17.7439159 105.1964279  64.9136869
  18.2193281 105.3891926  64.1055720  16.8204725 105.2523465  64.6680252
  12.3219376  97.2312123  63.8792703  12.8401320  97.9673150  63.5539191
  11.9674509  97.5376116  64.7139462   3.9018313 102.0916804  51.9954108
   3.2087558 102.1661159  51.3394144   3.6570065 101.3277148  52.5175625
  12.5731970  93.6512406  59.3993599  12.8533724  92.9835595  60.0254026
  13.3582577  93.8441501  58.8868263  16.4440828 102.0730040  63.1465174
  17.3958251 102.1728137  63.1677398  16.2744279 101.2808308  63.6563259
  14.4655208  99.1585623  63.3324575  13.8705140  99.4390635  62.6371064
  14.1804904  99.6479524  64.1041316  18.9228906 105.2936159  62.2607474
  18.8905226 104.3552160  62.4467158  19.5329530 105.3720196  61.5273299
  10.7612237 104.1632212  48.3034678  11.7071342 104.0338420  48.3723096
  10.3826482 103.4246874  48.7804106  19.0723395 102.0847203  62.3065757
  18.5562443 101.3005659  62.1195686  19.9563343 101.7565919  62.4712277
  16.7334121  95.8288218  58.2661570  16.5358943  95.5203306  59.1504902
  17.3433827  96.5549857  58.3959500  24.7405456 106.3552166  61.4013511
  25.4708844 106.0937454  61.9621214  24.1312401 105.6180888  61.4415579
  22.8220753 104.4960029  61.9987962  22.0953917 104.3615994  61.3904453
  22.4068040 104.8036857  62.8044680   8.9455154 102.0882189  48.2389563
   8.0386609 101.7915301  48.3152277   9.2231135 101.7912007  47.3723849
  10.5617220  96.6319078  54.3933804   9.7517948  96.2866163  54.7689051
  11.2501637  96.3226622  54.9821416  12.4907768  95.7097125  56.0158101
  13.0438807  96.1292579  56.6748124  12.7277854  94.7832873  56.0581057
   8.5140867 101.6984199  71.7960865   8.4137594 102.6478556  71.7272956
   8.2962409 101.3702438  70.9236935   7.7153939  98.9469124  48.3801542
   8.5773103  99.2724022  48.6397360   7.9004283  98.1600620  47.8674608
  15.8686575  97.8197650  55.5236765  15.2885244  98.4782454  55.1414818
  15.6022508  96.9974995  55.1124183  14.3190142  97.2202708  57.7258086
  14.8189920  97.3319243  56.9172405  14.9625749  96.9163761  58.3658894
  14.6511453  99.9797741  54.5793114  13.7637308 100.2647391  54.3613308
  15.0665442  99.8191504  53.7320391  18.0025989 100.0044262  58.2947453
  18.7786379 100.4940714  58.5672070  17.2774123 100.4302316  58.7519322
  20.4398548 100.7171881  59.3521393  21.0343039 100.4767617  58.6414702
  20.5125132  99.9979011  59.9794930  14.6252477 105.4952277  54.7943404
  14.5687678 105.9520828  53.9551036  15.1780819 104.7342961  54.6166247
  18.4357283 101.2842008  55.6193523  18.1794217 100.8838644  56.4501731
  17.8110151 101.9985802  55.4943662  22.7469621 104.0238082  58.1264815
  22.1869179 104.0931271  58.8996377  22.1413124 103.8479066  57.4064311
   8.6683382  96.1865167  51.6681251   8.6562052  97.1307007  51.8249522
   9.5606804  96.0035312  51.3740713  12.4835501  92.7807943  55.9227188
  11.7167897  92.2266430  56.0683871  12.8946206  92.8529812  56.7841340
   4.4877262  99.0692739  70.0132369   5.3508724  98.7129544  70.2235694
   3.9142673  98.7306634  70.7007774  25.7071553 109.1805997  57.9764617
  26.0130429 108.3203361  57.6890532  26.4324157 109.7723617  57.7763611
  23.4125724 108.9804323  59.3993599  23.6927478 108.3127512  60.0254026
  24.1976331 109.1733419  58.8868263  23.3229256 108.1099861  55.9227188
  22.5561651 107.5558348  56.0683871  23.7339961 108.1821730  56.7841340
   2.6511533  52.5454843  45.3938573   1.8975241  51.9762241  45.2382577
   2.7859074  52.5117508  46.3409208   3.0617948  52.7030453  48.1258817
   3.7921337  52.4415741  48.6866521   2.4524894  51.9659175  48.1660885
   1.1433245  50.8438316  48.7233269   0.4166409  50.7094281  48.1149760
   0.7280532  51.1515145  49.5289987   1.0682113  50.3716369  44.8510121
   0.5081671  50.4409558  45.6241683   0.4625616  50.1957354  44.1309618
   2.6538131  67.0472883  47.5440077   3.2916541  66.9279630  46.8403417
   2.5358974  67.9953727  47.6028029   2.2079400  64.7724337  44.6193285
   2.9942489  64.3543760  44.2683702   2.4718104  65.6770429  44.7874933
   2.3789477  70.2097187  39.3181942   1.7435310  70.2831814  40.0302847
   2.0486884  70.7990786  38.6401021   7.6087827  64.7099570  45.5226264
   8.3412999  64.1398787  45.7564093   6.8527183  64.3221170  45.9632769
   5.1313247  58.4221144  49.9820872   4.7996572  59.2916555  49.7582087
   4.5358861  58.1057428  50.6614903   1.6244767  70.6233690  49.3816785
   1.3245490  71.5258729  49.2732592   1.2795826  70.3565873  50.2337938
   5.0241911  63.1416230  47.0614222   4.1158788  63.0731639  46.7672983
   4.9729506  63.6188175  47.8896048   6.8903557  61.3432669  48.8392096
   6.2477937  61.6365202  48.1931891   6.3858486  61.2285589  49.6445293
   4.5443721  65.0895842  39.5277955   5.4561577  65.3223229  39.3525653
   4.0353368  65.6732886  38.9653034   2.8284488  69.5120470  53.1639248
   3.2367844  69.0702880  52.4193880   2.1061750  68.9373097  53.4173441
   3.1513303  70.0721660  46.9191537   2.5222166  70.2367374  46.2167605
   2.7638965  70.4863270  47.6902501   7.0302535  71.0076098  44.2735901
   6.3453573  71.3874999  43.7232934   7.1146384  71.6171425  45.0067848
   2.3315004  62.1097445  52.1953979   2.0875936  62.8639505  51.6588254
   2.6074934  62.4882792  53.0301226   4.2853467  68.6536057  50.8731244
   4.4970362  69.2967817  50.1965625   4.2383215  67.8198374  50.4053174
   1.8879696  61.2653878  47.7767816   1.0264175  61.5635131  48.0684554
   1.9142130  61.4824277  46.8448849   5.3999295  71.5308013  49.0453602
   6.2216738  71.1288200  48.7636283   5.3961697  71.4276247  49.9969717
  13.4905288  67.8746761  45.3938573  12.7368996  67.3054159  45.2382577
  13.6252829  67.8409426  46.3409208   2.6053630  73.6486530  53.2275036
   2.5872105  74.4695411  52.7355305   3.5273550  73.5240605  53.4525177
   2.2296379  56.2690725  49.5992186   1.8860649  57.1592367  49.5231296
   2.5975342  56.0792383  48.7361771   2.1946662  66.2599336  38.1064621
   1.6793285  67.0303941  38.3453008   1.9223970  65.5864473  38.7297682
   1.3092920  58.6395380  47.5641419   0.8057715  58.6025516  46.7509224
   1.6023526  59.5488123  47.6238076   7.1680936  69.0131691  40.0417794
   6.3910379  68.6742850  39.5972956   7.8472417  69.0184314  39.3672759
   1.9832965  64.1326428  39.9324402   1.6783101  64.4472578  40.7834545
   2.9363407  64.2107848  39.9751735   5.4072243  68.4865672  46.6984402
   4.7495917  69.1764934  46.7864531   6.2112642  68.8762104  47.0418389
   4.2177702  66.8410045  44.7488344   4.7309584  67.4740037  45.2510054
   4.8678926  66.2411240  44.3831704   1.4800076  76.8194369  37.5049015
   0.8061775  77.1226066  38.1133973   1.8665898  77.6223450  37.1554472
   1.4793580  65.7150916  42.1249365   2.2265399  66.2272313  41.8156487
   1.7485170  65.3934969  42.9853758   4.9839498  71.8216046  42.8767487
   4.5301825  70.9806956  42.9332677   4.3533465  72.4577445  43.2142267
   3.9272418  62.7508032  44.1068154   3.1895174  62.2385419  44.4378397
   4.1799191  62.3108414  43.2951431   3.4272437  73.6592543  43.8117305
   3.7195412  74.2197600  43.0929671   3.9371058  73.9521104  44.5670464
   4.0284045  55.5284284  44.7009923   4.3342922  54.6681648  44.4135839
   4.7536650  56.1201905  44.5008917   1.8371696  64.9056962  51.7991387
   2.1921084  65.1328435  52.6585853   2.4843827  65.2375338  51.1768643
   7.5669433  68.0275398  42.5040716   7.4287332  68.2176994  41.5761906
   7.2105652  68.7894780  42.9608767   7.5938813  70.0951925  47.5151988
   8.0275319  70.0027214  48.3635042   8.3070393  70.0709425  46.8772004
   1.3266708  73.6954019  49.0485088   1.3803730  74.2644955  49.8162804
   0.4581489  73.8655904  48.6839126   8.4554362  70.1375625  50.0484873
   8.6490252  71.0421436  50.2944148   8.3554980  69.6783044  50.8823458
   3.5169471  70.2882368  55.6225754   3.3654977  70.0592920  54.7055838
   3.5074150  71.2452969  55.6357099   3.5707546  68.6102582  36.0396455
   2.9536717  67.8849410  35.9429508   3.1024034  69.3711942  35.6963530
   5.2261678  73.3201491  53.7002236   5.1674224  72.6360711  53.0332819
   5.6281196  74.0620481  53.2482862   5.2279085  71.2841074  51.9316215
   4.3405864  70.9466996  52.0542614   5.7977636  70.5524106  52.1684981
   1.8566668  60.9908926  45.0514486   2.3535368  60.2378889  44.7315556
   1.0853650  61.0273243  44.4857695   9.7096425  66.6949292  46.6932777
   9.6986302  67.5774007  46.3226710   8.8413805  66.3420843  46.4987314
   1.2178922  75.8429361  51.0535617   1.9306894  76.4776826  50.9811519
   0.7268950  75.9393227  50.2375619   2.9396449  69.7480614  42.6252909
   2.0052727  69.8682076  42.4557613   3.1173117  68.8453080  42.3612919
   6.3269000  65.5897933  43.1602943   6.7929452  66.4225924  43.0863246
   6.7776501  65.1242914  43.8648202   4.3945231  71.9341754  40.1589095
   4.6705075  71.8198349  41.0682969   3.5249730  71.5359239  40.1201268
   4.2985663  57.9578520  47.1993844   3.3848743  58.1882747  47.3676051
   4.7278764  58.0416964  48.0507877   4.0692121  66.1468412  49.6993738
   3.4163572  66.3944319  49.0446191   4.4472501  65.3332550  49.3656216
   1.0299295  76.1828105  43.8021909   1.2121690  75.3649761  44.2649661
   1.8532281  76.3995797  43.3646799   1.3641461  75.1096290  41.0636957
   1.8929227  74.5988745  40.4507119   1.6269680  74.7938820  41.9282490
   3.7113352  73.0216408  56.2766046   4.2553256  73.6346366  55.7821001
   3.1300196  73.5795986  56.7933059   1.9970864  76.1437126  47.4081074
   1.8722004  75.3426866  46.8992019   2.6549956  76.6383319  46.9195044
   4.0605773  73.9446146  49.0360624   3.1136108  73.8251497  48.9638950
   4.4088546  73.0568644  49.1186885   1.0652206  73.7398862  45.2364976
   0.9177169  72.8115570  45.4172546   1.8905700  73.7618953  44.7522051
   4.6686328  74.5627421  46.3229849   5.5932875  74.3570282  46.1854300
   4.5001631  74.3143822  47.2319190   1.0613720  61.5936700  40.2297093
   1.2777335  62.4761338  39.9285921   0.5807788  61.2022913  39.5002735
   4.4581644  75.0813088  41.6791940   4.6318522  74.5159511  40.9265793
   4.9510535  75.8813983  41.4971430  10.3121035  67.8449511  43.2982240
  10.7552181  67.0956836  42.9001363   9.4347546  67.8359648  42.9155972
   5.4456817  74.3979853  38.7788838   6.1407721  75.0186545  38.9976153
   5.7879967  73.5475204  39.0541216   7.3448240  71.8479558  40.3076169
   7.8699564  72.1866831  39.5825489   7.2570592  70.9126574  40.1239304
   7.0342146  72.4812462  55.6127367   6.2437690  72.4636601  55.0731867
   6.7975500  73.0200756  56.3676404   7.1540021  69.3304928  52.9260096
   7.2038026  69.1654936  53.8675619   7.0453944  68.4632187  52.5357977
   4.4443783  65.3135856  54.2419402   5.3453646  65.1742321  53.9503400
   4.5191758  65.4790311  55.1817580   8.6558218  71.7501870  53.1702117
   8.3643026  72.1131850  54.0065578   8.0430349  71.0368878  52.9915449
   9.8553900  69.3154750  45.6904688  10.6900791  69.7544554  45.8542248
   9.9913029  68.8393403  44.8712933   6.9045406  66.8734484  51.6382175
   7.3799528  67.0662131  50.8301027   5.9810971  66.9293670  51.3925559
   1.4825623  58.9082328  50.6038009   2.0007566  59.6443355  50.2784498
   1.1280755  59.2146321  51.4384768   1.7338217  55.3282610  46.1238906
   2.0139970  54.6605800  46.7499332   2.5188824  55.5211706  45.6113570
   5.6047075  63.7500244  49.8710481   6.5564498  63.8498342  49.8922705
   5.4350525  62.9578513  50.3808565   3.6261454  60.8355828  50.0569882
   3.0311387  61.1160840  49.3616370   3.3411151  61.3249729  50.8286623
   2.7568945  74.7878755  38.8172514   3.6899618  74.7224316  39.0205390
   2.6692158  75.6235021  38.3587047   5.3856962  74.1044625  35.7776462
   5.3070593  73.7704488  36.6712220   6.2066628  74.5966393  35.7767934
   8.0835153  66.9706364  48.9852781   8.0511473  66.0322365  49.1712464
   8.6935776  67.0490401  48.2518605   8.2329641  63.7617408  49.0311064
   7.7168690  62.9775864  48.8440993   9.1169590  63.4336124  49.1957583
   5.8940368  57.5058423  44.9906876   5.6965189  57.1973511  45.8750208
   6.5040074  58.2320062  45.1204806  13.9011703  68.0322371  48.1258817
  14.6315091  67.7707659  48.6866521  13.2918648  67.2951093  48.1660885
  11.9827000  66.1730234  48.7233269  11.2560163  66.0386199  48.1149760
  11.5674287  66.4807062  49.5289987   1.6514015  57.3867330  42.7403408
   2.2045053  57.8062783  43.3993431   1.8884101  56.4603078  42.7826364
   5.0292822  59.4967855  42.2482072   4.4491491  60.1552659  41.8660124
   4.7628755  58.6745200  41.8369489   3.4796388  58.8972913  44.4503392
   3.9796167  59.0089447  43.6417711   4.1231996  58.5933966  45.0904201
   3.8117700  61.6567946  41.3038420   2.9243555  61.9417596  41.0858615
   4.2271689  61.4961709  40.4565697   7.1632236  61.6814467  45.0192759
   7.9392626  62.1710919  45.2917376   6.4380370  62.1072521  45.4764629
   9.6004795  62.3942086  46.0766700  10.1949286  62.1537822  45.3660008
   9.6731378  61.6749216  46.7040236   2.9560913  71.4212620  35.3986440
   3.6596764  71.6262623  36.0144096   2.2323562  71.9889382  35.6635524
   3.7858724  67.1722482  41.5188710   3.7293925  67.6291033  40.6796343
   4.3387066  66.4113166  41.3411553   7.5963530  62.9612213  42.3438830
   7.3400464  62.5608849  43.1747038   6.9716398  63.6756007  42.2188969
  11.9075867  65.7008287  44.8510121  11.3475425  65.7701476  45.6241683
  11.3019371  65.5249271  44.1309618   4.8647611  71.8595149  37.4484900
   5.6993215  71.4276348  37.2662375   4.7031954  71.6877163  38.3761795
   4.5193503  68.3627263  38.8141240   4.4642307  68.1971534  37.8729684
   3.8939558  69.0703296  38.9703429   1.8339410  70.6676175  58.1394802
   2.7030570  70.8416827  57.7781437   1.3546162  71.4870591  58.0170532
   1.6441748  54.4578148  42.6472495   0.8774144  53.9036635  42.7929177
   2.0552453  54.5300017  43.5086646  13.4931886  82.3764801  47.5440077
  14.1310296  82.2571548  46.8403417  13.3752729  83.3245645  47.6028029
  10.3021592  82.3292229  47.4801602   9.9640104  82.2133293  46.5922137
  11.1711360  81.9283394  47.4602608   6.1608408  84.1827705  43.4698493
   5.5973273  84.0917642  42.7014780   6.0460803  83.3627610  43.9500985
  10.7841375  83.4827080  53.4387807  10.7730016  83.0879879  52.5668311
  10.9462015  82.7493153  54.0321579   3.7072840  85.6778897  46.3082713
   4.4994132  85.3369721  45.8929012   3.9469490  85.7873872  47.2284866
  11.7407967  87.8498673  38.7812958  11.0895946  88.4352753  38.3946971
  12.5352329  88.3804868  38.8407995   5.6663594  84.9387810  39.1800092
   6.4394470  84.3916797  39.0412968   6.0188993  85.8032059  39.3914553
   7.5048636  86.2664192  52.3866991   7.2138502  87.1709823  52.2713658
   8.1405621  86.3080720  53.1011061   8.4304843  83.6441041  48.9768351
   9.0268415  83.4197063  48.2625314   8.4879815  82.9025786  49.5793799
   8.0029872  81.0980476  36.8118542   8.2555392  80.5761997  36.0502005
   7.0654431  80.9346622  36.9145225  13.0473154  80.1016254  44.6193285
  13.8336244  79.6835678  44.2683702  13.3111859  81.0062347  44.7874933
  13.2183232  85.5389105  39.3181942  12.5829065  85.6123731  40.0302847
  12.8880638  86.1282704  38.6401021  18.4481582  80.0391488  45.5226264
  19.1806753  79.4690704  45.7564093  17.6920937  79.6513088  45.9632769
   7.7226160  83.0008582  39.0142917   7.6062418  82.3253485  39.6824001
   7.8328420  82.5140956  38.1975070  10.0657701  82.4618729  42.7189606
   9.7015908  81.9349350  43.4302528  10.9224817  82.0717198  42.5456091
  15.9707002  73.7513062  49.9820872  15.6390327  74.6208473  49.7582087
  15.3752615  73.4349346  50.6614903   9.7063188  77.4908629  37.7150955
   9.8737591  78.3588865  38.0821426   9.5160357  77.6535911  36.7912244
  12.4638521  85.9525608  49.3816785  12.1639244  86.8550647  49.2732592
  12.1189581  85.6857791  50.2337938   5.9151003  82.4039405  45.4153489
   4.9901499  82.2715619  45.6231181   6.1635416  83.1833624  45.9123432
  15.8635665  78.4708148  47.0614222  14.9552543  78.4023556  46.7672983
  15.8123261  78.9480093  47.8896048   9.6852409  79.9466286  38.6997621
   9.5652034  80.3923337  39.5383102   8.9904997  80.2951604  38.1411160
   3.2759814  82.0472678  46.2497278   3.4052195  82.3007157  47.1636690
   2.5957265  82.6400386  45.9301933   7.4459301  92.7169928  42.3487753
   7.3683331  93.6677753  42.4276233   6.8420945  92.3715801  43.0062679
   9.9376531  79.8897794  55.0049120   9.1609865  80.4491714  54.9951984
  10.5767094  80.3754576  55.5263990  17.7297312  76.6724586  48.8392096
  17.0871692  76.9657119  48.1931891  17.2252240  76.5577507  49.6445293
  15.3837475  80.4187760  39.5277955  16.2955331  80.6515146  39.3525653
  14.8747122  81.0024804  38.9653034   8.1922903  82.6983247  54.5667087
   8.9337588  83.2368291  54.2901910   7.4859889  83.3249536  54.7238638
  13.6678243  84.8412387  53.1639248  14.0761599  84.3994798  52.4193880
  12.9455504  84.2665015  53.4173441  10.0209313  79.7784994  50.5372805
  10.8670508  80.2024408  50.6807454   9.9607951  79.1218618  51.2311368
  13.9907058  85.4013578  46.9191537  13.3615920  85.5659292  46.2167605
  13.6032720  85.8155188  47.6902501  17.8696289  86.3368016  44.2735901
  17.1847328  86.7166917  43.7232934  17.9540139  86.9463342  45.0067848
  13.1708758  77.4389362  52.1953979  12.9269690  78.1931423  51.6588254
  13.4468689  77.8174710  53.0301226  15.1247221  83.9827975  50.8731244
  15.3364116  84.6259735  50.1965625  15.0776969  83.1490291  50.4053174
  12.7273450  76.5945795  47.7767816  11.8657929  76.8927049  48.0684554
  12.7535885  76.8116194  46.8448849   9.5435019  85.1387986  44.1841622
  10.0073365  85.4175689  43.3946244   9.2791818  84.2371431  44.0014713
   6.4359101  84.6859468  47.1221385   7.0060458  85.1146736  46.4838870
   7.0267212  84.4042052  47.8205571   8.4803906  81.2611138  40.9931187
   9.1827949  81.7132182  41.4605113   8.1484534  80.6194957  41.6211080
   6.9284267  79.8522895  55.3682397   6.2982928  80.5339176  55.6017793
   6.8220355  79.7405977  54.4235535   2.2229239  79.5194691  46.2948321
   1.4328293  79.7752220  45.8188431   2.7140487  80.3343029  46.4000361
  16.2393049  86.8599930  49.0453602  17.0610493  86.4580118  48.7636283
  16.2355452  86.7568164  49.9969717   4.1743985  79.8839270  43.2531797
   3.3775148  79.9957965  43.7715293   3.9469577  80.2225923  42.3872688
  10.0049652  86.4083974  51.2014312  10.0694085  86.8704381  52.0372484
   9.2960576  85.7781338  51.3296622   0.5066942  79.7725182  48.7263311
   0.7574981  80.6572191  48.9920887   1.0426491  79.5929783  47.9538403
  24.3299042  83.2038679  45.3938573  23.5762750  82.6346077  45.2382577
  24.4646583  83.1701343  46.3409208   9.7197670  88.0752081  41.0693292
   9.5843345  88.9203617  41.4978140  10.2607483  88.2771359  40.3059226
   6.2065010  74.1543661  57.7307648   5.8131955  73.6009859  58.4055292
   7.0231150  74.4654239  58.1214165   3.1727068  85.5927519  41.6421217
   3.6851588  86.3870769  41.7926782   3.8249780  84.8953810  41.5754819
   4.9821952  88.7093275  43.7243971   5.1588581  89.6311240  43.5364954
   5.7778786  88.3951695  44.1538350   9.1232971  75.5701540  55.3227904
   9.8642684  76.1708693  55.2432367   9.3550894  74.8279178  54.7645947
   4.2674309  80.7557907  53.6006134   4.1527824  79.8543164  53.9013233
   3.4118827  81.0021604  53.2490950  11.3466147  88.6975648  55.1993634
  10.9030001  87.9112026  54.8814539  12.0083360  88.8854798  54.5337525
   6.1053268  90.2271449  49.7254313   6.6560693  90.0988512  48.9531307
   5.2664744  90.5266338  49.3749206  13.4447385  88.9778447  53.2275036
  13.4265860  89.7987329  52.7355305  14.3667305  88.8532523  53.4525177
   9.9020439  86.4922577  54.0698544  10.4348776  85.7310865  53.8397852
   9.3734520  86.1996229  54.8122699  13.0690134  71.5982643  49.5992186
  12.7254403  72.4884285  49.5231296  13.4369096  71.4084301  48.7361771
   1.1375984  83.9216173  42.4180788   1.9751206  84.3313182  42.2014496
   1.3154252  82.9815616  42.3880982  13.0340416  81.5891254  38.1064621
  12.5187040  82.3595859  38.3453008  12.7617725  80.9156390  38.7297682
  10.6187527  76.4340955  43.1649859   9.7629124  76.0447805  42.9855498
  11.0314479  76.5132916  42.3049645  12.1486674  73.9687298  47.5641419
  11.6451470  73.9317433  46.7509224  12.4417281  74.8780041  47.6238076
   8.3929560  74.0526028  46.5707601   9.2582557  73.8568836  46.2113490
   8.4607069  73.8236380  47.4976958  18.0074691  84.3423609  40.0417794
  17.2304133  84.0034768  39.5972956  18.6866172  84.3476232  39.3672759
  12.8226720  79.4618346  39.9324402  12.5176855  79.7764495  40.7834545
  13.7757162  79.5399766  39.9751735  11.2673151  85.6208569  41.5817356
  10.7394513  84.8861329  41.2690594  10.7660654  86.3983246  41.3357324
  16.2465997  83.8157590  46.6984402  15.5889672  84.5056851  46.7864531
  17.0506397  84.2054022  47.0418389   5.9991879  76.2828236  43.9423968
   6.5735631  76.0603417  43.2097161   6.5862861  76.3516930  44.6952569
  15.0571456  82.1701963  44.7488344  15.5703338  82.8031954  45.2510054
  15.7072680  81.5703158  44.3831704   6.3261466  78.3132697  37.9619853
   5.4898778  78.6507383  38.2829128   6.1866236  78.1781677  37.0246990
   8.3014547  73.1569485  42.6699037   7.6478959  72.8418502  42.0455652
   8.2595021  72.5345225  43.3958860   9.4125752  83.4388780  34.5852329
   8.5052813  83.2078033  34.7843478   9.9096784  82.6426399  34.7726311
  12.3193830  92.1486287  37.5049015  11.6455529  92.4517984  38.1133973
  12.7059652  92.9515367  37.1554472  11.5352287  79.6451418  46.9946685
  10.6174848  79.8666365  46.8368373  11.9512431  79.7197729  46.1358392
  12.3187335  81.0442834  42.1249365  13.0659154  81.5564231  41.8156487
  12.5878924  80.7226887  42.9853758  10.5913985  83.5401375  39.1076319
   9.6825204  83.2560407  39.2048789  10.6209069  83.9600453  38.2479626
  15.8233252  87.1507964  42.8767487  15.3695580  86.3098874  42.9332677
  15.1927219  87.7869362  43.2142267  14.7666172  78.0799950  44.1068154
  14.0288929  77.5677336  44.4378397  15.0192946  77.6400332  43.2951431
  14.2666192  88.9884461  43.8117305  14.5589166  89.5489518  43.0929671
  14.7764812  89.2813022  44.5670464  14.8677799  70.8576202  44.7009923
  15.1736676  69.9973566  44.4135839  15.5930404  71.4493822  44.5008917
   1.1602155  81.2606889  43.0891521   0.9626555  80.6676249  42.3642588
   0.6048819  80.9559099  43.8067460   9.1398879  81.1529995  45.2086115
   9.1947489  80.2003832  45.1328591   8.3290081  81.3089434  45.6927413
  10.2890073  85.0810118  36.4464398   9.8509503  84.3645977  35.9870035
  11.0300514  85.3086233  35.8849489   7.0791239  79.7707055  42.9676493
   6.2659105  80.0701225  43.3741686   7.5750233  79.3762744  43.6850976
   9.2299817  89.7664812  44.9010758   9.1875996  89.9925658  43.9719290
  10.1462516  89.5328186  45.0496559  12.6765451  80.2348879  51.7991387
  13.0314838  80.4620353  52.6585853  13.3237582  80.5667256  51.1768643
  18.4063188  83.3567315  42.5040716  18.2681086  83.5468911  41.5761906
  18.0499406  84.1186698  42.9608767   6.5705314  77.3425410  48.5837728
   7.2104693  77.2014170  47.8860692   5.7382844  77.0559924  48.2076330
  18.4332567  85.4243842  47.5151988  18.8669074  85.3319131  48.3635042
  19.1464148  85.4001343  46.8772004   7.3465618  86.6427841  44.6972721
   8.1406216  86.1478161  44.4955296   6.6357310  86.1145704  44.3340426
  12.1660462  89.0245936  49.0485088  12.2197484  89.5936873  49.8162804
  11.2975244  89.1947821  48.6839126   3.6548381  80.7870923  40.7732474
   2.7245969  80.7255378  40.9902436   3.7505853  80.2646875  39.9769115
   3.5733930  77.3125735  43.3610715   3.8340747  78.2271069  43.2519876
   4.3951103  76.8450178  43.5107328   5.0458856  78.7263493  50.5309540
   5.7181909  78.5180855  49.8822189   4.2188642  78.5285579  50.0914772
  19.2948117  85.4667543  50.0484873  19.4884007  86.3713353  50.2944148
  19.1948735  85.0074962  50.8823458  10.9484428  75.3525434  52.5475201
  10.3012343  76.0515383  52.4539677  11.7185443  75.7861577  52.9151449
  14.3563225  85.6174286  55.6225754  14.2048732  85.3884837  54.7055838
  14.3467905  86.5744887  55.6357099  11.1248562  83.1906198  50.6072020
  12.0540622  83.3417358  50.4340988  10.7039592  83.2790219  49.7520667
   9.9236894  87.2156863  48.3770558   9.7847979  86.8475647  49.2496496
   9.1351490  87.7304502  48.2054516  10.5185046  92.3165959  39.7196094
  10.6936801  91.8454003  40.5341717   9.8317834  92.9431726  39.9477355
  11.4742109  86.5938466  45.7659396  11.1391941  86.5539236  46.6617046
  10.9746054  85.9283181  45.2929806   5.4486353  82.0006096  51.2911977
   5.3106151  81.2686334  51.8923516   6.3591276  81.9114996  51.0096165
  14.4101300  83.9394500  36.0396455  13.7930471  83.2141328  35.9429508
  13.9417789  84.7003860  35.6963530   8.0768653  81.7126055  50.7795657
   8.7868272  81.0719247  50.7382275   8.0337962  81.9638950  51.7021837
  16.0655432  88.6493408  53.7002236  16.0067978  87.9652628  53.0332819
  16.4674951  89.3912398  53.2482862   6.7897587  78.6991273  52.5991296
   6.2534944  78.2482011  53.2512892   6.2014296  78.8337182  51.8561760
   5.0846131  95.4655322  46.4935955   5.3242729  96.0973846  47.1714973
   4.2415327  95.1143362  46.7801314   6.1999846  78.1579924  35.1617760
   5.3229313  78.0368725  34.7980006   6.6757599  77.3666002  34.9096648
  16.0672839  86.6132992  51.9316215  15.1799618  86.2758914  52.0542614
  16.6371390  85.8816023  52.1684981   2.5236709  77.8347280  49.6844290
   2.4394897  77.2272950  48.9494700   1.7019415  78.3256299  49.6853787
   9.5973993  91.2734445  48.8977459   9.5244164  92.0789416  49.4096763
   9.1551386  91.4726410  48.0725480   9.3863772  90.5106215  42.4080280
   8.6031294  91.0527895  42.5018505  10.0856518  91.0280194  42.8074521
  12.6960423  76.3200844  45.0514486  13.1929122  75.5670806  44.7315556
  11.9247404  76.3565161  44.4857695  20.5490180  82.0241210  46.6932777
  20.5380056  82.9065925  46.3226710  19.6807559  81.6712760  46.4987314
  12.0572676  91.1721279  51.0535617  12.7700649  91.8068743  50.9811519
  11.5662705  91.2685145  50.2375619  13.7790203  85.0772531  42.6252909
  12.8446482  85.1973994  42.4557613  13.9566872  84.1744998  42.3612919
   9.2795391  78.4618227  44.7786170   8.9093179  77.9089267  45.4667076
   9.7754484  77.8576360  44.2261170  17.1662755  80.9189851  43.1602943
  17.6323207  81.7517842  43.0863246  17.6170255  80.4534832  43.8648202
   7.1084590  88.9215722  51.8741188   7.8094049  89.5552205  52.0270582
   6.6379705  89.2630454  51.1136827  15.2338986  87.2633672  40.1589095
  15.5098830  87.1490266  41.0682969  14.3643484  86.8651157  40.1201268
  15.1379417  73.2870437  47.1993844  14.2242497  73.5174664  47.3676051
  15.5672519  73.3708882  48.0507877  14.9085876  81.4760329  49.6993738
  14.2557326  81.7236237  49.0446191  15.2866256  80.6624468  49.3656216
  11.8693050  91.5120023  43.8021909  12.0515444  90.6941679  44.2649661
  12.6926036  91.7287715  43.3646799  12.2035215  90.4388208  41.0636957
  12.7322982  89.9280662  40.4507119  12.4663435  90.1230738  41.9282490
  10.9573449  82.2180141  56.1859776  10.2814086  82.1174270  56.8562151
  11.7801083  82.0619354  56.6495773   2.7052308  88.4552077  48.8072291
   3.2905745  87.7095765  48.9400195   2.5077146  88.7656034  49.6908955
   5.5590963  91.4903324  43.8234733   4.8901338  91.9749452  43.3398773
   5.4203833  91.7372545  44.7378112   9.6996232  93.5247068  50.4217392
  10.2514540  93.6878689  51.1866477  10.0402425  94.1151506  49.7497416
   4.6760725  75.8722218  51.0239276   4.7402051  76.7337049  50.6116674
   4.6127845  75.2596219  50.2911635   4.1512997  77.9445350  54.6712310
   4.7785036  77.5622428  55.2849835   3.2940916  77.7259552  55.0368003
  14.5507106  88.3508325  56.2766046  15.0947010  88.9638284  55.7821001
  13.9693951  88.9087904  56.7933059  12.8364619  91.4729043  47.4081074
  12.7115758  90.6718783  46.8992019  13.4943710  91.9675237  46.9195044
   4.4572787  77.8277776  46.5858214   3.7359373  78.4413744  46.4465687
   5.2466043  78.3635541  46.5074860  14.8999527  89.2738064  49.0360624
  13.9529863  89.1543415  48.9638950  15.2482300  88.3860562  49.1186885
   7.2599101  75.1632202  52.8598866   7.7833503  75.4094499  53.6225175
   7.0411434  75.9952237  52.4402003   2.6566382  77.4335877  40.7269990
   2.3279088  76.5533256  40.5445096   3.0105752  77.3783546  41.6146380
  11.9045961  89.0690780  45.2364976  11.7570923  88.1407487  45.4172546
  12.7299454  89.0910871  44.7522051   5.7708205  77.7208847  41.0945468
   6.1104277  78.2494768  40.3724076   6.2180325  78.0589253  41.8704035
  15.5080083  89.8919339  46.3229849  16.4326630  89.6862200  46.1854300
  15.3395386  89.6435740  47.2319190   8.4651646  76.1045898  50.5448536
   8.1248466  75.3053711  50.9469216   7.7590652  76.4047608  49.9725369
   9.1168118  73.1895210  48.9975859   9.9394187  72.7155688  48.8754750
   9.3606181  73.9685694  49.4974546   7.7576352  76.2183468  39.2938761
   8.4784715  76.5964721  38.7902478   7.1341656  76.9372345  39.3973739
  11.9007475  76.9228617  40.2297093  12.1171089  77.8053255  39.9285921
  11.4201542  76.5314831  39.5002735   6.6406696  79.8814331  46.8067838
   6.4951277  80.1954634  47.6992119   6.1631900  80.4999231  46.2538736
   8.5003079  76.8716879  46.8548727   8.4864648  75.9757972  46.5181025
   9.2175507  76.8787542  47.4887013  10.3529210  77.3054219  48.9001855
  10.0946988  78.2271290  48.8986185   9.8214250  76.9084653  49.5902319
  15.2975399  90.4105006  41.6791940  15.4712276  89.8451428  40.9265793
  15.7904290  91.2105901  41.4971430   1.1152359  82.4219675  49.7455499
   0.5705827  83.1979483  49.8775773   1.9931708  82.7690480  49.5874620
   7.9039975  75.7531259  42.1236298   8.0255886  74.8247905  42.3227185
   7.6142018  75.7669945  41.2114613  10.7731166  73.4386169  45.2603017
  10.7952862  73.5025502  44.3054997  11.1899225  72.5990678  45.4543524
  21.1514790  83.1741429  43.2982240  21.5945936  82.4248754  42.9001363
  20.2741300  83.1651565  42.9155972  16.2850571  89.7271770  38.7788838
  16.9801476  90.3478463  38.9976153  16.6273721  88.8767122  39.0541216
   1.9018380  81.5489571  52.6385656   1.1600116  81.6972207  53.2250286
   1.5811125  81.8097837  51.7752405  18.1841994  87.1771476  40.3076169
  18.7093318  87.5158749  39.5825489  18.0964347  86.2418491  40.1239304
   9.8462043  91.0905550  52.4366046  10.1549169  90.8454696  53.3088745
  10.6437525  91.2952188  51.9484916   9.8682655  93.2443459  44.6671422
   9.4287645  92.7519838  45.3604279  10.6190772  92.7016427  44.4263498
   2.3474994  89.4355000  44.6696051   3.1733014  89.1358772  44.2894694
   1.9969046  88.6662622  45.1185839   7.3156527  88.7881468  46.7393724
   6.6936537  88.1252173  46.4395952   7.9861394  88.8142600  46.0567372
   7.3881055  77.2663256  56.3326230   7.4369210  78.1425379  55.9504000
   7.9303569  76.7240649  55.7597873  17.8735900  87.8104380  55.6127367
  17.0831444  87.7928518  55.0731867  17.6369255  88.3492673  56.3676404
  17.9933775  84.6596846  52.9260096  18.0431780  84.4946853  53.8675619
  17.8847699  83.7924105  52.5357977   6.8770034  87.3385392  40.2152185
   7.0258155  88.0220856  39.5618857   7.6836478  87.3190482  40.7301640
  15.2837538  80.6427774  54.2419402  16.1847401  80.5034239  53.9503400
  15.3585512  80.8082229  55.1817580   9.6180343  78.0194629  53.0872589
   8.7483653  78.3128195  52.8155177   9.8539824  78.6035074  53.8079852
  19.4951972  87.0793787  53.1702117  19.2036781  87.4423768  54.0065578
  18.8824104  86.3660796  52.9915449  20.6947655  84.6446667  45.6904688
  21.5294546  85.0836471  45.8542248  20.8306783  84.1685320  44.8712933
  17.7439161  82.2026402  51.6382175  18.2193282  82.3954048  50.8301027
  16.8204726  82.2585588  51.3925559   4.6322667  83.3650569  41.2213254
   4.3868709  82.4612899  41.4193464   4.8018582  83.3667720  40.2792732
  12.3219377  74.2374246  50.6038009  12.8401321  74.9735273  50.2784498
  11.9674510  74.5438239  51.4384768   3.9018315  79.0978927  38.7199415
   3.2087560  79.1723282  38.0639451   3.6570067  78.3339270  39.2420932
  12.5731971  70.6574528  46.1238906  12.8533725  69.9897717  46.7499332
  13.3582578  70.8503624  45.6113570  10.3765440  89.8333522  37.6863932
   9.8039407  90.4523709  37.2334404  10.9498233  90.3832884  38.2203854
  16.4440830  79.0792162  49.8710481  17.3958252  79.1790260  49.8922705
  16.2744280  78.2870431  50.3808565  14.4655209  76.1647745  50.0569882
  13.8705141  76.4452758  49.3616370  14.1804906  76.6541646  50.8286623
  13.5962699  90.1170672  38.8172514  14.5293373  90.0516234  39.0205390
  13.5085912  90.9526939  38.3587047  16.2250716  89.4336543  35.7776462
  16.1464348  89.0996406  36.6712220  17.0460383  89.9258310  35.7767934
  18.9228907  82.2998282  48.9852781  18.8905227  81.3614283  49.1712464
  19.5329531  82.3782319  48.2518605  10.7612238  81.1694335  35.0279985
  11.7071343  81.0400543  35.0968403  10.3826483  80.4308997  35.5049413
  19.0723396  79.0909325  49.0311064  18.5562444  78.3067782  48.8440993
  19.9563344  78.7628042  49.1957583  16.7334123  72.8350341  44.9906876
  16.5358944  72.5265429  45.8750208  17.3433828  73.5611980  45.1204806
  24.7405457  83.3614289  48.1258817  25.4708846  83.0999577  48.6866521
  24.1312403  82.6243011  48.1660885  22.8220754  81.5022151  48.7233269
  22.0953918  81.3678116  48.1149760  22.4068041  81.8098980  49.5289987
  10.6450931  85.2212081  56.4880642  11.5653940  85.3990680  56.6820688
  10.6100514  84.2768126  56.3360341   8.9455155  79.0944311  34.9634870
   8.0386611  78.7977424  35.0397583   9.2231136  78.7974129  34.0969156
   3.6413003  83.1313116  49.1303423   3.8599013  84.0630223  49.1491457
   4.0538777  82.7721090  49.9158227  10.5617221  73.6381201  41.1179111
   9.7517949  73.2928286  41.4934357  11.2501638  73.3288745  41.7066723
  12.4907769  72.7159248  42.7403408  13.0438808  73.1354701  43.3993431
  12.7277856  71.7894996  42.7826364   8.5140869  78.7046321  58.5206172
   8.4137595  79.6540678  58.4518263   8.2962411  78.3764560  57.6482242
   7.7153940  75.9531246  35.1046849   8.5773104  76.2786145  35.3642666
   7.9004284  75.1662742  34.5919915  15.8686576  74.8259773  42.2482072
  15.2885245  75.4844577  41.8660124  15.6022509  74.0037117  41.8369489
  14.3190143  74.2264831  44.4503392  14.8189921  74.3381365  43.6417711
  14.9625751  73.9225883  45.0904201   8.3772139  82.1343460  57.3371233
   7.8939220  82.9343820  57.5435122   8.4633078  82.1451405  56.3838677
   1.6458098  83.9671840  45.2593053   1.6228786  84.0659527  44.3074936
   1.9558735  84.8136991  45.5810219   4.3045476  86.0247995  49.3739667
   5.2588730  85.9931937  49.3069599   4.1058000  85.5638619  50.1889893
   4.8944858  84.5949111  51.9410465   5.7137747  85.0893190  51.9645302
   5.1681666  83.6781079  51.9128032  14.6511454  76.9859863  41.3038420
  13.7637309  77.2709514  41.0858615  15.0665444  76.8253627  40.4565697
  18.0025991  77.0106384  45.0192759  18.7786381  77.5002837  45.2917376
  17.2774125  77.4364438  45.4764629  20.4398549  77.7234003  46.0766700
  21.0343040  77.4829739  45.3660008  20.5125133  77.0041134  46.7040236
   2.6595705  91.5667614  46.3909865   2.5250173  90.8068015  45.8247863
   2.2427767  92.2908514  45.9238654  13.7954668  86.7504538  35.3986440
  14.4990518  86.9554540  36.0144096  13.0717317  87.3181300  35.6635524
  14.6252478  82.5014399  41.5188710  14.5687680  82.9582951  40.6796343
  15.1780821  81.7405084  41.3411553  18.4357284  78.2904131  42.3438830
  18.1794218  77.8900767  43.1747038  17.8110152  79.0047925  42.2188969
  22.7469622  81.0300204  44.8510121  22.1869180  81.0993394  45.6241683
  22.1413125  80.8541189  44.1309618   5.8164831  92.4636931  46.6028308
   5.6997215  93.4082364  46.5006998   4.9957277  92.1610493  46.9914107
  15.7041365  87.1887067  37.4484900  16.5386969  86.7568266  37.2662375
  15.5425708  87.0169081  38.3761795  15.3587257  83.6919180  38.8141240
  15.3036061  83.5263452  37.8729684  14.7333313  84.3995213  38.9703429
  12.6733165  85.9968092  58.1394802  13.5424324  86.1708745  57.7781437
  12.1939916  86.8162509  58.0170532   8.6683383  73.1927289  38.3926558
   8.6562053  74.1369129  38.5494829   9.5606805  73.0097435  38.0986019
   6.8419345  93.1165193  49.8184236   7.7446592  93.1488804  50.1350731
   6.6156715  92.1865644  49.8330572   8.5972947  91.8696180  46.4794315
   7.6468578  91.8698041  46.3658687   8.9005433  91.1228914  45.9630349
  12.4835502  69.7870066  42.6472495  11.7167898  69.2328553  42.7929177
  12.8946207  69.8591935  43.5086646   4.4877263  76.0754862  56.7377676
   5.3508725  75.7191667  56.9481001   3.9142674  75.7368757  57.4253080
  24.3325640  97.7056718  47.5440077  24.9704050  97.5863466  46.8403417
  24.2146483  98.6537562  47.6028029  21.1415347  97.6584146  47.4801602
  20.8033858  97.5425211  46.5922137  22.0105115  97.2575311  47.4602608
  17.0002162  99.5119623  43.4698493  16.4367028  99.4209560  42.7014780
  16.8854557  98.6919527  43.9500985  21.6235130  98.8118998  53.4387807
  21.6123770  98.4171796  52.5668311  21.7855769  98.0785071  54.0321579
  14.5466594 101.0070814  46.3082713  15.3387886 100.6661639  45.8929012
  14.7863244 101.1165789  47.2284866  22.5801721 103.1790590  38.7812958
  21.9289701 103.7644671  38.3946971  23.3746084 103.7096785  38.8407995
  16.5057348 100.2679728  39.1800092  17.2788224  99.7208715  39.0412968
  16.8582747 101.1323977  39.3914553  18.3442391 101.5956110  52.3866991
  18.0532257 102.5001741  52.2713658  18.9799375 101.6372638  53.1011061
  19.2698598  98.9732958  48.9768351  19.8662170  98.7488981  48.2625314
  19.3273569  98.2317704  49.5793799  18.8423626  96.4272394  36.8118542
  19.0949147  95.9053915  36.0502005  17.9048185  96.2638539  36.9145225
  23.8866909  95.4308172  44.6193285  24.6729998  95.0127595  44.2683702
  24.1505613  96.3354264  44.7874933  24.0576986 100.8681022  39.3181942
  23.4222819 100.9415649  40.0302847  23.7274393 101.4574621  38.6401021
  29.2875336  95.3683405  45.5226264  30.0200508  94.7982622  45.7564093
  28.5314692  94.9805006  45.9632769  18.5619915  98.3300500  39.0142917
  18.4456173  97.6545403  39.6824001  18.6722175  97.8432874  38.1975070
  20.9051456  97.7910647  42.7189606  20.5409663  97.2641268  43.4302528
  21.7618572  97.4009116  42.5456091  26.8100756  89.0804979  49.9820872
  26.4784081  89.9500390  49.7582087  26.2146370  88.7641263  50.6614903
  20.5456943  92.8200546  37.7150955  20.7131345  93.6880783  38.0821426
  20.3554112  92.9827828  36.7912244  23.3032276 101.2817525  49.3816785
  23.0032999 102.1842564  49.2732592  22.9583335 101.0149709  50.2337938
  16.7544757  97.7331322  45.4153489  15.8295254  97.6007536  45.6231181
  17.0029171  98.5125541  45.9123432  26.7029420  93.8000066  47.0614222
  25.7946297  93.7315474  46.7672983  26.6517015  94.2772011  47.8896048
  20.5246164  95.2758204  38.6997621  20.4045789  95.7215255  39.5383102
  19.8298752  95.6243522  38.1411160  14.1153568  97.3764596  46.2497278
  14.2445950  97.6299075  47.1636690  13.4351020  97.9692304  45.9301933
  20.7770285  95.2189711  55.0049120  20.0003620  95.7783631  54.9951984
  21.4160849  95.7046494  55.5263990  28.5691066  92.0016504  48.8392096
  27.9265446  92.2949037  48.1931891  28.0645995  91.8869424  49.6445293
  26.2231230  95.7479677  39.5277955  27.1349086  95.9807064  39.3525653
  25.7140877  96.3316721  38.9653034  19.0316658  98.0275165  54.5667087
  19.7731342  98.5660209  54.2901910  18.3253643  98.6541453  54.7238638
  24.5071997 100.1704305  53.1639248  24.9155353  99.7286716  52.4193880
  23.7849259  99.5956933  53.4173441  20.8603067  95.1076912  50.5372805
  21.7064263  95.5316325  50.6807454  20.8001705  94.4510536  51.2311368
  24.8300812 100.7305496  46.9191537  24.2009675 100.8951210  46.2167605
  24.4426474 101.1447105  47.6902501  28.7090044 101.6659933  44.2735901
  28.0241082 102.0458835  43.7232934  28.7933893 102.2755260  45.0067848
  24.0102513  92.7681280  52.1953979  23.7663445  93.5223341  51.6588254
  24.2862443  93.1466628  53.0301226  25.9640976  99.3119893  50.8731244
  26.1757871  99.9551652  50.1965625  25.9170724  98.4782209  50.4053174
  23.5667205  91.9237713  47.7767816  22.7051684  92.2218967  48.0684554
  23.5929639  92.1408112  46.8448849  20.3828774 100.4679904  44.1841622
  20.8467119 100.7467607  43.3946244  20.1185572  99.5663348  44.0014713
  17.2752855 100.0151385  47.1221385  17.8454212 100.4438654  46.4838870
  17.8660967  99.7333970  47.8205571  19.3197660  96.5903056  40.9931187
  20.0221703  97.0424100  41.4605113  18.9878288  95.9486875  41.6211080
  17.7678022  95.1814813  55.3682397  17.1376682  95.8631094  55.6017793
  17.6614109  95.0697894  54.4235535  13.0622994  94.8486609  46.2948321
  12.2722048  95.1044137  45.8188431  13.5534241  95.6634947  46.4000361
  27.0786804 102.1891848  49.0453602  27.9004247 101.7872035  48.7636283
  27.0749206 102.0860082  49.9969717  15.0137739  95.2131188  43.2531797
  14.2168903  95.3249882  43.7715293  14.7863332  95.5517840  42.3872688
  20.8443407 101.7375891  51.2014312  20.9087839 102.1996298  52.0372484
  20.1354331 101.1073256  51.3296622  11.3460697  95.1017099  48.7263311
  11.5968735  95.9864109  48.9920887  11.8820245  94.9221701  47.9538403
  35.1692797  98.5330596  45.3938573  34.4156505  97.9637994  45.2382577
  35.3040338  98.4993261  46.3409208  20.5591425 103.4043999  41.0693292
  20.4237099 104.2495534  41.4978140  21.1001237 103.6063276  40.3059226
  17.0458764  89.4835579  57.7307648  16.6525710  88.9301777  58.4055292
  17.8624905  89.7946157  58.1214165  14.0120822 100.9219437  41.6421217
  14.5245343 101.7162687  41.7926782  14.6643535 100.2245727  41.5754819
  15.8215707 104.0385193  43.7243971  15.9982335 104.9603158  43.5364954
  16.6172540 103.7243612  44.1538350  19.9626725  90.8993458  55.3227904
  20.7036439  91.5000611  55.2432367  20.1944648  90.1571095  54.7645947
  15.1068063  96.0849825  53.6006134  14.9921578  95.1835082  53.9013233
  14.2512581  96.3313522  53.2490950  22.1859901 104.0267565  55.1993634
  21.7423755 103.2403944  54.8814539  22.8477115 104.2146716  54.5337525
  16.9447022 105.5563367  49.7254313  17.4954447 105.4280430  48.9531307
  16.1058498 105.8558256  49.3749206  24.2841139 104.3070365  53.2275036
  24.2659614 105.1279246  52.7355305  25.2061059 104.1824440  53.4525177
  20.7414193 101.8214495  54.0698544  21.2742530 101.0602783  53.8397852
  20.2128274 101.5288146  54.8122699  23.9083888  86.9274561  49.5992186
  23.5648158  87.8176202  49.5231296  24.2762851  86.7376218  48.7361771
  11.9769739  99.2508091  42.4180788  12.8144961  99.6605099  42.2014496
  12.1548006  98.3107533  42.3880982  23.8734171  96.9183172  38.1064621
  23.3580794  97.6887776  38.3453008  23.6011479  96.2448308  38.7297682
  21.4581282  91.7632872  43.1649859  20.6022878  91.3739723  42.9855498
  21.8708234  91.8424833  42.3049645  22.9880429  89.2979216  47.5641419
  22.4845224  89.2609351  46.7509224  23.2811035  90.2071958  47.6238076
  19.2323314  89.3817945  46.5707601  20.0976311  89.1860754  46.2113490
  19.3000823  89.1528297  47.4976958  28.8468445  99.6715526  40.0417794
  28.0697888  99.3326686  39.5972956  29.5259926  99.6768150  39.3672759
  23.6620474  94.7910264  39.9324402  23.3570610  95.1056413  40.7834545
  24.6150916  94.8691684  39.9751735  22.1066906 100.9500487  41.5817356
  21.5788267 100.2153247  41.2690594  21.6054409 101.7275163  41.3357324
  27.0859752  99.1449508  46.6984402  26.4283426  99.8348769  46.7864531
  27.8900151  99.5345940  47.0418389  16.8385634  91.6120153  43.9423968
  17.4129385  91.3895335  43.2097161  17.4256616  91.6808848  44.6952569
  25.8965211  97.4993880  44.7488344  26.4097092  98.1323872  45.2510054
  26.5466435  96.8995076  44.3831704  17.1655221  93.6424614  37.9619853
  16.3292533  93.9799301  38.2829128  17.0259990  93.5073594  37.0246990
  19.1408301  88.4861402  42.6699037  18.4872714  88.1710419  42.0455652
  19.0988775  87.8637143  43.3958860  20.2519506  98.7680697  34.5852329
  19.3446568  98.5369951  34.7843478  20.7490538  97.9718317  34.7726311
  23.1587585 107.4778205  37.5049015  22.4849284 107.7809901  38.1133973
  23.5453407 108.2807285  37.1554472  22.3746042  94.9743336  46.9946685
  21.4568603  95.1958283  46.8368373  22.7906185  95.0489646  46.1358392
  23.1581089  96.3734752  42.1249365  23.9052908  96.8856149  41.8156487
  23.4272679  96.0518804  42.9853758  21.4307740  98.8693292  39.1076319
  20.5218959  98.5852325  39.2048789  21.4602823  99.2892371  38.2479626
  26.6627007 102.4799882  42.8767487  26.2089334 101.6390792  42.9332677
  26.0320974 103.1161280  43.2142267  25.6059927  93.4091868  44.1068154
  24.8682683  92.8969254  44.4378397  25.8586700  92.9692249  43.2951431
  25.1059946 104.3176378  43.8117305  25.3982921 104.8781436  43.0929671
  25.6158567 104.6104939  44.5670464  25.7071554  86.1868120  44.7009923
  26.0130431  85.3265483  44.4135839  26.4324159  86.7785740  44.5008917
  11.9995910  96.5898806  43.0891521  11.8020310  95.9968167  42.3642588
  11.4442574  96.2851017  43.8067460  19.9792634  96.4821913  45.2086115
  20.0341243  95.5295749  45.1328591  19.1683836  96.6381352  45.6927413
  21.1283827 100.4102036  36.4464398  20.6903257  99.6937895  35.9870035
  21.8694268 100.6378151  35.8849489  17.9184994  95.0998973  42.9676493
  17.1052859  95.3993143  43.3741686  18.4143988  94.7054661  43.6850976
  20.0693571 105.0956730  44.9010758  20.0269750 105.3217576  43.9719290
  20.9856270 104.8620104  45.0496559  23.5159205  95.5640797  51.7991387
  23.8708593  95.7912270  52.6585853  24.1631336  95.8959174  51.1768643
  29.2456942  98.6859233  42.5040716  29.1074841  98.8760829  41.5761906
  28.8893161  99.4478616  42.9608767  17.4099068  92.6717328  48.5837728
  18.0498448  92.5306087  47.8860692  16.5776599  92.3851842  48.2076330
  29.2726322 100.7535760  47.5151988  29.7062828 100.6611049  48.3635042
  29.9857902 100.7293260  46.8772004  18.1859372 101.9719759  44.6972721
  18.9799971 101.4770079  44.4955296  17.4751065 101.4437622  44.3340426
  23.0054217 104.3537854  49.0485088  23.0591239 104.9228790  49.8162804
  22.1368998 104.5239739  48.6839126  14.4942136  96.1162840  40.7732474
  13.5639724  96.0547296  40.9902436  14.5899608  95.5938793  39.9769115
  14.4127685  92.6417653  43.3610715  14.6734502  93.5562986  43.2519876
  15.2344857  92.1742096  43.5107328  15.8852610  94.0555410  50.5309540
  16.5575663  93.8472772  49.8822189  15.0582397  93.8577496  50.0914772
  30.1341871 100.7959461  50.0484873  30.3277761 101.7005271  50.2944148
  30.0342489 100.3366880  50.8823458  21.7878182  90.6817351  52.5475201
  21.1406097  91.3807301  52.4539677  22.5579197  91.1153495  52.9151449
  25.1956980 100.9466203  55.6225754  25.0442486 100.7176755  54.7055838
  25.1861659 101.9036805  55.6357099  21.9642316  98.5198116  50.6072020
  22.8934376  98.6709276  50.4340988  21.5433346  98.6082137  49.7520667
  20.7630648 102.5448781  48.3770558  20.6241734 102.1767565  49.2496496
  19.9745244 103.0596420  48.2054516  21.3578800 107.6457877  39.7196094
  21.5330556 107.1745920  40.5341717  20.6711588 108.2723643  39.9477355
  22.3135863 101.9230383  45.7659396  21.9785696 101.8831153  46.6617046
  21.8139809 101.2575099  45.2929806  16.2880107  97.3298013  51.2911977
  16.1499905  96.5978252  51.8923516  17.1985031  97.2406913  51.0096165
  25.2495055  99.2686418  36.0396455  24.6324226  98.5433246  35.9429508
  24.7811543 100.0295778  35.6963530  18.9162408  97.0417973  50.7795657
  19.6262026  96.4011165  50.7382275  18.8731716  97.2930867  51.7021837
  26.9049187 103.9785326  53.7002236  26.8461733 103.2944546  53.0332819
  27.3068705 104.7204316  53.2482862  17.6291342  94.0283190  52.5991296
  17.0928699  93.5773929  53.2512892  17.0408050  94.1629099  51.8561760
  17.0393601  93.4871842  35.1617760  16.1623067  93.3660643  34.7980006
  17.5151354  92.6957920  34.9096648  26.9066594 101.9424910  51.9316215
  26.0193373 101.6050832  52.0542614  27.4765145 101.2107941  52.1684981
   8.5595741  98.2749002  45.2559267   9.2466781  97.9610732  44.6680282
   8.4043870  99.1790366  44.9826518  13.3630463  93.1639198  49.6844290
  13.2788652  92.5564868  48.9494700  12.5413170  93.6548216  49.6853787
  20.4367747 106.6026362  48.8977459  20.3637919 107.4081334  49.4096763
  19.9945140 106.8018328  48.0725480  20.2257527 105.8398132  42.4080280
  19.4425049 106.3819812  42.5018505  20.9250272 106.3572112  42.8074521
  23.5354177  91.6492762  45.0514486  24.0322877  90.8962724  44.7315556
  22.7641159  91.6857078  44.4857695  31.3883934  97.3533127  46.6932777
  31.3773811  98.2357843  46.3226710  30.5201314  97.0004678  46.4987314
  22.8966431 106.5013196  51.0535617  23.6094403 107.1360661  50.9811519
  22.4056459 106.5977062  50.2375619  24.6183958 100.4064449  42.6252909
  23.6840236 100.5265911  42.4557613  24.7960626  99.5036916  42.3612919
  20.1189146  93.7910145  44.7786170  19.7486933  93.2381185  45.4667076
  20.6148238  93.1868278  44.2261170  28.0056509  96.2481768  43.1602943
  28.4716961  97.0809760  43.0863246  28.4564010  95.7826750  43.8648202
  17.9478344 104.2507640  51.8741188  18.6487804 104.8844123  52.0270582
  17.4773459 104.5922371  51.1136827  26.0732740 102.5925589  40.1589095
  26.3492584 102.4782184  41.0682969  25.2037239 102.1943074  40.1201268
  25.9773172  88.6162355  47.1993844  25.0636252  88.8466582  47.3676051
  26.4066273  88.7000799  48.0507877  25.7479630  96.8052247  49.6993738
  25.0951081  97.0528155  49.0446191  26.1260010  95.9916385  49.3656216
  22.7086804 106.8411940  43.8021909  22.8909199 106.0233596  44.2649661
  23.5319790 107.0579633  43.3646799  23.0428970 105.7680125  41.0636957
  23.5716736 105.2572580  40.4507119  23.3057189 105.4522656  41.9282490
  21.7967203  97.5472058  56.1859776  21.1207840  97.4466188  56.8562151
  22.6194837  97.3911272  56.6495773  13.5446062 103.7843995  48.8072291
  14.1299499 103.0387683  48.9400195  13.3470901 104.0947951  49.6908955
   8.1363717  96.3549595  47.5276734   8.1747817  95.8213186  48.3213852
   7.6304010  95.8284800  46.9087711  15.5154479  91.2014135  51.0239276
  15.5795806  92.0628966  50.6116674  15.4521600  90.5888137  50.2911635
  14.9906752  93.2737268  54.6712310  15.6178791  92.8914345  55.2849835
  14.1334671  93.0551470  55.0368003  25.3900861 103.6800243  56.2766046
  25.9340765 104.2930201  55.7821001  24.8087705 104.2379822  56.7933059
  11.7672295  95.0813697  40.6030665  12.0625736  94.1724376  40.5497719
  10.8660330  95.0601437  40.2811668  23.6758373 106.8020961  47.4081074
  23.5509513 106.0010701  46.8992019  24.3337465 107.2967155  46.9195044
  15.2966542  93.1569694  46.5858214  14.5753127  93.7705661  46.4465687
  16.0859797  93.6927458  46.5074860  25.7393282 104.6029981  49.0360624
  24.7923617 104.4835332  48.9638950  26.0876055 103.7152479  49.1186885
  18.0992855  90.4924120  52.8598866  18.6227257  90.7386417  53.6225175
  17.8805189  91.3244155  52.4402003  13.4960136  92.7627795  40.7269990
  13.1672842  91.8825174  40.5445096  13.8499507  92.7075463  41.6146380
  22.7439715 104.3982697  45.2364976  22.5964678 103.4699405  45.4172546
  23.5693209 104.4202788  44.7522051  16.6101959  93.0500765  41.0945468
  16.9498032  93.5786686  40.3724076  17.0574080  93.3881171  41.8704035
  26.3473837 105.2211256  46.3229849  27.2720384 105.0154118  46.1854300
  26.1789140 104.9727657  47.2319190  19.3045400  91.4337815  50.5448536
  18.9642221  90.6345628  50.9469216  18.5984407  91.7339526  49.9725369
  19.9561872  88.5187128  48.9975859  20.7787941  88.0447606  48.8754750
  20.1999936  89.2977611  49.4974546  18.5970107  91.5475386  39.2938761
  19.3178469  91.9256639  38.7902478  17.9735411  92.2664263  39.3973739
  22.7401229  92.2520535  40.2297093  22.9564844  93.1345173  39.9285921
  22.2595297  91.8606749  39.5002735  17.4800451  95.2106248  46.8067838
  17.3345032  95.5246551  47.6992119  17.0025654  95.8291149  46.2538736
  19.3396834  92.2008796  46.8548727  19.3258402  91.3049890  46.5181025
  20.0569262  92.2079460  47.4887013  21.1922964  92.6346137  48.9001855
  20.9340742  93.5563207  48.8986185  20.6608005  92.2376571  49.5902319
  26.1369153 105.7396924  41.6791940  26.3106031 105.1743346  40.9265793
  26.6298044 106.5397819  41.4971430  11.9546113  97.7511593  49.7455499
  11.4099581  98.5271401  49.8775773  12.8325463  98.0982397  49.5874620
  18.7433730  91.0823177  42.1236298  18.8649641  90.1539823  42.3227185
  18.4535772  91.0961863  41.2114613  21.6124920  88.7678087  45.2603017
  21.6346617  88.8317420  44.3054997  22.0292979  87.9282596  45.4543524
  31.9908544  98.5033347  43.2982240  32.4339690  97.7540672  42.9001363
  31.1135055  98.4943483  42.9155972  27.1244326 105.0563688  38.7788838
  27.8195230 105.6770381  38.9976153  27.4667476 104.2059039  39.0541216
  12.7412135  96.8781489  52.6385656  11.9993871  97.0264124  53.2250286
  12.4204879  97.1389755  51.7752405  29.0235749 102.5063394  40.3076169
  29.5487073 102.8450666  39.5825489  28.9358101 101.5710409  40.1239304
  20.6855798 106.4197467  52.4366046  20.9942924 106.1746614  53.3088745
  21.4831280 106.6244106  51.9484916  13.1868749 104.7646918  44.6696051
  14.0126768 104.4650690  44.2894694  12.8362801 103.9954540  45.1185839
  18.1550282 104.1173386  46.7393724  17.5330291 103.4544091  46.4395952
  18.8255149 104.1434518  46.0567372  11.3877354 102.6833244  45.6284984
  10.5509262 102.2555419  45.4468985  11.3600999 102.8765688  46.5655775
  18.2274809  92.5955174  56.3326230  18.2762965  93.4717297  55.9504000
  18.7697323  92.0532567  55.7597873  28.7129655 103.1396297  55.6127367
  27.9225199 103.1220436  55.0731867  28.4763009 103.6784591  56.3676404
  28.8327530  99.9888764  52.9260096  28.8825535  99.8238771  53.8675619
  28.7241453  99.1216023  52.5357977  17.7163789 102.6677309  40.2152185
  17.8651909 103.3512774  39.5618857  18.5230232 102.6482399  40.7301640
  26.1231292  95.9719692  54.2419402  27.0241155  95.8326156  53.9503400
  26.1979267  96.1374146  55.1817580  20.4574098  93.3486546  53.0872589
  19.5877407  93.6420112  52.8155177  20.6933578  93.9326991  53.8079852
  30.3345727 102.4085705  53.1702117  30.0430535 102.7715686  54.0065578
  29.7217858 101.6952713  52.9915449  31.5341409  99.9738585  45.6904688
  32.3688300 100.4128389  45.8542248  31.6700538  99.4977238  44.8712933
  28.5832915  97.5318320  51.6382175  29.0587037  97.7245966  50.8301027
  27.6598480  97.5877506  51.3925559  15.4716422  98.6942487  41.2213254
  15.2262464  97.7904817  41.4193464  15.6412336  98.6959637  40.2792732
  23.1613131  89.5666163  50.6038009  23.6795075  90.3027190  50.2784498
  22.8068264  89.8730157  51.4384768  14.7412069  94.4270845  38.7199415
  14.0481314  94.5015199  38.0639451  14.4963821  93.6631188  39.2420932
  23.4125726  85.9866446  46.1238906  23.6927479  85.3189635  46.7499332
  24.1976333  86.1795541  45.6113570  21.2159194 105.1625440  37.6863932
  20.6433161 105.7815627  37.2334404  21.7891988 105.7124801  38.2203854
  27.2834584  94.4084080  49.8710481  28.2352007  94.5082178  49.8922705
  27.1138034  93.6162348  50.3808565  25.3048963  91.4939663  50.0569882
  24.7098896  91.7744676  49.3616370  25.0198660  91.9833564  50.8286623
  24.4356454 105.4462590  38.8172514  25.3687127 105.3808152  39.0205390
  24.3479667 106.2818857  38.3587047  27.0644471 104.7628460  35.7776462
  26.9858102 104.4288324  36.6712220  27.8854137 105.2550228  35.7767934
  29.7622662  97.6290200  48.9852781  29.7298982  96.6906200  49.1712464
  30.3723285  97.7074236  48.2518605  21.6005993  96.4986253  35.0279985
  22.5465097  96.3692461  35.0968403  21.2220238  95.7600914  35.5049413
  29.9117150  94.4201243  49.0311064  29.3956199  93.6359700  48.8440993
  30.7957099  94.0919960  49.1957583  27.5727877  88.1642259  44.9906876
  27.3752698  87.8557347  45.8750208  28.1827583  88.8903897  45.1204806
  35.5799212  98.6906206  48.1258817  36.3102600  98.4291494  48.6866521
  34.9706157  97.9534928  48.1660885  33.6614509  96.8314069  48.7233269
  32.9347672  96.6970034  48.1149760  33.2461796  97.1390898  49.5289987
  21.4844685 100.5503999  56.4880642  22.4047695 100.7282598  56.6820688
  21.4494268  99.6060044  56.3360341  19.7848910  94.4236229  34.9634870
  18.8780365  94.1269342  35.0397583  20.0624891  94.1266047  34.0969156
  10.7026850  95.7442592  45.4133916  10.3829635  94.8907900  45.1208290
  10.1560278  95.9591170  46.1691884  14.4806758  98.4605033  49.1303423
  14.6992768  99.3922141  49.1491457  14.8932532  98.1013008  49.9158227
  21.4010976  88.9673119  41.1179111  20.5911704  88.6220204  41.4934357
  22.0895392  88.6580662  41.7066723  23.3301524  88.0451165  42.7403408
  23.8832562  88.4646619  43.3993431  23.5671610  87.1186914  42.7826364
  19.3534623  94.0338239  58.5206172  19.2531350  94.9832596  58.4518263
  19.1356165  93.7056478  57.6482242  18.5547694  91.2823164  35.1046849
  19.4166858  91.6078062  35.3642666  18.7398039  90.4954660  34.5919915
  10.5715110  99.3645504  47.3827038   9.8778582  98.9499457  46.8696992
  11.3188101  99.4066040  46.7860457  26.7080331  90.1551691  42.2482072
  26.1279000  90.8136495  41.8660124  26.4416264  89.3329035  41.8369489
  25.1583897  89.5556748  44.4503392  25.6583676  89.6673283  43.6417711
  25.8019505  89.2517801  45.0904201  19.2165893  97.4635378  57.3371233
  18.7332975  98.2635738  57.5435122  19.3026832  97.4743323  56.3838677
  12.4851853  99.2963758  45.2593053  12.4622541  99.3951445  44.3074936
  12.7952489 100.1428908  45.5810219  15.1439231 101.3539913  49.3739667
  16.0982484 101.3223855  49.3069599  14.9451754 100.8930536  50.1889893
  15.7338613  99.9241029  51.9410465  16.5531502 100.4185107  51.9645302
  16.0075420  99.0072997  51.9128032  25.4905209  92.3151781  41.3038420
  24.6031064  92.6001432  41.0858615  25.9059198  92.1545544  40.4565697
  28.8419745  92.3398302  45.0192759  29.6180135  92.8294754  45.2917376
  28.1167879  92.7656356  45.4764629  31.2792304  93.0525921  46.0766700
  31.8736794  92.8121657  45.3660008  31.3518887  92.3333052  46.7040236
  24.6348422 102.0796456  35.3986440  25.3384273 102.2846458  36.0144096
  23.9111071 102.6473218  35.6635524  25.4646233  97.8306317  41.5188710
  25.4081434  98.2874868  40.6796343  26.0174575  97.0697001  41.3411553
  29.2751039  93.6196049  42.3438830  29.0187973  93.2192684  43.1747038
  28.6503907  94.3339843  42.2188969  33.5863376  96.3592122  44.8510121
  33.0262934  96.4285311  45.6241683  32.9806880  96.1833107  44.1309618
  26.5435120 102.5178985  37.4484900  27.3780724 102.0860183  37.2662375
  26.3819463 102.3460999  38.3761795  26.1981012  99.0211098  38.8141240
  26.1429816  98.8555370  37.8729684  25.5727067  99.7287131  38.9703429
  10.9873527  94.2579163  52.6402662  11.6332391  93.7478116  53.1289887
  10.7790678  94.9947844  53.2146087  23.5126919 101.3260010  58.1394802
  24.3818079 101.5000662  57.7781437  23.0333671 102.1454427  58.0170532
  19.5077137  88.5219207  38.3926558  19.4955807  89.4661047  38.5494829
  20.4000559  88.3389353  38.0986019  19.4366701 107.1988098  46.4794315
  18.4862332 107.1989959  46.3658687  19.7399188 106.4520832  45.9630349
  23.3229257  85.1161984  42.6472495  22.5561653  84.5620470  42.7929177
  23.7339962  85.1883853  43.5086646  15.3271018  91.4046780  56.7377676
  16.1902480  91.0483584  56.9481001  14.7536429  91.0660674  57.4253080
  34.7260663 110.7600090  44.6193285  35.5123753 110.3419513  44.2683702
  34.9899368 111.6646182  44.7874933  40.1269091 110.6975323  45.5226264
  40.8594262 110.1274540  45.7564093  39.3708446 110.3096923  45.9632769
  37.6494511 104.4096897  49.9820872  37.3177836 105.2792308  49.7582087
  37.0540124 104.0933181  50.6614903  31.3850697 108.1492464  37.7150955
  31.5525100 109.0172701  38.0821426  31.1947866 108.3119746  36.7912244
  37.5423174 109.1291983  47.0614222  36.6340052 109.0607392  46.7672983
  37.4910770 109.6063928  47.8896048  31.3639918 110.6050122  38.6997621
  31.2439543 111.0507172  39.5383102  30.6692506 110.9535439  38.1411160
  31.6164040 110.5481629  55.0049120  30.8397374 111.1075549  54.9951984
  32.2554603 111.0338412  55.5263990  39.4084821 107.3308422  48.8392096
  38.7659201 107.6240955  48.1931891  38.9039749 107.2161342  49.6445293
  37.0624984 111.0771595  39.5277955  37.9742840 111.3098982  39.3525653
  36.5534631 111.6608639  38.9653034  31.6996822 110.4368829  50.5372805
  32.5458017 110.8608243  50.6807454  31.6395460 109.7802454  51.2311368
  34.8496267 108.0973198  52.1953979  34.6057199 108.8515258  51.6588254
  35.1256198 108.4758545  53.0301226  34.4060959 107.2529631  47.7767816
  33.5445438 107.5510884  48.0684554  34.4323394 107.4700030  46.8448849
  46.0086551 113.8622514  45.3938573  45.2550259 113.2929912  45.2382577
  46.1434092 113.8285179  46.3409208  27.8852519 104.8127496  57.7307648
  27.4919464 104.2593695  58.4055292  28.7018659 105.1238075  58.1214165
  30.8020480 106.2285375  55.3227904  31.5430193 106.8292528  55.2432367
  31.0338403 105.4863013  54.7645947  34.7477643 102.2566478  49.5992186
  34.4041912 103.1468120  49.5231296  35.1156605 102.0668136  48.7361771
  34.7127925 112.2475089  38.1064621  34.1974549 113.0179694  38.3453008
  34.4405234 111.5740226  38.7297682  32.2975036 107.0924790  43.1649859
  31.4416633 106.7031641  42.9855498  32.7101988 107.1716751  42.3049645
  33.8274183 104.6271133  47.5641419  33.3238979 104.5901269  46.7509224
  34.1204790 105.5363876  47.6238076  30.0717069 104.7109863  46.5707601
  30.9370066 104.5152672  46.2113490  30.1394578 104.4820215  47.4976958
  39.6862200 115.0007444  40.0417794  38.9091642 114.6618604  39.5972956
  40.3653680 115.0060067  39.3672759  34.5014229 110.1202181  39.9324402
  34.1964364 110.4348331  40.7834545  35.4544671 110.1983601  39.9751735
  27.6779388 106.9412071  43.9423968  28.2523140 106.7187253  43.2097161
  28.2650370 107.0100766  44.6952569  36.7358965 112.8285798  44.7488344
  37.2490847 113.4615790  45.2510054  37.3860189 112.2286993  44.3831704
  28.0048975 108.9716532  37.9619853  27.1686287 109.3091219  38.2829128
  27.8653745 108.8365512  37.0246990  29.9802056 103.8153320  42.6699037
  29.3266468 103.5002337  42.0455652  29.9382530 103.1929060  43.3958860
  33.2139796 110.3035254  46.9946685  32.2962357 110.5250201  46.8368373
  33.6299940 110.3781564  46.1358392  33.9974844 111.7026669  42.1249365
  34.7446663 112.2148066  41.8156487  34.2666433 111.3810722  42.9853758
  36.4453681 108.7383785  44.1068154  35.7076438 108.2261172  44.4378397
  36.6980455 108.2984167  43.2951431  36.5465308 101.5160037  44.7009923
  36.8524185 100.6557401  44.4135839  37.2717913 102.1077658  44.5008917
  28.7578748 110.4290890  42.9676493  27.9446614 110.7285061  43.3741686
  29.2537742 110.0346579  43.6850976  34.3552960 110.8932715  51.7991387
  34.7102347 111.1204188  52.6585853  35.0025091 111.2251092  51.1768643
  40.0850697 114.0151151  42.5040716  39.9468595 114.2052747  41.5761906
  39.7286915 114.7770533  42.9608767  28.2492823 108.0009246  48.5837728
  28.8892202 107.8598005  47.8860692  27.4170353 107.7143759  48.2076330
  25.2521439 107.9709571  43.3610715  25.5128256 108.8854904  43.2519876
  26.0738611 107.5034013  43.5107328  26.7246365 109.3847328  50.5309540
  27.3969418 109.1764690  49.8822189  25.8976151 109.1869414  50.0914772
  32.6271937 106.0109269  52.5475201  31.9799852 106.7099219  52.4539677
  33.3972952 106.4445413  52.9151449  28.4685096 109.3575108  52.5991296
  27.9322453 108.9065847  53.2512892  27.8801805 109.4921017  51.8561760
  27.8787355 108.8163760  35.1617760  27.0016822 108.6952560  34.7980006
  28.3545108 108.0249838  34.9096648  24.2024218 108.4931116  49.6844290
  24.1182406 107.8856785  48.9494700  23.3806924 108.9840134  49.6853787
  34.3747931 106.9784679  45.0514486  34.8716631 106.2254642  44.7315556
  33.6034913 107.0148996  44.4857695  42.2277689 112.6825045  46.6932777
  42.2167565 113.5649760  46.3226710  41.3595068 112.3296596  46.4987314
  30.9582900 109.1202062  44.7786170  30.5880688 108.5673103  45.4667076
  31.4541993 108.5160196  44.2261170  38.8450264 111.5773686  43.1602943
  39.3110716 112.4101677  43.0863246  39.2957764 111.1118667  43.8648202
  36.8166926 103.9454273  47.1993844  35.9030006 104.1758500  47.3676051
  37.2460028 104.0292717  48.0507877  36.5873385 112.1344165  49.6993738
  35.9344835 112.3820072  49.0446191  36.9653765 111.3208303  49.3656216
  26.3548234 106.5306053  51.0239276  26.4189560 107.3920884  50.6116674
  26.2915354 105.9180055  50.2911635  25.8300506 108.6029186  54.6712310
  26.4572545 108.2206263  55.2849835  24.9728425 108.3843388  55.0368003
  26.1360296 108.4861611  46.5858214  25.4146882 109.0997579  46.4465687
  26.9253552 109.0219376  46.5074860  28.9386610 105.8216038  52.8598866
  29.4621012 106.0678334  53.6225175  28.7198943 106.6536073  52.4402003
  24.3353891 108.0919712  40.7269990  24.0066597 107.2117091  40.5445096
  24.6893261 108.0367381  41.6146380  27.4495714 108.3792682  41.0945468
  27.7891786 108.9078603  40.3724076  27.8967834 108.7173088  41.8704035
  30.1439155 106.7629733  50.5448536  29.8035975 105.9637546  50.9469216
  29.4378161 107.0631444  49.9725369  30.7955627 103.8479045  48.9975859
  31.6181696 103.3739524  48.8754750  31.0393690 104.6269529  49.4974546
  29.4363861 106.8767304  39.2938761  30.1572224 107.2548557  38.7902478
  28.8129165 107.5956181  39.3973739  33.5794984 107.5812453  40.2297093
  33.7958598 108.4637091  39.9285921  33.0989051 107.1898666  39.5002735
  30.1790588 107.5300714  46.8548727  30.1652157 106.6341807  46.5181025
  30.8963016 107.5371378  47.4887013  32.0316719 107.9638054  48.9001855
  31.7734497 108.8855125  48.8986185  31.5001759 107.5668489  49.5902319
  29.5827484 106.4115094  42.1236298  29.7043395 105.4831740  42.3227185
  29.2929527 106.4253780  41.2114613  32.4518675 104.0970005  45.2603017
  32.4740371 104.1609338  44.3054997  32.8686734 103.2574513  45.4543524
  42.8302299 113.8325264  43.2982240  43.2733445 113.0832589  42.9001363
  41.9528809 113.8235401  42.9155972  29.0668564 107.9247092  56.3326230
  29.1156719 108.8009214  55.9504000  29.6091078 107.3824485  55.7597873
  36.9625047 111.3011609  54.2419402  37.8634910 111.1618074  53.9503400
  37.0373021 111.4666064  55.1817580  31.2967852 108.6778464  53.0872589
  30.4271162 108.9712030  52.8155177  31.5327333 109.2618909  53.8079852
  42.3735164 115.3030503  45.6904688  43.2082055 115.7420307  45.8542248
  42.5094292 114.8269156  44.8712933  39.4226670 112.8610237  51.6382175
  39.8980791 113.0537884  50.8301027  38.4992235 112.9169423  51.3925559
  34.0006886 104.8958081  50.6038009  34.5188830 105.6319108  50.2784498
  33.6462019 105.2022074  51.4384768  25.5805824 109.7562762  38.7199415
  24.8875069 109.8307117  38.0639451  25.3357576 108.9923106  39.2420932
  34.2519480 101.3158364  46.1238906  34.5321234 100.6481553  46.7499332
  35.0370087 101.5087459  45.6113570  38.1228338 109.7375998  49.8710481
  39.0745761 109.8374095  49.8922705  37.9531789 108.9454266  50.3808565
  36.1442718 106.8231581  50.0569882  35.5492650 107.1036593  49.3616370
  35.8592415 107.3125482  50.8286623  40.6016416 112.9582117  48.9852781
  40.5692736 112.0198118  49.1712464  41.2117040 113.0366154  48.2518605
  32.4399747 111.8278170  35.0279985  33.3858852 111.6984378  35.0968403
  32.0613992 111.0892832  35.5049413  40.7510905 109.7493161  49.0311064
  40.2349953 108.9651617  48.8440993  41.6350853 109.4211877  49.1957583
  38.4121632 103.4934176  44.9906876  38.2146453 103.1849264  45.8750208
  39.0221337 104.2195815  45.1204806  46.4192966 114.0198124  48.1258817
  47.1496355 113.7583412  48.6866521  45.8099912 113.2826846  48.1660885
  44.5008263 112.1605987  48.7233269  43.7741427 112.0261952  48.1149760
  44.0855550 112.4682815  49.5289987  30.6242664 109.7528147  34.9634870
  29.7174120 109.4561259  35.0397583  30.9018645 109.4557965  34.0969156
  32.2404730 104.2965036  41.1179111  31.4305458 103.9512121  41.4934357
  32.9289147 103.9872580  41.7066723  34.1695278 103.3743083  42.7403408
  34.7226317 103.7938537  43.3993431  34.4065365 102.4478831  42.7826364
  30.1928378 109.3630157  58.5206172  30.0925104 110.3124514  58.4518263
  29.9749920 109.0348396  57.6482242  29.3941449 106.6115082  35.1046849
  30.2560613 106.9369980  35.3642666  29.5791793 105.8246578  34.5919915
  37.5474085 105.4843608  42.2482072  36.9672754 106.1428412  41.8660124
  37.2810018 104.6620953  41.8369489  35.9977652 104.8848666  44.4503392
  36.4977430 104.9965200  43.6417711  36.6413260 104.5809719  45.0904201
  36.3298963 107.6443699  41.3038420  35.4424818 107.9293349  41.0858615
  36.7452952 107.4837462  40.4565697  39.6813500 107.6690220  45.0192759
  40.4573890 108.1586672  45.2917376  38.9561634 108.0948274  45.4764629
  42.1186058 108.3817839  46.0766700  42.7130549 108.1413575  45.3660008
  42.1912642 107.6624969  46.7040236  36.3039987 113.1598235  41.5188710
  36.2475189 113.6166786  40.6796343  36.8568330 112.3988919  41.3411553
  40.1144793 108.9487966  42.3438830  39.8581727 108.5484602  43.1747038
  39.4897661 109.6631760  42.2188969  44.4257131 111.6884040  44.8510121
  43.8656689 111.7577229  45.6241683  43.8200634 111.5125024  44.1309618
  30.3470892 103.8511125  38.3926558  30.3349562 104.7952965  38.5494829
  31.2394314 103.6681270  38.0986019  34.1623011 100.4453901  42.6472495
  33.3955407  99.8912388  42.7929177  34.5733716 100.5175770  43.5086646
  26.1664772 106.7338697  56.7377676  27.0296234 106.3775502  56.9481001
  25.5930183 106.3952592  57.4253080  47.3859063 116.8451955  44.7009923
  47.6917940 115.9849319  44.4135839  48.1111668 117.4369575  44.5008917
  45.0913235 116.6450281  46.1238906  45.3714988 115.9773470  46.7499332
  45.8763842 116.8379377  45.6113570  45.0016766 115.7745819  42.6472495
  44.2349162 115.2204306  42.7929177  45.4127471 115.8467688  43.5086646
   2.6511534  29.5516966  32.1183880   1.8975243  28.9824364  31.9627884
   2.7859076  29.5179630  33.0654514   3.0617949  29.7092576  34.8504124
   3.7921338  29.4477864  35.4111827   2.4524895  28.9721298  34.8906192
   1.1433247  27.8500439  35.4478575   0.4166410  27.7156403  34.8395067
   0.7280533  28.1577267  36.2535293   1.0682114  27.3778492  31.5755428
   0.5081672  27.4471681  32.3486990   0.4625618  27.2019476  30.8554924
   2.6538133  44.0535006  34.2685384   3.2916543  43.9341753  33.5648724
   2.5358976  45.0015849  34.3273336   2.2079401  41.7786459  31.3438592
   2.9942490  41.3605883  30.9929009   2.4718105  42.6832552  31.5120240
   2.3789479  47.2159310  26.0427249   1.7435311  47.2893936  26.7548153
   2.0486885  47.8052908  25.3646328   7.6087828  41.7161693  32.2471570
   8.3413000  41.1460909  32.4809400   6.8527184  41.3283293  32.6878076
   5.1313249  35.4283267  36.7066179   4.7996573  36.2978678  36.4827394
   4.5358862  35.1119551  37.3860209   1.6244768  47.6295813  36.1062092
   1.3245491  48.5320851  35.9977899   1.2795828  47.3627996  36.9583244
   5.0241912  40.1478353  33.7859529   4.1158789  40.0793761  33.4918290
   4.9729508  40.6250298  34.6141354   6.8903558  38.3494791  35.5637403
   6.2477939  38.6427324  34.9177197   6.3858487  38.2347712  36.3690599
   4.5443722  42.0957964  26.2523262   5.4561578  42.3285351  26.0770960
   4.0353369  42.6795009  25.6898341   2.8284490  46.5182592  39.8884555
   3.2367846  46.0765003  39.1439187   2.1061751  45.9435220  40.1418748
   3.1513304  47.0783783  33.6436844   2.5222167  47.2429497  32.9412911
   2.7638966  47.4925392  34.4147808   7.0302536  48.0138221  30.9981207
   6.3453574  48.3937122  30.4478241   7.1146386  48.6233547  31.7313155
   2.3315005  39.1159567  38.9199285   2.0875937  39.8701628  38.3833561
   2.6074936  39.4944915  39.7546532   4.2853468  45.6598180  37.5976551
   4.4970363  46.3029940  36.9210932   4.2383216  44.8260496  37.1298481
   1.8879697  38.2716000  34.5013123   1.0264176  38.5697254  34.7929861
   1.9142131  38.4886399  33.5694156   5.3999296  48.5370135  35.7698908
   6.2216740  48.1350322  35.4881590   5.3961699  48.4338369  36.7215024
  13.4905289  44.8808884  32.1183880  12.7368997  44.3116282  31.9627884
  13.6252830  44.8471548  33.0654514   2.6053631  50.6548652  39.9520342
   2.5872107  51.4757533  39.4600612   3.5273551  50.5302728  40.1770483
   2.2296380  33.2752848  36.3237492   1.8860650  34.1654490  36.2476603
   2.5975343  33.0854505  35.4607077   2.1946663  43.2661459  24.8309928
   1.6793287  44.0366064  25.0698315   1.9223972  42.5926595  25.4542989
   1.3092921  35.6457503  34.2886726   0.8057716  35.6087638  33.4754531
   1.6023528  36.5550246  34.3483382   7.1680937  46.0193814  26.7663101
   6.3910380  45.6804973  26.3218263   7.8472418  46.0246437  26.0918066
   1.9832966  41.1388551  26.6569709   1.6783102  41.4534700  27.5079852
   2.9363408  41.2169971  26.6997042   5.4072244  45.4927795  33.4229709
   4.7495919  46.1827056  33.5109838   6.2112643  45.8824227  33.7663695
   4.2177703  43.8472168  31.4733651   4.7309585  44.4802159  31.9755360
   4.8678927  43.2473363  31.1077011   1.4800077  53.8256492  24.2294322
   0.8061776  54.1288189  24.8379280   1.8665899  54.6285572  23.8799779
   1.4793582  42.7213039  28.8494672   2.2265401  43.2334436  28.5401794
   1.7485171  42.3997091  29.7099065   4.9839499  48.8278169  29.6012793
   4.5301826  47.9869079  29.6577984   4.3533466  49.4639567  29.9387574
   3.9272419  39.7570155  30.8313461   3.1895176  39.2447541  31.1623703
   4.1799192  39.3170537  30.0196738   3.4272438  50.6654666  30.5362612
   3.7195413  51.2259723  29.8174977   3.9371059  50.9583227  31.2915771
   4.0284046  32.5346407  31.4255230   4.3342923  31.6743770  31.1381145
   4.7536651  33.1264027  31.2254224   1.8371697  41.9119084  38.5236694
   2.1921085  42.1390557  39.3831160   2.4843829  42.2437461  37.9013949
   7.5669434  45.0337520  29.2286023   7.4287333  45.2239116  28.3007212
   7.2105653  45.7956903  29.6854074   7.5938814  47.1014047  34.2397294
   8.0275321  47.0089336  35.0880349   8.3070395  47.0771548  33.6017310
   1.3266709  50.7016141  35.7730395   1.3803731  51.2707078  36.5408111
   0.4581490  50.8718026  35.4084432   8.4554364  47.1437748  36.7730180
   8.6490254  48.0483558  37.0189455   8.3554982  46.6845167  37.6068765
   3.5169472  47.2944491  42.3471060   3.3654979  47.0655042  41.4301144
   3.5074152  48.2515092  42.3602406   3.5707547  45.6164705  22.7641762
   2.9536718  44.8911533  22.6674815   3.1024036  46.3774065  22.4208836
   5.2261679  50.3263613  40.4247542   5.1674225  49.6422833  39.7578125
   5.6281197  51.0682603  39.9728168   5.2279086  48.2903197  38.6561522
   4.3405865  47.9529119  38.7787921   5.7977637  47.5586228  38.8930287
   1.8566669  37.9971049  31.7759792   2.3535369  37.2441011  31.4560862
   1.0853651  38.0335366  31.2103001   9.7096427  43.7011414  33.4178084
   9.6986303  44.5836130  33.0472017   8.8413806  43.3482965  33.2232621
   1.2178923  52.8491483  37.7780924   1.9306895  53.4838948  37.7056825
   0.7268952  52.9455349  36.9620926   2.9396450  46.7542736  29.3498216
   2.0052729  46.8744199  29.1802920   3.1173118  45.8515203  29.0858225
   6.3269001  42.5960055  29.8848250   6.7929454  43.4288047  29.8108552
   6.7776502  42.1305037  30.5893508   4.3945232  48.9403877  26.8834402
   4.6705076  48.8260471  27.7928276   3.5249731  48.5421362  26.8446575
   4.2985664  34.9640642  33.9239151   3.3848744  35.1944869  34.0921358
   4.7278766  35.0479086  34.7753183   4.0692123  43.1530534  36.4239045
   3.4163573  43.4006442  35.7691498   4.4472502  42.3394673  36.0901522
   1.0299296  53.1890228  30.5267215   1.2121691  52.3711883  30.9894968
   1.8532282  53.4057920  30.0892105   1.3641462  52.1158413  27.7882264
   1.8929228  51.6050867  27.1752426   1.6269682  51.8000943  28.6527797
   3.7113353  50.0278530  43.0011353   4.2553257  50.6408489  42.5066307
   3.1300198  50.5858109  43.5178366   1.9970866  53.1499248  34.1326380
   1.8722005  52.3488988  33.6237326   2.6549957  53.6445442  33.6440350
   4.0605774  50.9508269  35.7605930   3.1136110  50.8313620  35.6884257
   4.4088547  50.0630767  35.8432192   1.0652207  50.7460985  31.9610283
   0.9177170  49.8177692  32.1417853   1.8905701  50.7681075  31.4767358
   4.6686329  51.5689543  33.0475155   5.5932877  51.3632405  32.9099607
   4.5001633  51.3205945  33.9564497   1.0613722  38.5998822  26.9542400
   1.2777336  39.4823460  26.6531228   0.5807789  38.2085036  26.2248042
   4.4581645  52.0875211  28.4037247   4.6318523  51.5221633  27.6511099
   4.9510537  52.8876106  28.2216737  10.3121037  44.8511634  30.0227547
  10.7552183  44.1018959  29.6246670   9.4347547  44.8421770  29.6401279
   5.4456818  51.4041975  25.5034145   6.1407723  52.0248668  25.7221460
   5.7879968  50.5537327  25.7786523   7.3448241  48.8541681  27.0321476
   7.8699565  49.1928954  26.3070796   7.2570594  47.9188696  26.8484611
   7.0342147  49.4874584  42.3372674   6.2437691  49.4698723  41.7977173
   6.7975502  50.0262878  43.0921710   7.1540022  46.3367051  39.6505402
   7.2038027  46.1717058  40.5920925   7.0453946  45.4694310  39.2603283
   4.4443785  42.3197979  40.9664709   5.3453647  42.1804444  40.6748707
   4.5191759  42.4852434  41.9062887   8.6558219  48.7563992  39.8947424
   8.3643027  49.1193973  40.7310885   8.0430350  48.0431001  39.7160756
   9.8553901  46.3216872  32.4149994  10.6900793  46.7606676  32.5787555
   9.9913030  45.8455525  31.5958240   6.9045407  43.8796607  38.3627482
   7.3799529  44.0724253  37.5546333   5.9810973  43.9355793  38.1170866
   1.4825624  35.9144451  37.3283316   2.0007568  36.6505477  37.0029804
   1.1280757  36.2208444  38.1630075   1.7338218  32.3344733  32.8484212
   2.0139972  31.6667922  33.4744639   2.5188825  32.5273829  32.3358876
   5.6047076  40.7562367  36.5955788   6.5564499  40.8560465  36.6168012
   5.4350527  39.9640636  37.1053872   3.6261456  37.8417950  36.7815188
   3.0311388  38.1222963  36.0861677   3.3411152  38.3311851  37.5531930
   2.7568946  51.7940877  25.5417821   3.6899619  51.7286439  25.7450696
   2.6692159  52.6297144  25.0832354   5.3856963  51.1106747  22.5021769
   5.3070594  50.7766611  23.3957526   6.2066630  51.6028515  22.5013241
   8.0835154  43.9768487  35.7098087   8.0511474  43.0384488  35.8957771
   8.6935778  44.0552523  34.9763912   8.2329643  40.7679530  35.7556370
   7.7168691  39.9837987  35.5686299   9.1169591  40.4398247  35.9202890
   5.8940369  34.5120546  31.7152183   5.6965191  34.2035634  32.5995515
   6.5040075  35.2382185  31.8450113  13.9011704  45.0384494  34.8504124
  14.6315092  44.7769782  35.4111827  13.2918649  44.3013216  34.8906192
  11.9827001  43.1792356  35.4478575  11.2560165  43.0448321  34.8395067
  11.5674288  43.4869185  36.2535293   1.6514016  34.3929453  29.4648714
   2.2045055  34.8124906  30.1238737   1.8884102  33.4665201  29.5071670
   5.0292823  36.5029978  28.9727379   4.4491492  37.1614782  28.5905431
   4.7628756  35.6807322  28.5614796   3.4796390  35.9035036  31.1748699
   3.9796168  36.0151570  30.3663018   4.1231997  35.5996088  31.8149507
   3.8117701  38.6630068  28.0283727   2.9243556  38.9479719  27.8103922
   4.2271690  38.5023832  27.1811004   7.1632237  38.6876589  31.7438066
   7.9392627  39.1773042  32.0162683   6.4380372  39.1134643  32.2009936
   9.6004796  39.4004208  32.8012007  10.1949287  39.1599944  32.0905315
   9.6731380  38.6811339  33.4285543   2.9560915  48.4274743  22.1231747
   3.6596765  48.6324745  22.7389402   2.2323563  48.9951505  22.3880830
   3.7858725  44.1784604  28.2434017   3.7293926  44.6353156  27.4041649
   4.3387067  43.4175289  28.0656860   7.5963531  39.9674336  29.0684137
   7.3400465  39.5670972  29.8992344   6.9716399  40.6818130  28.9434276
  11.9075869  42.7070409  31.5755428  11.3475427  42.7763599  32.3486990
  11.3019372  42.5311394  30.8554924   4.8647612  48.8657272  24.1730207
   5.6993216  48.4338471  23.9907682   4.7031955  48.6939286  25.1007101
   4.5193504  45.3689385  25.5386546   4.4642308  45.2033657  24.5974990
   3.8939560  46.0765418  25.6948736   1.8339411  47.6738297  44.8640109
   2.7030571  47.8478950  44.5026744   1.3546163  48.4932714  44.7415838
   1.6441749  31.4640271  29.3717801   0.8774145  30.9098758  29.5174484
   2.0552454  31.5362140  30.2331953  13.4931887  59.3826923  34.2685384
  14.1310297  59.2633671  33.5648724  13.3752730  60.3307767  34.3273336
  10.3021593  59.3354351  34.2046908   9.9640105  59.2195416  33.3167443
  11.1711362  58.9345516  34.1847914   6.1608409  61.1889828  30.1943799
   5.5973274  61.0979765  29.4260087   6.0460804  60.3689732  30.6746292
  10.7841376  60.4889203  40.1633114  10.7730017  60.0942001  39.2913618
  10.9462016  59.7555276  40.7566885   3.7072841  62.6841019  33.0328020
   4.4994133  62.3431844  32.6174319   3.9469491  62.7935994  33.9530173
  11.7407968  64.8560795  25.5058264  11.0895948  65.4414876  25.1192278
  12.5352331  65.3866990  25.5653302   5.6663595  61.9449933  25.9045399
   6.4394471  61.3978920  25.7658274   6.0188994  62.8094182  26.1159860
   7.5048638  63.2726315  39.1112298   7.2138504  64.1771946  38.9958964
   8.1405622  63.3142842  39.8256367   8.4304844  60.6503163  35.7013658
   9.0268417  60.4259186  34.9870620   8.4879816  59.9087909  36.3039105
   8.0029873  58.1042599  23.5363848   8.2555394  57.5824120  22.7747311
   7.0654432  57.9408744  23.6390532  13.0473156  57.1078377  31.3438592
  13.8336245  56.6897800  30.9929009  13.3111860  58.0124469  31.5120240
  13.2183233  62.5451227  26.0427249  12.5829066  62.6185854  26.7548153
  12.8880639  63.1344826  25.3646328  18.4481583  57.0453610  32.2471570
  19.1806755  56.4752827  32.4809400  17.6920938  56.6575211  32.6878076
   7.7226162  60.0070705  25.7388223   7.6062420  59.3315608  26.4069308
   7.8328421  59.5203079  24.9220376  10.0657703  59.4680852  29.4434913
   9.7015910  58.9411473  30.1547834  10.9224818  59.0779321  29.2701398
  15.9707003  50.7575184  36.7066179  15.6390328  51.6270595  36.4827394
  15.3752617  50.4411468  37.3860209   9.7063189  54.4970751  24.4396261
   9.8737592  55.3650988  24.8066732   9.5160359  54.6598033  23.5157550
  12.4638523  62.9587730  36.1062092  12.1639246  63.8612769  35.9977899
  12.1189582  62.6919914  36.9583244   5.9151004  59.4101527  32.1398796
   4.9901501  59.2777741  32.3476488   6.1635417  60.1895746  32.6368738
  15.8635666  55.4770271  33.7859529  14.9552544  55.4085679  33.4918290
  15.8123262  55.9542215  34.6141354   9.6852410  56.9528409  25.4242928
   9.5652036  57.3985460  26.2628408   8.9904999  57.3013727  24.8656466
   3.2759815  59.0534801  32.9742585   3.4052196  59.3069280  33.8881997
   2.5957266  59.6462509  32.6547240   7.4459302  69.7232051  29.0733059
   7.3683332  70.6739876  29.1521540   6.8420946  69.3777923  29.7307986
   9.9376532  56.8959916  41.7294426   9.1609866  57.4553836  41.7197291
  10.5767095  57.3816699  42.2509296  17.7297313  53.6786709  35.5637403
  17.0871693  53.9719242  34.9177197  17.2252241  53.5639629  36.3690599
  15.3837477  57.4249882  26.2523262  16.2955333  57.6577269  26.0770960
  14.8747124  58.0086926  25.6898341   8.1922905  59.7045369  41.2912393
   8.9337589  60.2430413  41.0147217   7.4859890  60.3311658  41.4483945
  13.6678244  61.8474510  39.8884555  14.0761600  61.4056920  39.1439187
  12.9455506  61.2727137  40.1418748  10.0209314  56.7847117  37.2618112
  10.8670509  57.2086530  37.4052761   9.9607952  56.1280741  37.9556675
  13.9907059  62.4075701  33.6436844  13.3615921  62.5721415  32.9412911
  13.6032721  62.8217310  34.4147808  17.8696291  63.3430138  30.9981207
  17.1847329  63.7229040  30.4478241  17.9540140  63.9525465  31.7313155
  13.1708760  54.4451485  38.9199285  12.9269691  55.1993546  38.3833561
  13.4468690  54.8236833  39.7546532  15.1247222  60.9890097  37.5976551
  15.3364118  61.6321857  36.9210932  15.0776971  60.1552414  37.1298481
  12.7273451  53.6007918  34.5013123  11.8657930  53.8989172  34.7929861
  12.7535886  53.8178317  33.5694156   9.5435021  62.1450109  30.9086929
  10.0073366  62.4237812  30.1191551   9.2791819  61.2433553  30.7260019
   6.4359102  61.6921590  33.8466692   7.0060459  62.1208859  33.2084176
   7.0267214  61.4104175  34.5450878   8.4803907  58.2673261  27.7176494
   9.1827950  58.7194305  28.1850420   8.1484535  57.6257080  28.3456387
   6.9284268  56.8585018  42.0927703   6.2982929  57.5401298  42.3263100
   6.8220356  56.7468099  41.1480841   2.2229241  56.5256814  33.0193627
   1.4328295  56.7814342  32.5433738   2.7140488  57.3405152  33.1245668
  16.2393050  63.8662053  35.7698908  17.0610494  63.4642240  35.4881590
  16.2355453  63.7630287  36.7215024   4.1743986  56.8901393  29.9777104
   3.3775149  57.0020087  30.4960600   3.9469578  57.2288045  29.1117995
  10.0049654  63.4146096  37.9259619  10.0694086  63.8766503  38.7617790
   9.2960578  62.7843461  38.0541928   0.5066944  56.7787304  35.4508618
   0.7574982  57.6634314  35.7166194   1.0426492  56.5991906  34.6783710
  24.3299043  60.2100801  32.1183880  23.5762752  59.6408199  31.9627884
  24.4646585  60.1763466  33.0654514   9.7197671  65.0814204  27.7938599
   9.5843346  65.9265739  28.2223447  10.2607484  65.2833481  27.0304533
   6.2065011  51.1605783  44.4552954   5.8131957  50.6071982  45.1300598
   7.0231151  51.4716362  44.8459472   3.1727069  62.5989642  28.3666524
   3.6851589  63.3932892  28.5172089   3.8249782  61.9015932  28.3000126
   4.9821953  65.7155398  30.4489277   5.1588582  66.6373363  30.2610261
   5.7778787  65.4013817  30.8783657   9.1232972  52.5763663  42.0473211
   9.8642685  53.1770816  41.9677673   9.3550895  51.8341300  41.4891253
   4.2674310  57.7620030  40.3251440   4.1527825  56.8605287  40.6258539
   3.4118828  58.0083727  39.9736257  11.3466148  65.7037770  41.9238941
  10.9030002  64.9174149  41.6059846  12.0083361  65.8916921  41.2582832
   6.1053269  67.2333572  36.4499620   6.6560694  67.1050635  35.6776614
   5.2664745  67.5328461  36.0994512  13.4447386  65.9840570  39.9520342
  13.4265861  66.8049451  39.4600612  14.3667306  65.8594645  40.1770483
   9.9020440  63.4984700  40.7943851  10.4348777  62.7372988  40.5643159
   9.3734521  63.2058351  41.5368005  13.0690135  48.6044766  36.3237492
  12.7254404  49.4946407  36.2476603  13.4369098  48.4146423  35.4607077
   1.1375986  60.9278296  29.1426095   1.9751208  61.3375304  28.9259802
   1.3154253  59.9877738  29.1126288  13.0340418  58.5953377  24.8309928
  12.5187041  59.3657981  25.0698315  12.7617726  57.9218513  25.4542989
  10.6187529  53.4403077  29.8895166   9.7629125  53.0509928  29.7100805
  11.0314480  53.5195038  29.0294951  12.1486675  50.9749421  34.2886726
  11.6451471  50.9379556  33.4754531  12.4417282  51.8842163  34.3483382
   8.3929561  51.0588150  33.2952907   9.2582558  50.8630959  32.9358797
   8.4607070  50.8298502  34.2222264  18.0074692  61.3485731  26.7663101
  17.2304135  61.0096891  26.3218263  18.6866173  61.3538354  26.0918066
  12.8226721  56.4680469  26.6569709  12.5176856  56.7826618  27.5079852
  13.7757163  56.5461889  26.6997042  11.2673153  62.6270692  28.3062663
  10.7394514  61.8923452  27.9935900  10.7660655  63.4045368  28.0602631
  16.2465999  60.8219713  33.4229709  15.5889673  61.5118974  33.5109838
  17.0506398  61.2116144  33.7663695   5.9991880  53.2890358  30.6669274
   6.5735632  53.0665540  29.9342467   6.5862863  53.3579053  31.4197876
  15.0571458  59.1764085  31.4733651  15.5703339  59.8094077  31.9755360
  15.7072681  58.5765281  31.1077011   6.3261467  55.3194819  24.6865159
   5.4898780  55.6569506  25.0074434   6.1866237  55.1843799  23.7492296
   8.3014548  50.1631607  29.3944344   7.6478960  49.8480624  28.7700958
   8.2595022  49.5407348  30.1204167   9.4125753  60.4450902  21.3097636
   8.5052815  60.2140156  21.5088785   9.9096785  59.6488522  21.4971617
  12.3193832  69.1548409  24.2294322  11.6455531  69.4580106  24.8379280
  12.7059654  69.9577490  23.8799779  11.5352288  56.6513541  33.7191991
  10.6174850  56.8728488  33.5613679  11.9512432  56.7259851  32.8603699
  12.3187336  58.0504956  28.8494672  13.0659155  58.5626354  28.5401794
  12.5878926  57.7289009  29.7099065  10.5913986  60.5463497  25.8321626
   9.6825206  60.2622530  25.9294096  10.6209070  60.9662576  24.9724933
  15.8233254  64.1570087  29.6012793  15.3695581  63.3160997  29.6577984
  15.1927220  64.7931485  29.9387574  14.7666173  55.0862073  30.8313461
  14.0288930  54.5739459  31.1623703  15.0192947  54.6462454  30.0196738
  14.2666193  65.9946583  30.5362612  14.5589167  66.5551640  29.8174977
  14.7764814  66.2875144  31.2915771  14.8677801  47.8638325  31.4255230
  15.1736677  47.0035688  31.1381145  15.5930405  48.4555945  31.2254224
   1.1602157  58.2669011  29.8136828   0.9626557  57.6738372  29.0887895
   0.6048821  57.9621221  30.5312767   9.1398880  58.1592118  31.9331421
   9.1947490  57.2065954  31.8573898   8.3290082  58.3151557  32.4172720
  10.2890074  62.0872241  23.1709704   9.8509504  61.3708100  22.7115342
  11.0300515  62.3148356  22.6094796   7.0791240  56.7769178  29.6921800
   6.2659106  57.0763348  30.0986992   7.5750234  56.3824866  30.4096282
   9.2299818  66.7726934  31.6256065   9.1875997  66.9987781  30.6964597
  10.1462517  66.5390309  31.7741866  12.6765452  57.2411002  38.5236694
  13.0314840  57.4682475  39.3831160  13.3237583  57.5729379  37.9013949
  18.4063189  60.3629438  29.2286023  18.2681087  60.5531034  28.3007212
  18.0499408  61.1248821  29.6854074   6.5705315  54.3487533  35.3083035
   7.2104694  54.2076292  34.6105998   5.7382846  54.0622046  34.9321637
  18.4332568  62.4305965  34.2397294  18.8669075  62.3381254  35.0880349
  19.1464149  62.4063465  33.6017310   7.3465619  63.6489963  31.4218027
   8.1406217  63.1540284  31.2200602   6.6357311  63.1207827  31.0585733
  12.1660463  66.0308059  35.7730395  12.2197486  66.5998995  36.5408111
  11.2975245  66.2009944  35.4084432   3.6548382  57.7933045  27.4977780
   2.7245970  57.7317501  27.7147742   3.7505854  57.2708998  26.7014421
   3.5733931  54.3187858  30.0856022   3.8340749  55.2333191  29.9765182
   4.3951104  53.8512301  30.2352635   5.0458857  55.7325615  37.2554846
   5.7181910  55.5242977  36.6067495   4.2188643  55.5347701  36.8160079
  19.2948118  62.4729666  36.7730180  19.4884008  63.3775476  37.0189455
  19.1948736  62.0137085  37.6068765  10.9484429  52.3587556  39.2720507
  10.3012344  53.0577506  39.1784984  11.7185444  52.7923700  39.6396755
  14.3563227  62.6236408  42.3471060  14.2048733  62.3946960  41.4301144
  14.3467906  63.5807010  42.3602406  11.1248563  60.1968321  37.3317327
  12.0540623  60.3479481  37.1586294  10.7039593  60.2852342  36.4765973
   9.9236895  64.2218985  35.1015865   9.7847981  63.8537770  35.9741803
   9.1351491  64.7366625  34.9299822  10.5185047  69.3228082  26.4441401
  10.6936803  68.8516125  27.2587024   9.8317835  69.9493848  26.6722662
  11.4742110  63.6000588  32.4904702  11.1391943  63.5601358  33.3862352
  10.9746056  62.9345304  32.0175113   5.4486354  59.0068218  38.0157284
   5.3106152  58.2748457  38.6168823   6.3591278  58.9177118  37.7341471
  14.4101302  60.9456622  22.7641762  13.7930472  60.2203451  22.6674815
  13.9417790  61.7065983  22.4208836   8.0768655  58.7188177  37.5040963
   8.7868273  58.0781370  37.4627582   8.0337963  58.9701072  38.4267144
  16.0655433  65.6555531  40.4247542  16.0067980  64.9714751  39.7578125
  16.4674952  66.3974521  39.9728168   6.7897589  55.7053395  39.3236603
   6.2534946  55.2544134  39.9758199   6.2014297  55.8399304  38.5807067
   5.0846132  72.4717445  33.2181261   5.3242730  73.1035969  33.8960280
   4.2415329  72.1205485  33.5046621   6.1999848  55.1642047  21.8863066
   5.3229314  55.0430848  21.5225313   6.6757601  54.3728125  21.6341955
  16.0672841  63.6195115  38.6561522  15.1799619  63.2821037  38.7787921
  16.6371392  62.8878146  38.8930287   2.5236710  54.8409403  36.4089597
   2.4394899  54.2335073  35.6740007   1.7019416  55.3318421  36.4099093
   9.5973994  68.2796567  35.6222765   9.5244166  69.0851539  36.1342070
   9.1551387  68.4788533  34.7970787   9.3863774  67.5168337  29.1325587
   8.6031296  68.0590017  29.2263811  10.0856519  68.0342317  29.5319828
  12.6960424  53.3262967  31.7759792  13.1929123  52.5732929  31.4560862
  11.9247405  53.3627283  31.2103001  20.5490181  59.0303332  33.4178084
  20.5380057  59.9128048  33.0472017  19.6807561  58.6774883  33.2232621
  12.0572678  68.1783401  37.7780924  12.7700650  68.8130866  37.7056825
  11.5662706  68.2747267  36.9620926  13.7790204  62.0834654  29.3498216
  12.8446483  62.2036116  29.1802920  13.9566873  61.1807121  29.0858225
   9.2795393  55.4680350  31.5031477   8.9093180  54.9151390  32.1912382
   9.7754485  54.8638483  30.9506477  17.1662756  57.9251973  29.8848250
  17.6323208  58.7579965  29.8108552  17.6170256  57.4596955  30.5893508
   7.1084591  65.9277845  38.5986495   7.8094051  66.5614328  38.7515889
   6.6379706  66.2692576  37.8382134  15.2338987  64.2695794  26.8834402
  15.5098831  64.1552389  27.7928276  14.3643486  63.8713279  26.8446575
  15.1379419  50.2932560  33.9239151  14.2242498  50.5236787  34.0921358
  15.5672520  50.3771004  34.7753183  14.9085877  58.4822452  36.4239045
  14.2557327  58.7298360  35.7691498  15.2866257  57.6686590  36.0901522
  11.8693051  68.5182145  30.5267215  12.0515445  67.7003801  30.9894968
  12.6926037  68.7349837  30.0892105  12.2035216  67.4450330  27.7882264
  12.7322983  66.9342785  27.1752426  12.4663436  67.1292861  28.6527797
  10.9573450  59.2242263  42.9105082  10.2814087  59.1236392  43.5807457
  11.7801084  59.0681477  43.3741079   2.7052309  65.4614200  35.5317597
   3.2905746  64.7157888  35.6645502   2.5077148  65.7718156  36.4154261
   5.5590964  68.4965447  30.5480040   4.8901340  68.9811575  30.0644080
   5.4203834  68.7434667  31.4623418   9.6996233  70.5309191  37.1462698
  10.2514541  70.6940812  37.9111783  10.0402426  71.1213628  36.4742723
   4.6760726  52.8784340  37.7484583   4.7402053  53.7399171  37.3361981
   4.6127846  52.2658342  37.0156941   4.1512999  54.9507473  41.3957617
   4.7785038  54.5684550  42.0095141   3.2940918  54.7321675  41.7613310
  14.5507107  65.3570448  43.0011353  15.0947011  65.9700406  42.5066307
  13.9693952  65.9150026  43.5178366  12.8364620  68.4791166  34.1326380
  12.7115760  67.6780906  33.6237326  13.4943711  68.9737359  33.6440350
   4.4572788  54.8339899  33.3103521   3.7359374  55.4475866  33.1710994
   5.2466044  55.3697663  33.2320166  14.8999529  66.2800186  35.7605930
  13.9529864  66.1605537  35.6884257  15.2482302  65.3922684  35.8432192
   7.2599102  52.1694325  39.5844172   7.7833504  52.4156622  40.3470482
   7.0411435  53.0014360  39.1647310   2.6566383  54.4398000  27.4515297
   2.3279089  53.5595379  27.2690403   3.0105754  54.3845668  28.3391686
  11.9045962  66.0752902  31.9610283  11.7570924  65.1469610  32.1417853
  12.7299455  66.0972993  31.4767358   5.7708206  54.7270969  27.8190775
   6.1104279  55.2556891  27.0969383   6.2180327  55.0651376  28.5949341
  15.5080084  66.8981461  33.0475155  16.4326631  66.6924322  32.9099607
  15.3395387  66.6497862  33.9564497   8.4651647  53.1108020  37.2693843
   8.1248467  52.3115833  37.6714523   7.7590653  53.4109731  36.6970676
   9.1168119  50.1957333  35.7221166   9.9394188  49.7217811  35.6000056
   9.3606182  50.9747816  36.2219852   7.7576353  53.2245591  26.0184068
   8.4784716  53.6026844  25.5147784   7.1341657  53.9434468  26.1219045
  11.9007476  53.9290740  26.9542400  12.1171091  54.8115378  26.6531228
  11.4201543  53.5376953  26.2248042   6.6406698  56.8876453  33.5313144
   6.4951278  57.2016756  34.4237426   6.1631901  57.5061354  32.9784043
   8.5003081  53.8779001  33.5794034   8.4864649  52.9820095  33.2426332
   9.2175509  53.8849665  34.2132320  10.3529211  54.3116341  35.6247161
  10.0946989  55.2333412  35.6231492   9.8214252  53.9146776  36.3147626
  15.2975400  67.4167129  28.4037247  15.4712278  66.8513551  27.6511099
  15.7904291  68.2168023  28.2216737   1.1152360  59.4281798  36.4700806
   0.5705828  60.2041606  36.6021080   1.9931710  59.7752602  36.3119927
   7.9039976  52.7593382  28.8481604   8.0255888  51.8310028  29.0472492
   7.6142019  52.7732068  27.9359920  10.7731167  50.4448292  31.9848324
  10.7952864  50.5087625  31.0300304  11.1899226  49.6052801  32.1788830
  21.1514791  60.1803552  30.0227547  21.5945937  59.4310877  29.6246670
  20.2741301  60.1713688  29.6401279  16.2850572  66.7333893  25.5034145
  16.9801477  67.3540586  25.7221460  16.6273723  65.8829244  25.7786523
   1.9018382  58.5551694  39.3630963   1.1600118  58.7034329  39.9495593
   1.5811126  58.8159960  38.4997712  18.1841996  64.1833599  27.0321476
  18.7093320  64.5220871  26.3070796  18.0964348  63.2480614  26.8484611
   9.8462044  68.0967672  39.1611353  10.1549171  67.8516819  40.0334052
  10.6437526  68.3014311  38.6730223   9.8682656  70.2505582  31.3916729
   9.4287647  69.7581960  32.0849586  10.6190773  69.7078549  31.1508804
   2.3474995  66.4417123  31.3941357   3.1733015  66.1420895  31.0140001
   1.9969047  65.6724745  31.8431146   7.3156528  65.7943591  33.4639031
   6.6936538  65.1314296  33.1641259   7.9861395  65.8204723  32.7812679
   7.3881056  54.2725379  43.0571537   7.4369211  55.1487502  42.6749306
   7.9303570  53.7302772  42.4843180  17.8735902  64.8166502  42.3372674
  17.0831445  64.7990641  41.7977173  17.6369256  65.3554796  43.0921710
  17.9933777  61.6658969  39.6505402  18.0431782  61.5008976  40.5920925
  17.8847700  60.7986228  39.2603283   6.8770035  64.3447514  26.9397491
   7.0258156  65.0282979  26.2864164   7.6836479  64.3252604  27.4546947
  15.2837539  57.6489897  40.9664709  16.1847402  57.5096361  40.6748707
  15.3585514  57.8144351  41.9062887   9.6180344  55.0256751  39.8117895
   8.7483654  55.3190317  39.5400484   9.8539825  55.6097196  40.5325159
  19.4951974  64.0855910  39.8947424  19.2036782  64.4485891  40.7310885
  18.8824105  63.3722918  39.7160756  20.6947656  61.6508790  32.4149994
  21.5294547  62.0898594  32.5787555  20.8306785  61.1747443  31.5958240
  17.7439162  59.2088525  38.3627482  18.2193283  59.4016171  37.5546333
  16.8204727  59.2647710  38.1170866   4.6322668  60.3712692  27.9458560
   4.3868710  59.4675022  28.1438770   4.8018583  60.3729842  27.0038038
  12.3219378  51.2436368  37.3283316  12.8401322  51.9797395  37.0029804
  11.9674511  51.5500362  38.1630075   3.9018316  56.1041049  25.4444722
   3.2087561  56.1785404  24.7884758   3.6570068  55.3401393  25.9666239
  12.5731972  47.6636651  32.8484212  12.8533726  46.9959840  33.4744639
  13.3582579  47.8565746  32.3358876  10.3765441  66.8395645  24.4109239
   9.8039408  67.4585832  23.9579711  10.9498235  67.3895006  24.9449161
  16.4440831  56.0854285  36.5955788  17.3958254  56.1852382  36.6168012
  16.2744281  55.2932553  37.1053872  14.4655210  53.1709868  36.7815188
  13.8705142  53.4514881  36.0861677  14.1804907  53.6603769  37.5531930
  13.5962701  67.1232795  25.5417821  14.5293374  67.0578356  25.7450696
  13.5085914  67.9589062  25.0832354  16.2250717  66.4398665  22.5021769
  16.1464349  66.1058529  23.3957526  17.0460384  66.9320433  22.5013241
  18.9228909  59.3060404  35.7098087  18.8905229  58.3676405  35.8957771
  19.5329532  59.3844441  34.9763912  10.7612239  58.1756457  21.7525291
  11.7071344  58.0462666  21.8213709  10.3826484  57.4371119  22.2294719
  19.0723397  56.0971448  35.7556370  18.5562446  55.3129905  35.5686299
  19.9563346  55.7690164  35.9202890  16.7334124  49.8412463  31.7152183
  16.5358945  49.5327552  32.5995515  17.3433830  50.5674102  31.8450113
  24.7405458  60.3676411  34.8504124  25.4708847  60.1061699  35.4111827
  24.1312404  59.6305133  34.8906192  22.8220756  58.5084274  35.4478575
  22.0953919  58.3740239  34.8395067  22.4068042  58.8161102  36.2535293
  10.6450932  62.2274204  43.2125948  11.5653941  62.4052803  43.4065995
  10.6100515  61.2830249  43.0605647   8.9455157  56.1006434  21.6880176
   8.0386612  55.8039547  21.7642890   9.2231138  55.8036252  20.8214463
   3.6413005  60.1375238  35.8548729   3.8599014  61.0692346  35.8736763
   4.0538778  59.7783213  36.6403533  10.5617222  50.6443324  27.8424418
   9.7517951  50.2990408  28.2179664  11.2501639  50.3350867  28.4312029
  12.4907771  49.7221370  29.4648714  13.0438809  50.1416824  30.1238737
  12.7277857  48.7957118  29.5071670   8.5140870  55.7108444  45.2451478
   8.4137597  56.6602801  45.1763569   8.2962412  55.3826683  44.3727548
   7.7153941  52.9593369  21.8292156   8.5773105  53.2848267  22.0887973
   7.9004285  52.1724865  21.3165221  15.8686578  51.8321895  28.9727379
  15.2885247  52.4906700  28.5905431  15.6022510  51.0099240  28.5614796
  14.3190144  51.2326953  31.1748699  14.8189922  51.3443488  30.3663018
  14.9625752  50.9288006  31.8149507   8.3772140  59.1405583  44.0616540
   7.8939222  59.9405943  44.2680429   8.4633079  59.1513528  43.1083984
   1.6458099  60.9733962  31.9838359   1.6228788  61.0721650  31.0320242
   1.9558736  61.8199113  32.3055525   4.3045477  63.0310118  36.0984974
   5.2588731  62.9994060  36.0314905   4.1058001  62.5700741  36.9135200
   4.8944859  61.6011234  38.6655771   5.7137748  62.0955312  38.6890609
   5.1681667  60.6843202  38.6373339  14.6511456  53.9921986  28.0283727
  13.7637311  54.2771636  27.8103922  15.0665445  53.8315749  27.1811004
  18.0025992  54.0168507  31.7438066  18.7786382  54.5064959  32.0162683
  17.2774126  54.4426561  32.2009936  20.4398550  54.7296126  32.8012007
  21.0343041  54.4891862  32.0905315  20.5125134  54.0103257  33.4285543
   2.6595706  68.5729737  33.1155172   2.5250174  67.8130138  32.5493170
   2.2427768  69.2970637  32.6483960  13.7954669  63.7566661  22.1231747
  14.4990519  63.9616663  22.7389402  13.0717318  64.3243422  22.3880830
  14.6252479  59.5076522  28.2434017  14.5687681  59.9645073  27.4041649
  15.1780822  58.7467206  28.0656860  18.4357285  55.2966254  29.0684137
  18.1794220  54.8962889  29.8992344  17.8110153  56.0110048  28.9434276
  22.7469623  58.0362327  31.5755428  22.1869181  58.1055516  32.3486990
  22.1413127  57.8603312  30.8554924   5.8164832  69.4699054  33.3273614
   5.6997216  70.4144487  33.2252304   4.9957278  69.1672616  33.7159413
  15.7041367  64.1949190  24.1730207  16.5386970  63.7630388  23.9907682
  15.5425709  64.0231203  25.1007101  15.3587259  60.6981303  25.5386546
  15.3036063  60.5325574  24.5974990  14.7333314  61.4057336  25.6948736
  12.6733166  63.0030215  44.8640109  13.5424326  63.1770867  44.5026744
  12.1939917  63.8224632  44.7415838   8.6683384  50.1989412  25.1171865
   8.6562054  51.1431252  25.2740135   9.5606806  50.0159557  24.8231326
   6.8419346  70.1227316  36.5429543   7.7446593  70.1550926  36.8596038
   6.6156716  69.1927767  36.5575878   8.5972948  68.8758302  33.2039621
   7.6468579  68.8760164  33.0903994   8.9005434  68.1291037  32.6875656
  12.4835504  46.7932189  29.3717801  11.7167899  46.2390675  29.5174484
  12.8946209  46.8654057  30.2331953   4.4877265  53.0816984  43.4622983
   5.3508726  52.7253789  43.6726307   3.9142675  52.7430879  44.1498387
  24.3325642  74.7118841  34.2685384  24.9704052  74.5925588  33.5648724
  24.2146485  75.6599685  34.3273336  21.1415348  74.6646269  34.2046908
  20.8033859  74.5487334  33.3167443  22.0105116  74.2637434  34.1847914
  17.0002164  76.5181745  30.1943799  16.4367029  76.4271682  29.4260087
  16.8854559  75.6981650  30.6746292  21.6235131  75.8181121  40.1633114
  21.6123772  75.4233919  39.2913618  21.7855770  75.0847193  40.7566885
  14.5466596  78.0132937  33.0328020  15.3387887  77.6723762  32.6174319
  14.7863246  78.1227912  33.9530173  22.5801722  80.1852713  25.5058264
  21.9289702  80.7706793  25.1192278  23.3746085  80.7158908  25.5653302
  16.5057349  77.2741850  25.9045399  17.2788226  76.7270837  25.7658274
  16.8582748  78.1386100  26.1159860  18.3442392  78.6018232  39.1112298
  18.0532258  79.5063863  38.9958964  18.9799376  78.6434760  39.8256367
  19.2698599  75.9795081  35.7013658  19.8662171  75.7551103  34.9870620
  19.3273570  75.2379826  36.3039105  18.8423627  73.4334516  23.5363848
  19.0949148  72.9116038  22.7747311  17.9048186  73.2700662  23.6390532
  23.8866910  72.4370295  31.3438592  24.6729999  72.0189718  30.9929009
  24.1505614  73.3416387  31.5120240  24.0576987  77.8743145  26.0427249
  23.4222820  77.9477772  26.7548153  23.7274394  78.4636744  25.3646328
  29.2875337  72.3745528  32.2471570  30.0200509  71.8044745  32.4809400
  28.5314693  71.9867128  32.6878076  18.5619916  75.3362622  25.7388223
  18.4456174  74.6607526  26.4069308  18.6722176  74.8494996  24.9220376
  20.9051457  74.7972769  29.4434913  20.5409664  74.2703390  30.1547834
  21.7618573  74.4071238  29.2701398  26.8100758  66.0867102  36.7066179
  26.4784082  66.9562513  36.4827394  26.2146371  65.7703386  37.3860209
  20.5456944  69.8262669  24.4396261  20.7131346  70.6942906  24.8066732
  20.3554113  69.9889951  23.5157550  23.3032277  78.2879648  36.1062092
  23.0033000  79.1904687  35.9977899  22.9583337  78.0211831  36.9583244
  16.7544759  74.7393445  32.1398796  15.8295255  74.6069659  32.3476488
  17.0029172  75.5187664  32.6368738  26.7029421  70.8062188  33.7859529
  25.7946298  70.7377597  33.4918290  26.6517017  71.2834133  34.6141354
  20.5246165  72.2820327  25.4242928  20.4045790  72.7277377  26.2628408
  19.8298753  72.6305644  24.8656466  14.1153570  74.3826718  32.9742585
  14.2445951  74.6361197  33.8881997  13.4351021  74.9754426  32.6547240
  18.2853057  85.0523968  29.0733059  18.2077087  86.0031793  29.1521540
  17.6814701  84.7069841  29.7307986  20.7770287  72.2251834  41.7294426
  20.0003621  72.7845754  41.7197291  21.4160850  72.7108617  42.2509296
  28.5691067  69.0078627  35.5637403  27.9265448  69.3011160  34.9177197
  28.0645996  68.8931547  36.3690599  26.2231231  72.7541800  26.2523262
  27.1349087  72.9869187  26.0770960  25.7140878  73.3378844  25.6898341
  19.0316659  75.0337287  41.2912393  19.7731343  75.5722331  41.0147217
  18.3253644  75.6603576  41.4483945  24.5071999  77.1766428  39.8884555
  24.9155355  76.7348838  39.1439187  23.7849260  76.6019055  40.1418748
  20.8603069  72.1139034  37.2618112  21.7064264  72.5378448  37.4052761
  20.8001706  71.4572659  37.9556675  24.8300813  77.7367618  33.6436844
  24.2009676  77.9013332  32.9412911  24.4426475  78.1509228  34.4147808
  24.0102514  69.7743403  38.9199285  23.7663446  70.5285463  38.3833561
  24.2862445  70.1528750  39.7546532  23.5667206  68.9299836  34.5013123
  22.7051685  69.2281089  34.7929861  23.5929640  69.1470235  33.5694156
  20.3828775  77.4742026  30.9086929  20.8467121  77.7529729  30.1191551
  20.1185573  76.5725471  30.7260019  17.2752856  77.0213508  33.8466692
  17.8454213  77.4500776  33.2084176  17.8660968  76.7396093  34.5450878
  19.3197661  73.5965179  27.7176494  20.0221705  74.0486222  28.1850420
  18.9878290  72.9548998  28.3456387  17.7678023  72.1876935  42.0927703
  17.1376683  72.8693216  42.3263100  17.6614111  72.0760017  41.1480841
  13.0622995  71.8548731  33.0193627  12.2722049  72.1106260  32.5433738
  13.5534243  72.6697069  33.1245668  27.0786805  79.1953971  35.7698908
  27.9004248  78.7934158  35.4881590  27.0749208  79.0922205  36.7215024
  15.0137741  72.2193311  29.9777104  14.2168904  72.3312005  30.4960600
  14.7863333  72.5579963  29.1117995  20.8443408  78.7438014  37.9259619
  20.9087841  79.2058421  38.7617790  20.1354332  78.1135379  38.0541928
  11.3460698  72.1079222  35.4508618  11.5968737  72.9926232  35.7166194
  11.8820247  71.9283823  34.6783710  20.5591426  80.4106121  27.7938599
  20.4237101  81.2557657  28.2223447  21.1001238  80.6125399  27.0304533
  17.0458766  66.4897701  44.4552954  16.6525711  65.9363900  45.1300598
  17.8624906  66.8008280  44.8459472  14.0120823  77.9281559  28.3666524
  14.5245344  78.7224810  28.5172089  14.6643536  77.2307850  28.3000126
  15.8215708  81.0447316  30.4489277  15.9982336  81.9665280  30.2610261
  16.6172541  80.7305735  30.8783657  19.9626727  67.9055580  42.0473211
  20.7036440  68.5062733  41.9677673  20.1944649  67.1633218  41.4891253
  15.1068065  73.0911948  40.3251440  14.9921580  72.1897205  40.6258539
  14.2512582  73.3375644  39.9736257  22.1859902  81.0329688  41.9238941
  21.7423756  80.2466066  41.6059846  22.8477116  81.2208838  41.2582832
  16.9447023  82.5625489  36.4499620  17.4954449  82.4342553  35.6776614
  16.1058499  82.8620378  36.0994512  24.2841140  81.3132488  39.9520342
  24.2659616  82.1341369  39.4600612  25.2061060  81.1886563  40.1770483
  20.7414194  78.8276617  40.7943851  21.2742531  78.0664905  40.5643159
  20.2128276  78.5350269  41.5368005  23.9083889  63.9336683  36.3237492
  23.5648159  64.8238325  36.2476603  24.2762852  63.7438341  35.4607077
  11.9769740  76.2570214  29.1426095  12.8144962  76.6667222  28.9259802
  12.1548008  75.3169656  29.1126288  23.8734172  73.9245294  24.8309928
  23.3580796  74.6949899  25.0698315  23.6011481  73.2510430  25.4542989
  21.4581283  68.7694995  29.8895166  20.6022880  68.3801845  29.7100805
  21.8708235  68.8486956  29.0294951  22.9880430  66.3041338  34.2886726
  22.4845225  66.2671474  33.4754531  23.2811037  67.2134081  34.3483382
  19.2323316  66.3880068  33.2952907  20.0976312  66.1922877  32.9358797
  19.3000825  66.1590420  34.2222264  23.6620475  71.7972386  26.6569709
  23.3570611  72.1118536  27.5079852  24.6150917  71.8753806  26.6997042
  22.1066907  77.9562610  28.3062663  21.5788269  77.2215369  27.9935900
  21.6054410  78.7337286  28.0602631  16.8385635  68.6182276  30.6669274
  17.4129387  68.3957457  29.9342467  17.4256617  68.6870970  31.4197876
  25.8965212  74.5056003  31.4733651  26.4097094  75.1385995  31.9755360
  26.5466436  73.9057198  31.1077011  17.1655222  70.6486737  24.6865159
  16.3292534  70.9861424  25.0074434  17.0259992  70.5135717  23.7492296
  19.1408303  65.4923525  29.3944344  18.4872715  65.1772542  28.7700958
  19.0988777  64.8699265  30.1204167  20.2519507  75.7742820  21.3097636
  19.3446569  75.5432073  21.5088785  20.7490539  74.9780439  21.4971617
  23.1587586  84.4840327  24.2294322  22.4849285  84.7872024  24.8379280
  23.5453408  85.2869408  23.8799779  22.3746043  71.9805458  33.7191991
  21.4568604  72.2020405  33.5613679  22.7906186  72.0551769  32.8603699
  23.1581091  73.3796874  28.8494672  23.9052910  73.8918271  28.5401794
  23.4272680  73.0580927  29.7099065  21.4307741  75.8755415  25.8321626
  20.5218960  75.5914448  25.9294096  21.4602825  76.2954493  24.9724933
  25.6059928  70.4153990  30.8313461  24.8682685  69.9031377  31.1623703
  25.8586701  69.9754372  30.0196738  25.1059947  81.3238501  30.5362612
  25.3982922  81.8843558  29.8174977  25.6158568  81.6167062  31.2915771
  25.7071555  63.1930242  31.4255230  26.0130432  62.3327606  31.1381145
  26.4324160  63.7847863  31.2254224  11.9995911  73.5960929  29.8136828
  11.8020311  73.0030290  29.0887895  11.4442575  73.2913139  30.5312767
  19.9792635  73.4884035  31.9331421  20.0341245  72.5357872  31.8573898
  19.1683837  73.6443475  32.4172720  21.1283829  77.4164159  23.1709704
  20.6903259  76.7000017  22.7115342  21.8694269  77.6440273  22.6094796
  17.9184995  72.1061095  29.6921800  17.1052860  72.4055266  30.0986992
  18.4143989  71.7116784  30.4096282  20.0693573  82.1018852  31.6256065
  20.0269751  82.3279698  30.6964597  20.9856272  81.8682227  31.7741866
  23.5159206  72.5702920  38.5236694  23.8708594  72.7974393  39.3831160
  24.1631338  72.9021296  37.9013949  17.4099070  69.6779451  35.3083035
  18.0498449  69.5368210  34.6105998  16.5776600  69.3913964  34.9321637
  18.1859373  78.9781881  31.4218027  18.9799972  78.4832201  31.2200602
  17.4751066  78.4499744  31.0585733  23.0054218  81.3599977  35.7730395
  23.0591240  81.9290913  36.5408111  22.1368999  81.5301862  35.4084432
  14.4942137  73.1224963  27.4977780  13.5639725  73.0609418  27.7147742
  14.5899609  72.6000916  26.7014421  14.4127686  69.6479776  30.0856022
  14.6734503  70.5625109  29.9765182  15.2344858  69.1804218  30.2352635
  15.8852611  71.0617533  37.2554846  16.5575665  70.8534895  36.6067495
  15.0582398  70.8639619  36.8160079  21.7878183  67.6879474  39.2720507
  21.1406098  68.3869423  39.1784984  22.5579199  68.1215618  39.6396755
  25.1956981  77.9528326  42.3471060  25.0442488  77.7238878  41.4301144
  25.1861661  78.9098927  42.3602406  21.9642318  75.5260239  37.3317327
  22.8934378  75.6771398  37.1586294  21.5433348  75.6144259  36.4765973
  20.7630649  79.5510903  35.1015865  20.6241735  79.1829688  35.9741803
  19.9745246  80.0658543  34.9299822  21.3578801  84.6520000  26.4441401
  21.5330557  84.1808043  27.2587024  20.6711589  85.2785766  26.6722662
  22.3135865  78.9292506  32.4904702  21.9785697  78.8893276  33.3862352
  21.8139810  78.2637222  32.0175113  16.2880109  74.3360136  38.0157284
  16.1499906  73.6040375  38.6168823  17.1985032  74.2469036  37.7341471
  25.2495056  76.2748540  22.7641762  24.6324227  75.5495368  22.6674815
  24.7811545  77.0357900  22.4208836  18.9162409  74.0480095  37.5040963
  19.6262028  73.4073287  37.4627582  18.8731717  74.2992990  38.4267144
  26.9049188  80.9847449  40.4247542  26.8461734  80.3006669  39.7578125
  27.3068706  81.7266439  39.9728168  17.6291343  71.0345313  39.3236603
  17.0928700  70.5836052  39.9758199  17.0408052  71.1691222  38.5807067
  15.9239887  87.8009362  33.2181261  16.1636485  88.4327887  33.8960280
  15.0809083  87.4497402  33.5046621  17.0393602  70.4933964  21.8863066
  16.1623068  70.3722765  21.5225313  17.5151355  69.7020043  21.6341955
   8.5595742  75.2811124  31.9804573   9.2466782  74.9672854  31.3925589
   8.4043871  76.1852489  31.7071825  13.3630464  70.1701321  36.4089597
  13.2788653  69.5626990  35.6740007  12.5413171  70.6610339  36.4099093
  20.4367749  83.6088485  35.6222765  20.3637920  84.4143456  36.1342070
  19.9945142  83.8080451  34.7970787  20.2257528  82.8460255  29.1325587
  19.4425050  83.3881935  29.2263811  20.9250273  83.3634234  29.5319828
  23.5354178  68.6554884  31.7759792  24.0322878  67.9024847  31.4560862
  22.7641160  68.6919201  31.2103001  22.8966432  83.5075319  37.7780924
  23.6094404  84.1422784  37.7056825  22.4056461  83.6039185  36.9620926
  24.6183959  77.4126572  29.3498216  23.6840238  77.5328034  29.1802920
  24.7960627  76.5099038  29.0858225  20.1189147  70.7972267  31.5031477
  19.7486935  70.2443308  32.1912382  20.6148239  70.1930401  30.9506477
  17.9478346  81.2569762  38.5986495  18.6487805  81.8906245  38.7515889
  17.4773461  81.5984494  37.8382134  25.9773173  65.6224478  33.9239151
  25.0636253  65.8528705  34.0921358  26.4066275  65.7062922  34.7753183
  25.7479632  73.8114370  36.4239045  25.0951082  74.0590277  35.7691498
  26.1260011  72.9978508  36.0901522  22.7086805  83.8474063  30.5267215
  22.8909200  83.0295719  30.9894968  23.5319791  84.0641755  30.0892105
  23.0428971  82.7742248  27.7882264  23.5716737  82.2634703  27.1752426
  23.3057191  82.4584778  28.6527797  21.7967205  74.5534181  42.9105082
  21.1207842  74.4528310  43.5807457  22.6194838  74.3973395  43.3741079
  13.5446064  80.7906117  35.5317597  14.1299500  80.0449805  35.6645502
  13.3470902  81.1010074  36.4154261  16.3984719  83.8257365  30.5480040
  15.7295094  84.3103492  30.0644080  16.2597589  84.0726585  31.4623418
   8.1363718  73.3611718  34.2522041   8.1747818  72.8275308  35.0459159
   7.6304011  72.8346923  33.6333018  20.5389987  85.8601108  37.1462698
  21.0908295  86.0232730  37.9111783  20.8796181  86.4505546  36.4742723
  15.5154481  68.2076258  37.7484583  15.5795807  69.0691089  37.3361981
  15.4521601  67.5950260  37.0156941  14.9906753  70.2799391  41.3957617
  15.6178792  69.8976468  42.0095141  14.1334672  70.0613593  41.7613310
  25.3900862  80.6862366  43.0011353  25.9340766  81.2992324  42.5066307
  24.8087707  81.2441944  43.5178366  11.7672296  72.0875820  27.3275972
  12.0625737  71.1786498  27.2743026  10.8660332  72.0663559  27.0056974
  23.6758375  83.8083084  34.1326380  23.5509514  83.0072824  33.6237326
  24.3337466  84.3029277  33.6440350  15.2966543  70.1631816  33.3103521
  14.5753129  70.7767784  33.1710994  16.0859799  70.6989581  33.2320166
  25.7393283  81.6092104  35.7605930  24.7923619  81.4897455  35.6884257
  26.0876056  80.7214602  35.8432192  18.0992856  67.4986243  39.5844172
  18.6227258  67.7448539  40.3470482  17.8805190  68.3306278  39.1647310
  13.4960138  69.7689917  27.4515297  13.1672844  68.8887296  27.2690403
  13.8499508  69.7137586  28.3391686  22.7439716  81.4044820  31.9610283
  22.5964679  80.4761527  32.1417853  23.5693210  81.4264911  31.4767358
  16.6101961  70.0562887  27.8190775  16.9498033  70.5848808  27.0969383
  17.0574081  70.3943293  28.5949341  26.3473838  82.2273379  33.0475155
  27.2720386  82.0216240  32.9099607  26.1789142  81.9789780  33.9564497
  19.3045402  68.4399938  37.2693843  18.9642222  67.6407751  37.6714523
  18.5984408  68.7401649  36.6970676  19.9561873  65.5249250  35.7221166
  20.7787943  65.0509728  35.6000056  20.1999937  66.3039734  36.2219852
  18.5970108  68.5537509  26.0184068  19.3178470  68.9318762  25.5147784
  17.9735412  69.2726386  26.1219045  22.7401231  69.2582658  26.9542400
  22.9564845  70.1407296  26.6531228  22.2595298  68.8668871  26.2248042
  17.4800452  72.2168371  33.5313144  17.3345033  72.5308674  34.4237426
  17.0025656  72.8353271  32.9784043  19.3396835  69.2070919  33.5794034
  19.3258404  68.3112012  33.2426332  20.0569263  69.2141583  34.2132320
  21.1922966  69.6408259  35.6247161  20.9340744  70.5625330  35.6231492
  20.6608006  69.2438694  36.3147626  26.1369154  82.7459046  28.4037247
  26.3106032  82.1805469  27.6511099  26.6298046  83.5459941  28.2216737
  11.9546114  74.7573715  36.4700806  11.4099582  75.5333523  36.6021080
  12.8325464  75.1044520  36.3119927  18.7433731  68.0885299  28.8481604
  18.8649642  67.1601945  29.0472492  18.4535773  68.1023985  27.9359920
  21.6124921  65.7740210  31.9848324  21.6346618  65.8379543  31.0300304
  22.0292980  64.9344718  32.1788830  27.1244327  82.0625811  25.5034145
  27.8195232  82.6832503  25.7221460  27.4667477  81.2121162  25.7786523
  12.7412136  73.8843612  39.3630963  11.9993872  74.0326247  39.9495593
  12.4204880  74.1451877  38.4997712  20.6855799  83.4259590  39.1611353
  20.9942925  83.1808737  40.0334052  21.4831281  83.6306228  38.6730223
  20.7076411  85.5797499  31.3916729  20.2681401  85.0873878  32.0849586
  21.4584528  85.0370467  31.1508804  13.1868750  81.7709040  31.3941357
  14.0126770  81.4712812  31.0140001  12.8362802  81.0016663  31.8431146
  18.1550283  81.1235509  33.4639031  17.5330292  80.4606214  33.1641259
  18.8255150  81.1496640  32.7812679  11.3877355  79.6895367  32.3530291
  10.5509263  79.2617541  32.1714292  11.3601000  79.8827810  33.2901082
  18.2274810  69.6017297  43.0571537  18.2762966  70.4779419  42.6749306
  18.7697325  69.0594690  42.4843180  17.7163790  79.6739432  26.9397491
  17.8651910  80.3574896  26.2864164  18.5230233  79.6544522  27.4546947
  20.4574099  70.3548669  39.8117895  19.5877408  70.6482235  39.5400484
  20.6933579  70.9389114  40.5325159  15.4716423  75.7004610  27.9458560
  15.2262465  74.7966940  28.1438770  15.6412337  75.7021760  27.0038038
  23.1613133  66.5728286  37.3283316  23.6795077  67.3089313  37.0029804
  22.8068266  66.8792279  38.1630075  14.7412070  71.4332967  25.4444722
  14.0481315  71.5077322  24.7884758  14.4963822  70.6693311  25.9666239
  23.4125727  62.9928568  32.8484212  23.6927481  62.3251758  33.4744639
  24.1976334  63.1857664  32.3358876  21.2159195  82.1687562  24.4109239
  20.6433162  82.7877749  23.9579711  21.7891989  82.7186924  24.9449161
  25.3048965  68.5001786  36.7815188  24.7098897  68.7806798  36.0861677
  25.0198661  68.9895687  37.5531930  24.4356455  82.4524712  25.5417821
  25.3687128  82.3870274  25.7450696  24.3479668  83.2880979  25.0832354
  27.0644472  81.7690583  22.5021769  26.9858103  81.4350446  23.3957526
  27.8854139  82.2612351  22.5013241  21.6005994  73.5048375  21.7525291
  22.5465099  73.3754583  21.8213709  21.2220239  72.7663037  22.2294719
  27.5727878  65.1704381  31.7152183  27.3752700  64.8619469  32.5995515
  28.1827584  65.8966020  31.8450113  21.4844686  77.5566121  43.2125948
  22.4047696  77.7344720  43.4065995  21.4494269  76.6122167  43.0605647
  19.7848911  71.4298351  21.6880176  18.8780366  71.1331464  21.7642890
  20.0624892  71.1328170  20.8214463  10.7026851  72.7504715  32.1379223
  10.3829636  71.8970023  31.8453597  10.1560280  72.9653293  32.8937190
  14.4806759  75.4667156  35.8548729  14.6992769  76.3984264  35.8736763
  14.8932533  75.1075130  36.6403533  21.4010977  65.9735241  27.8424418
  20.5911705  65.6282326  28.2179664  22.0895394  65.6642785  28.4312029
  23.3301525  65.0513288  29.4648714  23.8832564  65.4708741  30.1238737
  23.5671611  64.1249036  29.5071670  19.3534624  71.0400362  45.2451478
  19.2531351  71.9894719  45.1763569  19.1356166  70.7118601  44.3727548
  18.5547696  68.2885287  21.8292156  19.4166860  68.6140185  22.0887973
  18.7398040  67.5016783  21.3165221  10.5715111  76.3707626  34.1072344
   9.8778583  75.9561579  33.5942299  11.3188102  76.4128163  33.5105763
  26.7080332  67.1613813  28.9727379  26.1279001  67.8198617  28.5905431
  26.4416265  66.3391158  28.5614796  25.1583899  66.5618871  31.1748699
  25.6583677  66.6735405  30.3663018  25.8019506  66.2579924  31.8149507
  19.2165894  74.4697500  44.0616540  18.7332976  75.2697861  44.2680429
  19.3026833  74.4805445  43.1083984  12.4851854  76.3025880  31.9838359
  12.4622542  76.4013567  31.0320242  12.7952490  77.1491031  32.3055525
  15.1439232  78.3602035  36.0984974  16.0982485  78.3285978  36.0314905
  14.9451755  77.8992659  36.9135200  15.7338614  76.9303151  38.6655771
  16.5531503  77.4247230  38.6890609  16.0075422  76.0135119  38.6373339
  25.4905210  69.3213904  28.0283727  24.6031065  69.6063554  27.8103922
  25.9059199  69.1607667  27.1811004  28.8419746  69.3460425  31.7438066
  29.6180136  69.8356877  32.0162683  28.1167880  69.7718479  32.2009936
  13.4989461  83.9021655  33.1155172  13.3643929  83.1422056  32.5493170
  13.0821523  84.6262555  32.6483960  24.6348424  79.0858578  22.1231747
  25.3384274  79.2908581  22.7389402  23.9111072  79.6535340  22.3880830
  25.4646234  74.8368439  28.2434017  25.4081435  75.2936991  27.4041649
  26.0174576  74.0759124  28.0656860  29.2751040  70.6258171  29.0684137
  29.0187974  70.2254807  29.8992344  28.6503908  71.3401965  28.9434276
  16.6558587  84.7990972  33.3273614  16.5390971  85.7436404  33.2252304
  15.8351033  84.4964533  33.7159413  26.5435121  79.5241107  24.1730207
  27.3780725  79.0922306  23.9907682  26.3819464  79.3523121  25.1007101
  26.1981013  76.0273221  25.5386546  26.1429817  75.8617492  24.5974990
  25.5727069  76.7349254  25.6948736  10.9873528  71.2641285  39.3647968
  11.6332392  70.7540239  39.8535194  10.7790679  72.0009967  39.9391394
  23.5126920  78.3322133  44.8640109  24.3818080  78.5062785  44.5026744
  23.0333672  79.1516549  44.7415838  19.5077139  65.5281330  25.1171865
  19.4955809  66.4723170  25.2740135  20.4000561  65.3451475  24.8231326
  17.6813101  85.4519234  36.5429543  18.5840347  85.4842844  36.8596038
  17.4550471  84.5219685  36.5575878  19.4366703  84.2050220  33.2039621
  18.4862334  84.2052082  33.0903994  19.7399189  83.4582955  32.6875656
  23.3229258  62.1224106  29.3717801  22.5561654  61.5682593  29.5174484
  23.7339963  62.1945975  30.2331953  15.3271019  68.4108902  43.4622983
  16.1902481  68.0545707  43.6726307  14.7536430  68.0722797  44.1498387
  27.8395918  91.8473663  30.1943799  27.2760783  91.7563600  29.4260087
  27.7248313  91.0273568  30.6746292  25.3860350  93.3424855  33.0328020
  26.1781642  93.0015679  32.6174319  25.6257000  93.4519830  33.9530173
  33.4195477  95.5144631  25.5058264  32.7683457  96.0998711  25.1192278
  34.2139840  96.0450826  25.5653302  27.3451104  92.6033768  25.9045399
  28.1181980  92.0562755  25.7658274  27.6976503  93.4678017  26.1159860
  29.1836147  93.9310150  39.1112298  28.8926013  94.8355781  38.9958964
  29.8193131  93.9726678  39.8256367  30.1092353  91.3086999  35.7013658
  30.7055926  91.0843021  34.9870620  30.1667325  90.5671744  36.3039105
  29.6817382  88.7626434  23.5363848  29.9342902  88.2407955  22.7747311
  28.7441941  88.5992579  23.6390532  34.8970742  93.2035063  26.0427249
  34.2616575  93.2769689  26.7548153  34.5668148  93.7928662  25.3646328
  29.4013671  90.6654540  25.7388223  29.2849929  89.9899443  26.4069308
  29.5115930  90.1786914  24.9220376  31.7445211  90.1264687  29.4434913
  31.3803419  89.5995308  30.1547834  32.6012327  89.7363156  29.2701398
  31.3850698  85.1554587  24.4396261  31.5525101  86.0234823  24.8066732
  31.1947868  85.3181868  23.5157550  27.5938513  90.0685363  32.1398796
  26.6689010  89.9361577  32.3476488  27.8422926  90.8479582  32.6368738
  31.3639919  87.6112244  25.4242928  31.2439545  88.0569295  26.2628408
  30.6692508  87.9597562  24.8656466  24.9547324  89.7118636  32.9742585
  25.0839705  89.9653115  33.8881997  24.2744775  90.3046344  32.6547240
  29.1246811 100.3815886  29.0733059  29.0470841 101.3323711  29.1521540
  28.5208455 100.0361759  29.7307986  29.8710414  90.3629205  41.2912393
  30.6125098  90.9014249  41.0147217  29.1647399  90.9895494  41.4483945
  31.2222530  92.8033944  30.9086929  31.6860875  93.0821647  30.1191551
  30.9579328  91.9017389  30.7260019  28.1146611  92.3505426  33.8466692
  28.6847968  92.7792694  33.2084176  28.7054723  92.0688010  34.5450878
  30.1591416  88.9257096  27.7176494  30.8615459  89.3778140  28.1850420
  29.8272044  88.2840915  28.3456387  28.6071777  87.5168853  42.0927703
  27.9770438  88.1985134  42.3263100  28.5007865  87.4051935  41.1480841
  23.9016750  87.1840649  33.0193627  23.1115804  87.4398178  32.5433738
  24.3927997  87.9988987  33.1245668  25.8531495  87.5485228  29.9777104
  25.0562658  87.6603923  30.4960600  25.6257087  87.8871880  29.1117995
  31.6837163  94.0729931  37.9259619  31.7481595  94.5350339  38.7617790
  30.9748087  93.4427296  38.0541928  22.1854453  87.4371139  35.4508618
  22.4362491  88.3218149  35.7166194  22.7214001  87.2575741  34.6783710
  31.3985180  95.7398039  27.7938599  31.2630855  96.5849575  28.2223447
  31.9394993  95.9417317  27.0304533  27.8852520  81.8189619  44.4552954
  27.4919466  81.2655817  45.1300598  28.7018660  82.1300197  44.8459472
  24.8514578  93.2573477  28.3666524  25.3639098  94.0516727  28.5172089
  25.5037291  92.5599767  28.3000126  26.6609462  96.3739233  30.4489277
  26.8376091  97.2957198  30.2610261  27.4566296  96.0597653  30.8783657
  30.8020481  83.2347498  42.0473211  31.5430194  83.8354651  41.9677673
  31.0338404  82.4925136  41.4891253  25.9461819  88.4203865  40.3251440
  25.8315334  87.5189122  40.6258539  25.0906337  88.6667562  39.9736257
  33.0253657  96.3621605  41.9238941  32.5817511  95.5757984  41.6059846
  33.6870870  96.5500756  41.2582832  27.7840778  97.8917407  36.4499620
  28.3348203  97.7634470  35.6776614  26.9452254  98.1912296  36.0994512
  35.1234895  96.6424405  39.9520342  35.1053370  97.4633286  39.4600612
  36.0454815  96.5178481  40.1770483  31.5807949  94.1568535  40.7943851
  32.1136286  93.3956823  40.5643159  31.0522030  93.8642187  41.5368005
  22.8163495  91.5862131  29.1426095  23.6538717  91.9959140  28.9259802
  22.9941762  90.6461573  29.1126288  32.9460662  93.2854527  28.3062663
  32.4182023  92.5507287  27.9935900  32.4448164  94.0629204  28.0602631
  27.6779389  83.9474194  30.6669274  28.2523141  83.7249375  29.9342467
  28.2650372  84.0162888  31.4197876  28.0048976  85.9778655  24.6865159
  27.1686289  86.3153341  25.0074434  27.8653746  85.8427634  23.7492296
  31.0913262  91.1034738  21.3097636  30.1840324  90.8723991  21.5088785
  31.5884294  90.3072357  21.4971617  33.9981341  99.8132245  24.2294322
  33.3243039 100.1163942  24.8379280  34.3847163 100.6161325  23.8799779
  32.2701495  91.2047333  25.8321626  31.3612715  90.9206365  25.9294096
  32.2996579  91.6246411  24.9724933  35.9453702  96.6530419  30.5362612
  36.2376676  97.2135476  29.8174977  36.4552323  96.9458980  31.2915771
  22.8389666  88.9252847  29.8136828  22.6414065  88.3322207  29.0887895
  22.2836330  88.6205057  30.5312767  30.8186389  88.8175953  31.9331421
  30.8734999  87.8649790  31.8573898  30.0077591  88.9735392  32.4172720
  31.9677583  92.7456076  23.1709704  31.5297013  92.0291935  22.7115342
  32.7088024  92.9732191  22.6094796  28.7578749  87.4353013  29.6921800
  27.9446615  87.7347183  30.0986992  29.2537743  87.0408702  30.4096282
  30.9087327  97.4310770  31.6256065  30.8663506  97.6571616  30.6964597
  31.8250026  97.1974144  31.7741866  28.2492824  85.0071368  35.3083035
  28.8892203  84.8660127  34.6105998  27.4170355  84.7205882  34.9321637
  29.0253128  94.3073799  31.4218027  29.8193726  93.8124119  31.2200602
  28.3144820  93.7791662  31.0585733  33.8447972  96.6891894  35.7730395
  33.8984995  97.2582831  36.5408111  32.9762754  96.8593779  35.4084432
  25.3335891  88.4516881  27.4977780  24.4033479  88.3901336  27.7147742
  25.4293363  87.9292833  26.7014421  25.2521440  84.9771693  30.0856022
  25.5128258  85.8917027  29.9765182  26.0738613  84.5096136  30.2352635
  26.7246366  86.3909451  37.2554846  27.3969419  86.1826813  36.6067495
  25.8976152  86.1931537  36.8160079  31.6024404  94.8802821  35.1015865
  31.4635490  94.5121605  35.9741803  30.8139000  95.3950460  34.9299822
  32.1972556  99.9811917  26.4441401  32.3724312  99.5099960  27.2587024
  31.5105344 100.6077683  26.6722662  33.1529619  94.2584423  32.4904702
  32.8179452  94.2185193  33.3862352  32.6533565  93.5929139  32.0175113
  27.1273863  89.6652054  38.0157284  26.9893661  88.9332292  38.6168823
  28.0378786  89.5760954  37.7341471  28.4685098  86.3637231  39.3236603
  27.9322455  85.9127969  39.9758199  27.8801806  86.4983140  38.5807067
  26.7633641 103.1301280  33.2181261  27.0030239 103.7619804  33.8960280
  25.9202838 102.7789320  33.5046621  27.8787357  85.8225882  21.8863066
  27.0016823  85.7014683  21.5225313  28.3545110  85.0311960  21.6341955
  19.3989497  90.6103042  31.9804573  20.0860537  90.2964772  31.3925589
  19.2437625  91.5144407  31.7071825  24.2024219  85.4993238  36.4089597
  24.1182408  84.8918908  35.6740007  23.3806925  85.9902257  36.4099093
  31.2761503  98.9380402  35.6222765  31.2031675  99.7435374  36.1342070
  30.8338896  99.1372368  34.7970787  31.0651283  98.1752172  29.1325587
  30.2818805  98.7173853  29.2263811  31.7644028  98.6926152  29.5319828
  33.7360187  98.8367236  37.7780924  34.4488159  99.4714701  37.7056825
  33.2450215  98.9331102  36.9620926  35.4577713  92.7418489  29.3498216
  34.5233992  92.8619952  29.1802920  35.6354382  91.8390956  29.0858225
  30.9582902  86.1264185  31.5031477  30.5880689  85.5735225  32.1912382
  31.4541994  85.5222318  30.9506477  28.7872100  96.5861680  38.5986495
  29.4881560  97.2198163  38.7515889  28.3167215  96.9276412  37.8382134
  36.9126496  94.9279630  26.8834402  37.1886340  94.8136224  27.7928276
  36.0430995  94.5297115  26.8446575  33.5480560  99.1765981  30.5267215
  33.7302954  98.3587637  30.9894968  34.3713546  99.3933673  30.0892105
  33.8822725  98.1034166  27.7882264  34.4110492  97.5926620  27.1752426
  34.1450945  97.7876696  28.6527797  24.3839818  96.1198035  35.5317597
  24.9693255  95.3741723  35.6645502  24.1864657  96.4301992  36.4154261
  27.2378473  99.1549282  30.5480040  26.5688849  99.6395410  30.0644080
  27.0991343  99.4018503  31.4623418  18.9757473  88.6903635  34.2522041
  19.0141572  88.1567226  35.0459159  18.4697766  88.1638841  33.6333018
  31.3783742 101.1893026  37.1462698  31.9302050 101.3524647  37.9111783
  31.7189935 101.7797464  36.4742723  26.3548235  83.5368176  37.7484583
  26.4189562  84.3983007  37.3361981  26.2915355  82.9242177  37.0156941
  25.8300508  85.6091308  41.3957617  26.4572547  85.2268386  42.0095141
  24.9728427  85.3905510  41.7613310  36.2294616  96.0154283  43.0011353
  36.7734520  96.6284242  42.5066307  35.6481461  96.5733862  43.5178366
  22.6066050  87.4167737  27.3275972  22.9019492  86.5078416  27.2743026
  21.7054086  87.3955477  27.0056974  34.5152129  99.1375001  34.1326380
  34.3903269  98.3364741  33.6237326  35.1731220  99.6321195  33.6440350
  26.1360297  85.4923734  33.3103521  25.4146883  86.1059702  33.1710994
  26.9253553  86.0281499  33.2320166  28.9386611  82.8278160  39.5844172
  29.4621013  83.0740457  40.3470482  28.7198944  83.6598195  39.1647310
  24.3353892  85.0981835  27.4515297  24.0066598  84.2179214  27.2690403
  24.6893263  85.0429504  28.3391686  33.5833471  96.7336738  31.9610283
  33.4358433  95.8053445  32.1417853  34.4086964  96.7556828  31.4767358
  27.4495715  85.3854805  27.8190775  27.7891788  85.9140726  27.0969383
  27.8967836  85.7235211  28.5949341  37.1867593  97.5565296  33.0475155
  38.1114140  97.3508158  32.9099607  37.0182896  97.3081698  33.9564497
  29.4363862  83.8829426  26.0184068  30.1572225  84.2610679  25.5147784
  28.8129166  84.6018303  26.1219045  28.3194207  87.5460289  33.5313144
  28.1738787  87.8600592  34.4237426  27.8419410  88.1645189  32.9784043
  30.1790589  84.5362837  33.5794034  30.1652158  83.6403930  33.2426332
  30.8963018  84.5433500  34.2132320  36.9762909  98.0750964  28.4037247
  37.1499786  97.5097386  27.6511099  37.4691800  98.8751859  28.2216737
  22.7939869  90.0865633  36.4700806  22.2493337  90.8625441  36.6021080
  23.6719219  90.4336437  36.3119927  37.9638081  97.3917728  25.5034145
  38.6588986  98.0124421  25.7221460  38.3061232  96.5413080  25.7786523
  23.5805891  89.2135529  39.3630963  22.8387627  89.3618165  39.9495593
  23.2598635  89.4743795  38.4997712  31.5249553  98.7551508  39.1611353
  31.8336680  98.5100654  40.0334052  32.3225035  98.9598146  38.6730223
  31.5470165 100.9089417  31.3916729  31.1075156 100.4165796  32.0849586
  32.2978282 100.3662385  31.1508804  24.0262504  97.1000958  31.3941357
  24.8520524  96.8004730  31.0140001  23.6756556  96.3308580  31.8431146
  28.9944037  96.4527426  33.4639031  28.3724047  95.7898131  33.1641259
  29.6648904  96.4788558  32.7812679  22.2271109  95.0187284  32.3530291
  21.3903018  94.5909459  32.1714292  22.1994755  95.2119728  33.2901082
  29.0668565  84.9309214  43.0571537  29.1156720  85.8071337  42.6749306
  29.6091079  84.3886607  42.4843180  28.5557544  95.0031350  26.9397491
  28.7045665  95.6866814  26.2864164  29.3623988  94.9836440  27.4546947
  26.3110177  91.0296527  27.9458560  26.0656219  90.1258857  28.1438770
  26.4806092  91.0313678  27.0038038  25.5805825  86.7624885  25.4444722
  24.8875070  86.8369240  24.7884758  25.3357577  85.9985228  25.9666239
  32.0552950  97.4979480  24.4109239  31.4826917  98.1169667  23.9579711
  32.6285744  98.0478842  24.9449161  35.2750210  97.7816630  25.5417821
  36.2080883  97.7162192  25.7450696  35.1873423  98.6172897  25.0832354
  37.9038226  97.0982500  22.5021769  37.8251858  96.7642364  23.3957526
  38.7247893  97.5904268  22.5013241  32.4399748  88.8340293  21.7525291
  33.3858853  88.7046501  21.8213709  32.0613993  88.0954955  22.2294719
  32.3238441  92.8858039  43.2125948  33.2441450  93.0636638  43.4065995
  32.2888024  91.9414084  43.0605647  30.6242666  86.7590269  21.6880176
  29.7174121  86.4623382  21.7642890  30.9018647  86.4620087  20.8214463
  21.5420606  88.0796633  32.1379223  21.2223390  87.2261941  31.8453597
  20.9954034  88.2945211  32.8937190  25.3200513  90.7959074  35.8548729
  25.5386523  91.7276181  35.8736763  25.7326287  90.4367048  36.6403533
  30.1928379  86.3692279  45.2451478  30.0925106  87.3186636  45.1763569
  29.9749921  86.0410518  44.3727548  29.3941450  83.6177204  21.8292156
  30.2560614  83.9432103  22.0887973  29.5791794  82.8308700  21.3165221
  21.4108866  91.6999544  34.1072344  20.7172337  91.2853497  33.5942299
  22.1581857  91.7420081  33.5105763  30.0559649  89.7989418  44.0616540
  29.5726731  90.5989778  44.2680429  30.1420588  89.8097363  43.1083984
  23.3245608  91.6317798  31.9838359  23.3016297  91.7305485  31.0320242
  23.6346245  92.4782949  32.3055525  25.9832986  93.6893953  36.0984974
  26.9376240  93.6577895  36.0314905  25.7845510  93.2284577  36.9135200
  26.5732368  92.2595069  38.6655771  27.3925257  92.7539148  38.6890609
  26.8469176  91.3427037  38.6373339  24.3383215  99.2313572  33.1155172
  24.2037683  98.4713973  32.5493170  23.9215277  99.9554472  32.6483960
  35.4742178  94.4150496  22.1231747  36.1778028  94.6200498  22.7389402
  34.7504827  94.9827258  22.3880830  27.4952341 100.1282889  33.3273614
  27.3784725 101.0728322  33.2252304  26.6744787  99.8256451  33.7159413
  37.3828876  94.8533025  24.1730207  38.2174479  94.4214224  23.9907682
  37.2213218  94.6815039  25.1007101  21.8267283  86.5933203  39.3647968
  22.4726146  86.0832157  39.8535194  21.6184434  87.3301884  39.9391394
  34.3520675  93.6614050  44.8640109  35.2211835  93.8354703  44.5026744
  33.8727426  94.4808467  44.7415838  30.3470893  80.8573247  25.1171865
  30.3349563  81.8015087  25.2740135  31.2394315  80.6743393  24.8231326
  28.5206855 100.7811151  36.5429543  29.4234102 100.8134762  36.8596038
  28.2944225  99.8511602  36.5575878  30.2760457  99.5342138  33.2039621
  29.3256088  99.5343999  33.0903994  30.5792943  98.7874872  32.6875656
  26.1664774  83.7400820  43.4622983  27.0296235  83.3837625  43.6726307
  25.5930184  83.4014715  44.1498387  46.0113151 105.3702676  34.2685384
  46.6491561 105.2509424  33.5648724  45.8933994 106.3183520  34.3273336
  42.8202857 105.3230104  34.2046908  42.4821368 105.2071169  33.3167443
  43.6892625 104.9221269  34.1847914  38.6789673 107.1765581  30.1943799
  38.1154538 107.0855518  29.4260087  38.5642068 106.3565485  30.6746292
  43.3022640 106.4764956  40.1633114  43.2911281 106.0817754  39.2913618
  43.4643279 105.7431029  40.7566885  36.2254105 108.6716772  33.0328020
  37.0175396 108.3307597  32.6174319  36.4650755 108.7811747  33.9530173
  44.2589231 110.8436548  25.5058264  43.6077211 111.4290629  25.1192278
  45.0533594 111.3742743  25.5653302  38.1844858 107.9325686  25.9045399
  38.9575734 107.3854673  25.7658274  38.5370257 108.7969935  26.1159860
  40.0229901 109.2602068  39.1112298  39.7319767 110.1647699  38.9958964
  40.6586885 109.3018595  39.8256367  40.9486108 106.6378916  35.7013658
  41.5449680 106.4134939  34.9870620  41.0061079 105.8963662  36.3039105
  40.5211136 104.0918352  23.5363848  40.7736657 103.5699873  22.7747311
  39.5835695 103.9284497  23.6390532  45.5654419 103.0954130  31.3438592
  46.3517508 102.6773553  30.9929009  45.8293123 104.0000222  31.5120240
  45.7364496 108.5326980  26.0427249  45.1010329 108.6061607  26.7548153
  45.4061903 109.1220579  25.3646328  50.9662846 103.0329363  32.2471570
  51.6988018 102.4628580  32.4809400  50.2102202 102.6450964  32.6878076
  40.2407425 105.9946458  25.7388223  40.1243683 105.3191361  26.4069308
  40.3509685 105.5078832  24.9220376  42.5838966 105.4556605  29.4434913
  42.2197173 104.9287226  30.1547834  43.4406082 105.0655074  29.2701398
  42.2244453 100.4846504  24.4396261  42.3918855 101.3526741  24.8066732
  42.0341622 100.6473786  23.5157550  44.9819786 108.9463483  36.1062092
  44.6820509 109.8488522  35.9977899  44.6370846 108.6795667  36.9583244
  38.4332268 105.3977280  32.1398796  37.5082764 105.2653494  32.3476488
  38.6816681 106.1771499  32.6368738  48.3816930 101.4646024  33.7859529
  47.4733807 101.3961432  33.4918290  48.3304526 101.9417968  34.6141354
  42.2033674 102.9404162  25.4242928  42.0833299 103.3861213  26.2628408
  41.5086262 103.2889480  24.8656466  35.7941079 105.0410554  32.9742585
  35.9233460 105.2945033  33.8881997  35.1138530 105.6338262  32.6547240
  42.4557796 102.8835669  41.7294426  41.6791130 103.4429589  41.7197291
  43.0948359 103.3692452  42.2509296  50.2478576  99.6662462  35.5637403
  49.6052957  99.9594995  34.9177197  49.7433505  99.5515382  36.3690599
  47.9018740 103.4125635  26.2523262  48.8136596 103.6453022  26.0770960
  47.3928387 103.9962679  25.6898341  40.7104168 105.6921122  41.2912393
  41.4518852 106.2306166  41.0147217  40.0041153 106.3187411  41.4483945
  46.1859508 107.8350263  39.8884555  46.5942864 107.3932673  39.1439187
  45.4636769 107.2602890  40.1418748  42.5390578 102.7722870  37.2618112
  43.3851773 103.1962283  37.4052761  42.4789215 102.1156494  37.9556675
  46.5088322 108.3951454  33.6436844  45.8797185 108.5597168  32.9412911
  46.1213984 108.8093063  34.4147808  50.3877554 109.3305891  30.9981207
  49.7028592 109.7104793  30.4478241  50.4721404 109.9401218  31.7313155
  47.6428486 106.9765850  37.5976551  47.8545381 107.6197610  36.9210932
  47.5958234 106.1428167  37.1298481  45.2454715  99.5883671  34.5013123
  44.3839194  99.8864925  34.7929861  45.2717149  99.8054070  33.5694156
  42.0616284 108.1325862  30.9086929  42.5254630 108.4113565  30.1191551
  41.7973082 107.2309306  30.7260019  38.9540365 107.6797343  33.8466692
  39.5241722 108.1084612  33.2084176  39.5448477 107.3979928  34.5450878
  40.9985170 104.2549014  27.7176494  41.7009214 104.7070058  28.1850420
  40.6665799 103.6132833  28.3456387  39.4465532 102.8460771  42.0927703
  38.8164192 103.5277052  42.3263100  39.3401620 102.7343852  41.1480841
  34.7410504 102.5132567  33.0193627  33.9509558 102.7690095  32.5433738
  35.2321752 103.3280905  33.1245668  48.7574314 109.8537806  35.7698908
  49.5791757 109.4517993  35.4881590  48.7536717 109.7506040  36.7215024
  36.6925250 102.8777146  29.9777104  35.8956413 102.9895840  30.4960600
  36.4650842 103.2163798  29.1117995  42.5230917 109.4021849  37.9259619
  42.5875350 109.8642256  38.7617790  41.8141841 108.7719214  38.0541928
  33.0248207 102.7663057  35.4508618  33.2756246 103.6510067  35.7166194
  33.5607756 102.5867659  34.6783710  56.8480307 106.1976554  32.1183880
  56.0944015 105.6283952  31.9627884  56.9827848 106.1639219  33.0654514
  42.2378935 111.0689957  27.7938599  42.1024610 111.9141492  28.2223447
  42.7788747 111.2709234  27.0304533  35.6908332 108.5865395  28.3666524
  36.2032853 109.3808645  28.5172089  36.3431045 107.8891685  28.3000126
  37.5003217 111.7031151  30.4489277  37.6769845 112.6249116  30.2610261
  38.2960050 111.3889570  30.8783657  36.7855573 103.7495783  40.3251440
  36.6709089 102.8481040  40.6258539  35.9300091 103.9959480  39.9736257
  43.8647411 111.6913523  41.9238941  43.4211265 110.9049902  41.6059846
  44.5264625 111.8792674  41.2582832  38.6234532 113.2209325  36.4499620
  39.1741958 113.0926388  35.6776614  37.7846008 113.5204214  36.0994512
  45.9628649 111.9716323  39.9520342  45.9447125 112.7925204  39.4600612
  46.8848569 111.8470398  40.1770483  42.4201703 109.4860453  40.7943851
  42.9530040 108.7248741  40.5643159  41.8915785 109.1934104  41.5368005
  33.6557249 106.9154049  29.1426095  34.4932471 107.3251057  28.9259802
  33.8335517 105.9753491  29.1126288  45.5521681 104.5829130  24.8309928
  45.0368305 105.3533734  25.0698315  45.2798990 103.9094266  25.4542989
  43.1368792  99.4278830  29.8895166  42.2810389  99.0385681  29.7100805
  43.5495744  99.5070791  29.0294951  50.5255955 107.3361484  26.7663101
  49.7485398 106.9972644  26.3218263  51.2047436 107.3414107  26.0918066
  45.3407984 102.4556222  26.6569709  45.0358120 102.7702371  27.5079852
  46.2938426 102.5337642  26.6997042  43.7854416 108.6146445  28.3062663
  43.2575778 107.8799205  27.9935900  43.2841919 109.3921121  28.0602631
  48.7647262 106.8095466  33.4229709  48.1070937 107.4994727  33.5109838
  49.5687661 107.1991897  33.7663695  38.5173144  99.2766111  30.6669274
  39.0916896  99.0541293  29.9342467  39.1044126  99.3454806  31.4197876
  47.5752721 105.1639838  31.4733651  48.0884603 105.7969830  31.9755360
  48.2253945 104.5641034  31.1077011  38.8442731 101.3070572  24.6865159
  38.0080043 101.6445259  25.0074434  38.7047501 101.1719552  23.7492296
  41.9307016 106.4326655  21.3097636  41.0234078 106.2015909  21.5088785
  42.4278048 105.6364275  21.4971617  44.8375095 115.1424163  24.2294322
  44.1636794 115.4455859  24.8379280  45.2240917 115.9453243  23.8799779
  44.0533552 102.6389294  33.7191991  43.1356113 102.8604241  33.5613679
  44.4693695 102.7135604  32.8603699  44.8368600 104.0380709  28.8494672
  45.5840419 104.5502107  28.5401794  45.1060189 103.7164762  29.7099065
  43.1095250 106.5339250  25.8321626  42.2006469 106.2498283  25.9294096
  43.1390334 106.9538329  24.9724933  48.3414517 110.1445840  29.6012793
  47.8876844 109.3036750  29.6577984  47.7108484 110.7807238  29.9387574
  47.2847437 101.0737826  30.8313461  46.5470194 100.5615212  31.1623703
  47.5374210 100.6338207  30.0196738  46.7847456 111.9822336  30.5362612
  47.0770431 112.5427393  29.8174977  47.2946077 112.2750897  31.2915771
  33.6783420 104.2544764  29.8136828  33.4807820 103.6614125  29.0887895
  33.1230084 103.9496975  30.5312767  41.6580144 104.1467871  31.9331421
  41.7128754 103.1941707  31.8573898  40.8471346 104.3027310  32.4172720
  42.8071338 108.0747994  23.1709704  42.3690768 107.3583853  22.7115342
  43.5481778 108.3024109  22.6094796  39.5972504 102.7644931  29.6921800
  38.7840369 103.0639101  30.0986992  40.0931498 102.3700619  30.4096282
  41.7481082 112.7602687  31.6256065  41.7057260 112.9863534  30.6964597
  42.6643780 112.5266062  31.7741866  45.1946715 103.2286755  38.5236694
  45.5496103 103.4558228  39.3831160  45.8418847 103.5605132  37.9013949
  50.9244452 106.3505191  29.2286023  50.7862351 106.5406787  28.3007212
  50.5680671 107.1124574  29.6854074  39.0886578 100.3363286  35.3083035
  39.7285958 100.1952045  34.6105998  38.2564109 100.0497799  34.9321637
  50.9513832 108.4181718  34.2397294  51.3850339 108.3257007  35.0880349
  51.6645413 108.3939218  33.6017310  39.8646882 109.6365716  31.4218027
  40.6587481 109.1416037  31.2200602  39.1538575 109.1083580  31.0585733
  44.6841727 112.0183812  35.7730395  44.7378749 112.5874748  36.5408111
  43.8156508 112.1885697  35.4084432  36.1729646 103.7808798  27.4977780
  35.2427234 103.7193254  27.7147742  36.2687118 103.2584751  26.7014421
  36.0915195 100.3063611  30.0856022  36.3522012 101.2208944  29.9765182
  36.9132367  99.8388054  30.2352635  37.5640120 101.7201368  37.2554846
  38.2363174 101.5118730  36.6067495  36.7369907 101.5223454  36.8160079
  51.8129382 108.4605419  36.7730180  52.0065272 109.3651229  37.0189455
  51.7130000 108.0012838  37.6068765  46.8744490 108.6112161  42.3471060
  46.7229997 108.3822713  41.4301144  46.8649170 109.5682763  42.3602406
  43.6429827 106.1844074  37.3317327  44.5721887 106.3355234  37.1586294
  43.2220857 106.2728095  36.4765973  42.4418158 110.2094738  35.1015865
  42.3029244 109.8413523  35.9741803  41.6532755 110.7242378  34.9299822
  43.0366310 115.3103835  26.4441401  43.2118066 114.8391878  27.2587024
  42.3499098 115.9369601  26.6722662  43.9923374 109.5876341  32.4904702
  43.6573206 109.5477111  33.3862352  43.4927319 108.9221057  32.0175113
  37.9667618 104.9943971  38.0157284  37.8287415 104.2624210  38.6168823
  38.8772541 104.9052871  37.7341471  46.9282565 106.9332376  22.7641762
  46.3111736 106.2079204  22.6674815  46.4599054 107.6941736  22.4208836
  40.5949918 104.7063931  37.5040963  41.3049537 104.0657123  37.4627582
  40.5519226 104.9576825  38.4267144  48.5836697 111.6431284  40.4247542
  48.5249243 110.9590504  39.7578125  48.9856215 112.3850274  39.9728168
  39.3078852 101.6929148  39.3236603  38.7716209 101.2419887  39.9758199
  38.7195561 101.8275057  38.5807067  38.7181111 101.1517800  21.8863066
  37.8410577 101.0306601  21.5225313  39.1938864 100.3603878  21.6341955
  48.5854104 109.6070868  38.6561522  47.6980883 109.2696790  38.7787921
  49.1552655 108.8753899  38.8930287  30.2383251 105.9394960  31.9804573
  30.9254291 105.6256690  31.3925589  30.0831380 106.8436324  31.7071825
  35.0417973 100.8285156  36.4089597  34.9576162 100.2210826  35.6740007
  34.2200680 101.3194174  36.4099093  42.1155258 114.2672320  35.6222765
  42.0425429 115.0727292  36.1342070  41.6732651 114.4664286  34.7970787
  41.9045037 113.5044090  29.1325587  41.1212559 114.0465770  29.2263811
  42.6037782 114.0218070  29.5319828  45.2141687  99.3138720  31.7759792
  45.7110387  98.5608682  31.4560862  44.4428669  99.3503036  31.2103001
  53.0671445 105.0179085  33.4178084  53.0561321 105.9003801  33.0472017
  52.1988824 104.6650636  33.2232621  44.5753941 114.1659154  37.7780924
  45.2881913 114.8006619  37.7056825  44.0843970 114.2623020  36.9620926
  46.2971468 108.0710407  29.3498216  45.3627747 108.1911869  29.1802920
  46.4748136 107.1682874  29.0858225  41.7976656 101.4556103  31.5031477
  41.4274444 100.9027143  32.1912382  42.2935748 100.8514236  30.9506477
  49.6844019 103.9127726  29.8848250  50.1504471 104.7455718  29.8108552
  50.1351520 103.4472708  30.5893508  39.6265855 111.9153598  38.5986495
  40.3275314 112.5490081  38.7515889  39.1560970 112.2568329  37.8382134
  47.7520250 110.2571547  26.8834402  48.0280094 110.1428142  27.7928276
  46.8824749 109.8589032  26.8446575  47.4267141 104.4698205  36.4239045
  46.7738591 104.7174113  35.7691498  47.8047520 103.6562343  36.0901522
  44.3874314 114.5057898  30.5267215  44.5696709 113.6879554  30.9894968
  45.2107300 114.7225591  30.0892105  44.7216480 113.4326083  27.7882264
  45.2504246 112.9218538  27.1752426  44.9844699 113.1168614  28.6527797
  43.4754714 105.2118016  42.9105082  42.7995351 105.1112145  43.5807457
  44.2982347 105.0557230  43.3741079  35.2233573 111.4489953  35.5317597
  35.8087009 110.7033641  35.6645502  35.0258411 111.7593909  36.4154261
  29.8151227 104.0195553  34.2522041  29.8535327 103.4859144  35.0459159
  29.3091520 103.4930758  33.6333018  37.1941990  98.8660093  37.7484583
  37.2583316  99.7274924  37.3361981  37.1309110  98.2534095  37.0156941
  36.6694262 100.9383226  41.3957617  37.2966301 100.5560303  42.0095141
  35.8122181 100.7197428  41.7613310  47.0688371 111.3446201  43.0011353
  47.6128275 111.9576159  42.5066307  46.4875216 111.9025780  43.5178366
  33.4459805 102.7459655  27.3275972  33.7413246 101.8370333  27.2743026
  32.5447841 102.7247394  27.0056974  45.3545884 114.4666919  34.1326380
  45.2297023 113.6656659  33.6237326  46.0124975 114.9613112  33.6440350
  36.9754052 100.8215652  33.3103521  36.2540638 101.4351619  33.1710994
  37.7647308 101.3573416  33.2320166  47.4180792 112.2675939  35.7605930
  46.4711128 112.1481290  35.6884257  47.7663565 111.3798437  35.8432192
  35.1747647 100.4273753  27.4515297  34.8460353  99.5471132  27.2690403
  35.5287017 100.3721421  28.3391686  44.4227225 112.0628655  31.9610283
  44.2752188 111.1345363  32.1417853  45.2480719 112.0848746  31.4767358
  38.2889470 100.7146723  27.8190775  38.6285542 101.2432644  27.0969383
  38.7361590 101.0527129  28.5949341  48.0261347 112.8857214  33.0475155
  48.9507895 112.6800075  32.9099607  47.8576651 112.6373615  33.9564497
  40.2757617  99.2121344  26.0184068  40.9965979  99.5902597  25.5147784
  39.6522921  99.9310221  26.1219045  44.4188740  99.9166493  26.9542400
  44.6352354 100.7991131  26.6531228  43.9382807  99.5252706  26.2248042
  39.1587961 102.8752206  33.5313144  39.0132542 103.1892509  34.4237426
  38.6813165 103.4937107  32.9784043  41.0184344  99.8654754  33.5794034
  41.0045913  98.9695848  33.2426332  41.7356772  99.8725418  34.2132320
  42.8710475 100.2992094  35.6247161  42.6128253 101.2209165  35.6231492
  42.3395515  99.9022529  36.3147626  47.8156663 113.4042882  28.4037247
  47.9893541 112.8389304  27.6511099  48.3085555 114.2043776  28.2216737
  33.6333623 105.4157551  36.4700806  33.0887091 106.1917359  36.6021080
  34.5112973 105.7628355  36.3119927  40.4221240  98.7469135  28.8481604
  40.5437151  97.8185781  29.0472492  40.1323282  98.7607821  27.9359920
  53.6696055 106.1679305  30.0227547  54.1127201 105.4186630  29.6246670
  52.7922565 106.1589441  29.6401279  48.8031836 112.7209646  25.5034145
  49.4982741 113.3416339  25.7221460  49.1454986 111.8704997  25.7786523
  34.4199645 104.5427447  39.3630963  33.6781381 104.6910082  39.9495593
  34.0992389 104.8035713  38.4997712  50.7023259 110.1709352  27.0321476
  51.2274583 110.5096624  26.3070796  50.6145612 109.2356367  26.8484611
  42.3643308 114.0843425  39.1611353  42.6730434 113.8392572  40.0334052
  43.1618790 114.2890064  38.6730223  34.8656259 112.4292876  31.3941357
  35.6914279 112.1296648  31.0140001  34.5150311 111.6600498  31.8431146
  39.8337792 111.7819344  33.4639031  39.2117801 111.1190049  33.1641259
  40.5042659 111.8080476  32.7812679  33.0664864 110.3479202  32.3530291
  32.2296772 109.9201376  32.1714292  33.0388509 110.5411645  33.2901082
  39.9062319 100.2601132  43.0571537  39.9550475 101.1363255  42.6749306
  40.4484834  99.7178525  42.4843180  50.3917165 110.8042255  42.3372674
  49.6012709 110.7866394  41.7977173  50.1550520 111.3430549  43.0921710
  50.5115040 107.6534722  39.6505402  50.5613045 107.4884729  40.5920925
  50.4028964 106.7861981  39.2603283  39.3951299 110.3323267  26.9397491
  39.5439419 111.0158732  26.2864164  40.2017742 110.3128357  27.4546947
  47.8018803 103.6365650  40.9664709  48.7028665 103.4972114  40.6748707
  47.8766777 103.8020104  41.9062887  52.0133237 110.0731663  39.8947424
  51.7218045 110.4361644  40.7310885  51.4005368 109.3598671  39.7160756
  53.2128919 107.6384543  32.4149994  54.0475811 108.0774347  32.5787555
  53.3488048 107.1623196  31.5958240  50.2620425 105.1964278  38.3627482
  50.7374547 105.3891924  37.5546333  49.3385991 105.2523464  38.1170866
  37.1503932 106.3588445  27.9458560  36.9049974 105.4550775  28.1438770
  37.3199846 106.3605595  27.0038038  36.4199579 102.0916802  25.4444722
  35.7268824 102.1661157  24.7884758  36.1751331 101.3277146  25.9666239
  42.8946704 112.8271398  24.4109239  42.3220671 113.4461585  23.9579711
  43.4679498 113.3770759  24.9449161  48.9622094 102.0730038  36.5955788
  49.9139517 102.1728135  36.6168012  48.7925545 101.2808306  37.1053872
  46.1143964 113.1108548  25.5417821  47.0474637 113.0454110  25.7450696
  46.0267177 113.9464815  25.0832354  48.7431981 112.4274418  22.5021769
  48.6645612 112.0934282  23.3957526  49.5641648 112.9196186  22.5013241
  51.4410172 105.2936157  35.7098087  51.4086492 104.3552158  35.8957771
  52.0510796 105.3720194  34.9763912  43.2793503 104.1632210  21.7525291
  44.2252608 104.0338419  21.8213709  42.9007748 103.4246872  22.2294719
  51.5904661 102.0847201  35.7556370  51.0743709 101.3005658  35.5686299
  52.4744609 101.7565918  35.9202890  49.2515387  95.8288216  31.7152183
  49.0540209  95.5203305  32.5995515  49.8615093  96.5549855  31.8450113
  57.2586722 106.3552164  34.8504124  57.9890110 106.0937452  35.4111827
  56.6493667 105.6180886  34.8906192  55.3402019 104.4960027  35.4478575
  54.6135183 104.3615992  34.8395067  54.9249306 104.8036856  36.2535293
  43.1632195 108.2149957  43.2125948  44.0835205 108.3928556  43.4065995
  43.1281778 107.2706002  43.0605647  41.4636420 102.0882187  21.6880176
  40.5567875 101.7915300  21.7642890  41.7412401 101.7912005  20.8214463
  32.3814360 103.4088550  32.1379223  32.0617145 102.5553858  31.8453597
  31.8347789 103.6237128  32.8937190  36.1594268 106.1250991  35.8548729
  36.3780278 107.0568099  35.8736763  36.5720042 105.7658966  36.6403533
  43.0798486  96.6319077  27.8424418  42.2699214  96.2866162  28.2179664
  43.7682903  96.3226620  28.4312029  41.0322133 101.6984197  45.2451478
  40.9318860 102.6478554  45.1763569  40.8143675 101.3702436  44.3727548
  40.2335205  98.9469122  21.8292156  41.0954369  99.2724020  22.0887973
  40.4185549  98.1600618  21.3165221  32.2502620 107.0291462  34.1072344
  31.5566092 106.6145415  33.5942299  32.9975611 107.0711998  33.5105763
  48.3867841  97.8197649  28.9727379  47.8066510  98.4782453  28.5905431
  48.1203774  96.9974993  28.5614796  46.8371408  97.2202706  31.1748699
  47.3371186  97.3319241  30.3663018  47.4807015  96.9163759  31.8149507
  40.8953403 105.1281336  44.0616540  40.4120485 105.9281696  44.2680429
  40.9814342 105.1389281  43.1083984  34.1639363 106.9609716  31.9838359
  34.1410051 107.0597403  31.0320242  34.4739999 107.8074866  32.3055525
  36.8226741 109.0185871  36.0984974  37.7769994 108.9869813  36.0314905
  36.6239264 108.5576494  36.9135200  37.4126123 107.5886987  38.6655771
  38.2319012 108.0831065  38.6890609  37.6862931 106.6718955  38.6373339
  47.1692719  99.9797739  28.0283727  46.2818574 100.2647390  27.8103922
  47.5846708  99.8191502  27.1811004  50.5207255 100.0044260  31.7438066
  51.2967645 100.4940712  32.0162683  49.7955389 100.4302314  32.2009936
  52.9579814 100.7171879  32.8012007  53.5524305 100.4767615  32.0905315
  53.0306398  99.9979010  33.4285543  46.3135933 109.7442414  22.1231747
  47.0171783 109.9492416  22.7389402  45.5898581 110.3119175  22.3880830
  47.1433743 105.4952275  28.2434017  47.0868944 105.9520826  27.4041649
  47.6962085 104.7342959  28.0656860  50.9538549 101.2842007  29.0684137
  50.6975483 100.8838642  29.8992344  50.3291417 101.9985801  28.9434276
  55.2650887 104.0238080  31.5755428  54.7050445 104.0931269  32.3486990
  54.6594390 103.8479065  30.8554924  48.2222630 110.1824943  24.1730207
  49.0568234 109.7506141  23.9907682  48.0606973 110.0106956  25.1007101
  47.8768522 106.6857056  25.5386546  47.8217326 106.5201328  24.5974990
  47.2514577 107.3933089  25.6948736  32.6661037 101.9225120  39.3647968
  33.3119901 101.4124074  39.8535194  32.4578188 102.6593802  39.9391394
  45.1914429 108.9905968  44.8640109  46.0605589 109.1646620  44.5026744
  44.7121181 109.8100385  44.7415838  41.1864648  96.1865165  25.1171865
  41.1743318  97.1307005  25.2740135  42.0788070  96.0035310  24.8231326
  41.1154212 114.8634055  33.2039621  40.1649843 114.8635917  33.0903994
  41.4186698 114.1166790  32.6875656  37.0058528  99.0692738  43.4622983
  37.8689990  98.7129542  43.6726307  36.4323939  98.7306632  44.1498387
  56.4048174 118.4246048  31.3438592  57.1911263 118.0065471  30.9929009
  56.6686878 119.3292140  31.5120240  61.8056601 118.3621281  32.2471570
  62.5381773 117.7920498  32.4809400  61.0495956 117.9742881  32.6878076
  59.3282021 112.0742855  36.7066179  58.9965346 112.9438266  36.4827394
  58.7327634 111.7579139  37.3860209  53.0638207 115.8138422  24.4396261
  53.2312610 116.6818659  24.8066732  52.8735377 115.9765704  23.5157550
  59.2210684 116.7937941  33.7859529  58.3127562 116.7253350  33.4918290
  59.1698280 117.2709886  34.6141354  53.0427428 118.2696080  25.4242928
  52.9227054 118.7153130  26.2628408  52.3480017 118.6181397  24.8656466
  53.2951550 118.2127587  41.7294426  52.5184884 118.7721507  41.7197291
  53.9342113 118.6984370  42.2509296  61.0872331 114.9954380  35.5637403
  60.4446711 115.2886913  34.9177197  60.5827259 114.8807300  36.3690599
  58.7412494 118.7417553  26.2523262  59.6530351 118.9744940  26.0770960
  58.2322142 119.3254597  25.6898341  53.3784332 118.1014787  37.2618112
  54.2245527 118.5254201  37.4052761  53.3182970 117.4448412  37.9556675
  56.5283778 115.7619156  38.9199285  56.2844709 116.5161216  38.3833561
  56.8043708 116.1404503  39.7546532  56.0848469 114.9175589  34.5013123
  55.2232948 115.2156842  34.7929861  56.1110904 115.1345988  33.5694156
  67.6874061 121.5268472  32.1183880  66.9337770 120.9575870  31.9627884
  67.8221603 121.4931137  33.0654514  49.5640029 112.4773454  44.4552954
  49.1706975 111.9239653  45.1300598  50.3806169 112.7884033  44.8459472
  52.4807990 113.8931333  42.0473211  53.2217703 114.4938486  41.9677673
  52.7125913 113.1508971  41.4891253  56.4265153 109.9212436  36.3237492
  56.0829422 110.8114078  36.2476603  56.7944116 109.7314094  35.4607077
  56.3915436 119.9121047  24.8309928  55.8762059 120.6825652  25.0698315
  56.1192744 119.2386183  25.4542989  53.9762547 114.7570748  29.8895166
  53.1204143 114.3677598  29.7100805  54.3889498 114.8362709  29.0294951
  55.5061693 112.2917091  34.2886726  55.0026489 112.2547227  33.4754531
  55.7992300 113.2009834  34.3483382  51.7504579 112.3755821  33.2952907
  52.6157576 112.1798630  32.9358797  51.8182088 112.1466173  34.2222264
  61.3649710 122.6653402  26.7663101  60.5879153 122.3264561  26.3218263
  62.0441191 122.6706025  26.0918066  56.1801739 117.7848139  26.6569709
  55.8751874 118.0994289  27.5079852  57.1332181 117.8629559  26.6997042
  49.3566898 114.6058029  30.6669274  49.9310650 114.3833211  29.9342467
  49.9437881 114.6746724  31.4197876  58.4146475 120.4931756  31.4733651
  58.9278357 121.1261748  31.9755360  59.0647699 119.8932951  31.1077011
  49.6836485 116.6362490  24.6865159  48.8473798 116.9737177  25.0074434
  49.5441255 116.5011470  23.7492296  51.6589566 111.4799278  29.3944344
  51.0053978 111.1648295  28.7700958  51.6170040 110.8575018  30.1204167
  54.8927306 117.9681211  33.7191991  53.9749868 118.1896158  33.5613679
  55.3087450 118.0427522  32.8603699  55.6762354 119.3672627  28.8494672
  56.4234173 119.8794024  28.5401794  55.9453944 119.0456680  29.7099065
  58.1241191 116.4029743  30.8313461  57.3863948 115.8907130  31.1623703
  58.3767965 115.9630125  30.0196738  58.2252819 109.1805995  31.4255230
  58.5311695 108.3203359  31.1381145  58.9505423 109.7723616  31.2254224
  50.4366258 118.0936848  29.6921800  49.6234124 118.3931019  30.0986992
  50.9325252 117.6992537  30.4096282  56.0340470 118.5578673  38.5236694
  56.3889858 118.7850146  39.3831160  56.6812601 118.8897049  37.9013949
  61.7638207 121.6797109  29.2286023  61.6256105 121.8698705  28.3007212
  61.4074426 122.4416491  29.6854074  49.9280333 115.6655204  35.3083035
  50.5679712 115.5243963  34.6105998  49.0957864 115.3789717  34.9321637
  46.9308949 115.6355529  30.0856022  47.1915767 116.5500862  29.9765182
  47.7526122 115.1679971  30.2352635  48.4033875 117.0493286  37.2554846
  49.0756928 116.8410648  36.6067495  47.5763661 116.8515372  36.8160079
  54.3059447 113.6755227  39.2720507  53.6587362 114.3745176  39.1784984
  55.0760462 114.1091371  39.6396755  50.1472607 117.0221066  39.3236603
  49.6109964 116.5711805  39.9758199  49.5589315 117.1566975  38.5807067
  49.5574866 116.4809717  21.8863066  48.6804332 116.3598518  21.5225313
  50.0332619 115.6895796  21.6341955  45.8811728 116.1577074  36.4089597
  45.7969917 115.5502743  35.6740007  45.0594434 116.6486092  36.4099093
  56.0535442 114.6430637  31.7759792  56.5504141 113.8900600  31.4560862
  55.2822423 114.6794954  31.2103001  63.9065199 120.3471003  33.4178084
  63.8955075 121.2295718  33.0472017  63.0382579 119.9942554  33.2232621
  52.6370410 116.7848020  31.5031477  52.2668198 116.2319061  32.1912382
  53.1329503 116.1806154  30.9506477  60.5237774 119.2419644  29.8848250
  60.9898226 120.0747635  29.8108552  60.9745274 118.7764625  30.5893508
  58.4954437 111.6100231  33.9239151  57.5817516 111.8404458  34.0921358
  58.9247538 111.6938675  34.7753183  58.2660895 119.7990123  36.4239045
  57.6132345 120.0466030  35.7691498  58.6441275 118.9854261  36.0901522
  48.0335744 114.1952011  37.7484583  48.0977071 115.0566842  37.3361981
  47.9702864 113.5826013  37.0156941  47.5088017 116.2675144  41.3957617
  48.1360055 115.8852221  42.0095141  46.6515936 116.0489346  41.7613310
  47.8147806 116.1507569  33.3103521  47.0934392 116.7643537  33.1710994
  48.6041062 116.6865334  33.2320166  50.6174120 113.4861996  39.5844172
  51.1408522 113.7324292  40.3470482  50.3986453 114.3182031  39.1647310
  46.0141401 115.7565670  27.4515297  45.6854107 114.8763049  27.2690403
  46.3680772 115.7013339  28.3391686  49.1283224 116.0438640  27.8190775
  49.4679297 116.5724561  27.0969383  49.5755345 116.3819046  28.5949341
  51.8226665 114.4275691  37.2693843  51.4823485 113.6283504  37.6714523
  51.1165671 114.7277402  36.6970676  52.4743137 111.5125003  35.7221166
  53.2969206 111.0385482  35.6000056  52.7181200 112.2915487  36.2219852
  51.1151371 114.5413262  26.0184068  51.8359734 114.9194515  25.5147784
  50.4916675 115.2602139  26.1219045  55.2582494 115.2458411  26.9542400
  55.4746109 116.1283049  26.6531228  54.7776561 114.8544624  26.2248042
  51.8578098 115.1946672  33.5794034  51.8439667 114.2987765  33.2426332
  52.5750527 115.2017336  34.2132320  53.7104229 115.6284012  35.6247161
  53.4522007 116.5501083  35.6231492  53.1789270 115.2314447  36.3147626
  51.2614994 114.0761052  28.8481604  51.3830906 113.1477698  29.0472492
  50.9717037 114.0899738  27.9359920  54.1306185 111.7615963  31.9848324
  54.1527882 111.8255296  31.0300304  54.5474244 110.9220471  32.1788830
  64.5089809 121.4971222  30.0227547  64.9520955 120.7478547  29.6246670
  63.6316319 121.4881359  29.6401279  50.7456074 115.5893050  43.0571537
  50.7944229 116.4655172  42.6749306  51.2878588 115.0470443  42.4843180
  58.6412557 118.9657567  40.9664709  59.5422420 118.8264032  40.6748707
  58.7160532 119.1312022  41.9062887  52.9755362 116.3424422  39.8117895
  52.1058672 116.6357988  39.5400484  53.2114843 116.9264867  40.5325159
  64.0522674 122.9676461  32.4149994  64.8869565 123.4066265  32.5787555
  64.1881803 122.4915114  31.5958240  61.1014180 120.5256195  38.3627482
  61.5768301 120.7183842  37.5546333  60.1779745 120.5815381  38.1170866
  55.6794396 112.5604039  37.3283316  56.1976340 113.2965066  37.0029804
  55.3249529 112.8668032  38.1630075  47.2593334 117.4208720  25.4444722
  46.5662579 117.4953075  24.7884758  47.0145086 116.6569064  25.9666239
  55.9306990 108.9804321  32.8484212  56.2108744 108.3127511  33.4744639
  56.7157597 109.1733417  32.3358876  59.8015849 117.4021955  36.5955788
  60.7533272 117.5020053  36.6168012  59.6319299 116.6100224  37.1053872
  57.8230228 114.4877539  36.7815188  57.2280160 114.7682551  36.0861677
  57.5379925 114.9771440  37.5531930  62.2803927 120.6228075  35.7098087
  62.2480247 119.6844076  35.8957771  62.8904550 120.7012112  34.9763912
  54.1187257 119.4924128  21.7525291  55.0646362 119.3630336  21.8213709
  53.7401502 118.7538790  22.2294719  62.4298415 117.4139119  35.7556370
  61.9137464 116.6297575  35.5686299  63.3138364 117.0857835  35.9202890
  60.0909142 111.1580134  31.7152183  59.8933963 110.8495222  32.5995515
  60.7008848 111.8841773  31.8450113  68.0980476 121.6844082  34.8504124
  68.8283865 121.4229370  35.4111827  67.4887422 120.9472804  34.8906192
  66.1795773 119.8251945  35.4478575  65.4528937 119.6907910  34.8395067
  65.7643060 120.1328773  36.2535293  52.3030175 117.4174105  21.6880176
  51.3961630 117.1207217  21.7642890  52.5806156 117.1203923  20.8214463
  53.9192240 111.9610994  27.8424418  53.1092969 111.6158079  28.2179664
  54.6076657 111.6518538  28.4312029  55.8482789 111.0389041  29.4648714
  56.4013827 111.4584494  30.1238737  56.0852875 110.1124789  29.5071670
  51.8715888 117.0276115  45.2451478  51.7712615 117.9770472  45.1763569
  51.6537430 116.6994354  44.3727548  51.0728959 114.2761040  21.8292156
  51.9348123 114.6015938  22.0887973  51.2579303 113.4892536  21.3165221
  59.2261596 113.1489566  28.9727379  58.6460265 113.8074370  28.5905431
  58.9597528 112.3266911  28.5614796  57.6765162 112.5494624  31.1748699
  58.1764940 112.6611158  30.3663018  58.3200770 112.2455677  31.8149507
  58.0086474 115.3089657  28.0283727  57.1212329 115.5939307  27.8103922
  58.4240463 115.1483420  27.1811004  61.3601010 115.3336178  31.7438066
  62.1361400 115.8232630  32.0162683  60.6349144 115.7594232  32.2009936
  63.7973568 116.0463797  32.8012007  64.3918059 115.8059533  32.0905315
  63.8700152 115.3270927  33.4285543  57.9827497 120.8244193  28.2434017
  57.9262699 121.2812744  27.4041649  58.5355840 120.0634877  28.0656860
  61.7932303 116.6133924  29.0684137  61.5369238 116.2130560  29.8992344
  61.1685171 117.3277718  28.9434276  66.1044641 119.3529998  31.5755428
  65.5444199 119.4223187  32.3486990  65.4988145 119.1770982  30.8554924
  52.0258402 111.5157083  25.1171865  52.0137072 112.4598923  25.2740135
  52.9181824 111.3327228  24.8231326  55.8410522 108.1099859  29.3717801
  55.0742917 107.5558346  29.5174484  56.2521227 108.1821728  30.2331953
  47.8452283 114.3984655  43.4622983  48.7083744 114.0421460  43.6726307
  47.2717693 114.0598550  44.1498387  69.0646573 124.5097913  31.4255230
  69.3705450 123.6495277  31.1381145  69.7899178 125.1015533  31.2254224
  66.7700745 124.3096239  32.8484212  67.0502499 123.6419428  33.4744639
  67.5551352 124.5025335  32.3358876  66.6804276 123.4391777  29.3717801
  65.9136672 122.8850264  29.5174484  67.0914981 123.5113646  30.2331953
   3.7113354  27.0340653  29.7256659   4.2553258  27.6470611  29.2311614
   3.1300199  27.5920231  30.2423672   7.0342148  26.4936707  29.0617980
   6.2437692  26.4760846  28.5222480   6.7975503  27.0325001  29.8167017
   1.8339413  24.6800420  31.5885416   2.7030572  24.8541072  31.2272051
   1.3546164  25.4994837  31.4661145  13.4931888  36.3889046  20.9930690
  14.1310298  36.2695793  20.2894030  13.3752731  37.3369890  21.0518642
  10.7841378  37.4951326  26.8878421  10.7730018  37.1004124  26.0158924
  10.9462017  36.7617398  27.4812192   7.5048639  40.2788437  25.8357604
   7.2138505  41.1834068  25.7204271   8.1405623  40.3204965  26.5501674
   8.4304846  37.6565286  22.4258964   9.0268418  37.4321308  21.7115927
   8.4879817  36.9150031  23.0284412  18.4481584  34.0515733  18.9716877
  19.1806756  33.4814950  19.2054706  17.6920940  33.6637333  19.4123382
  15.9707004  27.7637307  23.4311485  15.6390329  28.6332718  23.2072700
  15.3752618  27.4473591  24.1105516  12.4638524  39.9649853  22.8307398
  12.1639247  40.8674892  22.7223205  12.1189583  39.6982036  23.6828551
   7.4459304  46.7294173  15.7978366   7.3683333  47.6801998  15.8766846
   6.8420947  46.3840046  16.4553292   9.9376533  33.9022039  28.4539733
   9.1609868  34.4615959  28.4442597  10.5767097  34.3878822  28.9754603
  17.7297314  30.6848832  22.2882709  17.0871694  30.9781365  21.6422504
  17.2252243  30.5701752  23.0935906   8.1922906  36.7107492  28.0157700
   8.9337590  37.2492536  27.7392523   7.4859891  37.3373781  28.1729252
  13.6678245  38.8536633  26.6129861  14.0761601  38.4119043  25.8684494
  12.9455507  38.2789260  26.8664054  10.0209315  33.7909239  23.9863418
  10.8670511  34.2148653  24.1298067   9.9607953  33.1342864  24.6801981
  13.9907060  39.4137823  20.3682150  13.3615923  39.5783537  19.6658218
  13.6032722  39.8279433  21.1393114  17.8696292  40.3492261  17.7226514
  17.1847330  40.7291162  17.1723547  17.9540141  40.9587588  18.4558462
  13.1708761  31.4513608  25.6444592  12.9269693  32.2055668  25.1078868
  13.4468691  31.8298955  26.4791839  15.1247224  37.9952220  24.3221857
  15.3364119  38.6383980  23.6456239  15.0776972  37.1614537  23.8543788
   6.9284270  33.8647140  28.8173010   6.2982930  34.5463421  29.0508407
   6.8220357  33.7530222  27.8726148  16.2393052  40.8724175  22.4944215
  17.0610495  40.4704363  22.2126896  16.2355454  40.7692410  23.4460331
  10.0049655  40.4208219  24.6504925  10.0694087  40.8828626  25.4863097
   9.2960579  39.7905584  24.7787235  24.3299045  37.2162924  18.8429186
  23.5762753  36.6470322  18.6873191  24.4646586  37.1825588  19.7899821
   6.2065012  28.1667906  31.1798261   5.8131958  27.6134105  31.8545905
   7.0231153  28.4778485  31.5704778   9.1232973  29.5825785  28.7718517
   9.8642687  30.1832938  28.6922980   9.3550896  28.8403423  28.2136560
   4.2674311  34.7682152  27.0496747   4.1527826  33.8667410  27.3503846
   3.4118829  35.0145849  26.6981564  11.3466149  42.7099893  28.6484248
  10.9030003  41.9236271  28.3305152  12.0083363  42.8979043  27.9828138
   6.1053270  44.2395694  23.1744926   6.6560695  44.1112758  22.4021920
   5.2664746  44.5390583  22.8239819  13.4447387  42.9902693  26.6765649
  13.4265862  43.8111574  26.1845918  14.3667307  42.8656768  26.9015790
   9.9020441  40.5046822  27.5189157  10.4348778  39.7435110  27.2888465
   9.3734522  40.2120474  28.2613312  16.2466000  37.8281835  20.1475016
  15.5889674  38.5181097  20.2355144  17.0506399  38.2178267  20.4909002
  15.8233255  41.1632209  16.3258100  15.3695582  40.3223119  16.3823291
  15.1927222  41.7993608  16.6632880  14.2666194  43.0008706  17.2607918
  14.5589169  43.5613763  16.5420284  14.7764815  43.2937267  18.0161077
   9.2299819  43.7789057  18.3501371   9.1875998  44.0049903  17.4209903
  10.1462518  43.5452432  18.4987173  12.6765453  34.2473125  25.2482001
  13.0314841  34.4744598  26.1076466  13.3237584  34.5791501  24.6259256
  18.4332570  39.4368087  20.9642601  18.8669076  39.3443377  21.8125655
  19.1464150  39.4125588  20.3262617  12.1660465  43.0370182  22.4975702
  12.2197487  43.6061118  23.2653418  11.2975246  43.2072067  22.1329739
  19.2948119  39.4791788  23.4975487  19.4884009  40.3837599  23.7434761
  19.1948737  39.0199207  24.3314072  10.9484430  29.3649679  25.9965814
  10.3012345  30.0639628  25.9030290  11.7185445  29.7985823  26.3642062
  14.3563228  39.6298531  29.0716367  14.2048734  39.4009083  28.1546451
  14.3467907  40.5869132  29.0847712  11.1248564  37.2030444  24.0562634
  12.0540624  37.3541603  23.8831601  10.7039594  37.2914464  23.2011280
   9.9236896  41.2281108  21.8261171   9.7847982  40.8599892  22.6987109
   9.1351492  41.7428747  21.6545129  11.4742111  40.6062711  19.2150009
  11.1391944  40.5663481  20.1107659  10.9746057  39.9407427  18.7420419
   5.4486355  36.0130341  24.7402590   5.3106153  35.2810580  25.3414129
   6.3591279  35.9239241  24.4586778   8.0768656  35.7250300  24.2286270
   8.7868274  35.0843492  24.1872888   8.0337964  35.9763195  25.1512451
  16.0655435  42.6617653  27.1492849  16.0067981  41.9776874  26.4823432
  16.4674953  43.4036643  26.6973475   6.7897590  32.7115518  26.0481909
   6.2534947  32.2606256  26.7003506   6.2014298  32.8461427  25.3052374
   5.0846133  49.4779567  19.9426568   5.3242732  50.1098091  20.6205586
   4.2415330  49.1267607  20.2291927  16.0672842  40.6257237  25.3806829
  15.1799621  40.2883159  25.5033228  16.6371393  39.8940269  25.6175594
   9.5973995  45.2858690  22.3468072   9.5244167  46.0913661  22.8587376
   9.1551388  45.4850656  21.5216093  20.5490182  36.0365455  20.1423390
  20.5380059  36.9190170  19.7717323  19.6807562  35.6837006  19.9477927
  12.0572679  45.1845524  24.5026231  12.7700651  45.8192989  24.4302132
  11.5662707  45.2809390  23.6866232   7.1084592  42.9339967  25.3231801
   7.8094052  43.5676450  25.4761196   6.6379707  43.2754699  24.5627441
  14.9085878  35.4884575  23.1484352  14.2557329  35.7360482  22.4936804
  15.2866258  34.6748713  22.8146829  11.8693052  45.5244268  17.2512522
  12.0515447  44.7065924  17.7140274  12.6926038  45.7411960  16.8137412
  10.9573451  36.2304386  29.6350389  10.2814088  36.1298515  30.3052764
  11.7801085  36.0743599  30.0986386   2.7052310  42.4676322  22.2562904
   3.2905747  41.7220010  22.3890808   2.5077149  42.7780279  23.1399568
   9.6996234  47.5371313  23.8708005  10.2514542  47.7002935  24.6357090
  10.0402428  48.1275751  23.1988030   4.1513000  31.9569596  28.1202924
   4.7785039  31.5746673  28.7340448   3.2940919  31.7383797  28.4858616
  14.5507109  42.3632571  29.7256659  15.0947013  42.9762529  29.2311614
  13.9693953  42.9212149  30.2423672  12.8364621  45.4853289  20.8571687
  12.7115761  44.6843029  20.3482632  13.4943713  45.9799482  20.3685657
  14.8999530  43.2862309  22.4851237  13.9529865  43.1667660  22.4129564
  15.2482303  42.3984807  22.5677498   7.2599103  29.1756448  26.3089479
   7.7833505  29.4218744  27.0715788   7.0411437  30.0076483  25.8892616
  11.9045963  43.0815025  18.6855589  11.7570926  42.1531732  18.8663159
  12.7299457  43.1035116  18.2012664  15.5080085  43.9043584  19.7720462
  16.4326632  43.6986445  19.6344913  15.3395388  43.6559985  20.6809804
  15.2975401  44.4229251  15.1282553  15.4712279  43.8575674  14.3756406
  15.7904292  45.2230146  14.9462043  21.1514792  37.1865674  16.7472853
  21.5945938  36.4372999  16.3491976  20.2741303  37.1775810  16.3646585
   1.9018383  35.5613817  26.0876269   1.1600119  35.7096452  26.6740900
   1.5811127  35.8222082  25.2243019   9.8462046  45.1029795  25.8856659
  10.1549172  44.8578942  26.7579359  10.6437528  45.3076433  25.3975529
   9.8682658  47.2567704  18.1162036   9.4287648  46.7644083  18.8094892
  10.6190775  46.7140672  17.8754111   7.3156530  42.8005713  20.1884337
   6.6936539  42.1376418  19.8886565   7.9861397  42.8266845  19.5057985
   7.3881057  31.2787501  29.7816843   7.4369213  32.1549624  29.3994613
   7.9303571  30.7364895  29.2088487  17.8735903  41.8228625  29.0617980
  17.0831447  41.8052764  28.5222480  17.6369257  42.3616918  29.8167017
  17.9933778  38.6721091  26.3750709  18.0431783  38.5071099  27.3166232
  17.8847701  37.8048350  25.9848590  15.2837540  34.6552019  27.6910016
  16.1847403  34.5158484  27.3994014  15.3585515  34.8206474  28.6308193
   9.6180346  32.0318874  26.5363202   8.7483655  32.3252440  26.2645791
   9.8539826  32.6159319  27.2570466  19.4951975  41.0918033  26.6192731
  19.2036783  41.4548013  27.4556192  18.8824106  40.3785041  26.4406063
  20.6947657  38.6570912  19.1395301  21.5294548  39.0960716  19.3032861
  20.8306786  38.1809566  18.3203547  17.7439163  36.2150647  25.0872789
  18.2193285  36.4078294  24.2791640  16.8204728  36.2709833  24.8416172
  16.4440832  33.0916407  23.3201094  17.3958255  33.1914505  23.3413318
  16.2744282  32.2994676  23.8299179  14.4655211  30.1771991  23.5060495
  13.8705144  30.4577003  22.8106984  14.1804908  30.6665891  24.2777236
  18.9228910  36.3122527  22.4343394  18.8905230  35.3738528  22.6203078
  19.5329533  36.3906564  21.7009219  19.0723398  33.1033570  22.4801677
  18.5562447  32.3192027  22.2931606  19.9563347  32.7752287  22.6448196
  24.7405460  37.3738534  21.5749431  25.4708848  37.1123822  22.1357134
  24.1312405  36.6367256  21.6151499  22.8220757  35.5146396  22.1723882
  22.0953920  35.3802361  21.5640373  22.4068044  35.8223225  22.9780600
  10.6450933  39.2336326  29.9371255  11.5653943  39.4114925  30.1311301
  10.6100516  38.2892372  29.7850954   8.5140871  32.7170567  31.9696785
   8.4137598  33.6664924  31.9008876   8.2962413  32.3888805  31.0972855
   8.3772141  36.1467705  30.7861847   7.8939223  36.9468066  30.9925736
   8.4633080  36.1575650  29.8329291   4.3045479  40.0372240  22.8230280
   5.2588732  40.0056182  22.7560212   4.1058002  39.5762864  23.6380506
   4.8944861  38.6073356  25.3901078   5.7137750  39.1017435  25.4135915
   5.1681668  37.6905324  25.3618646   2.6595707  45.5791860  19.8400478
   2.5250175  44.8192260  19.2738476   2.2427770  46.3032759  19.3729267
  22.7469624  35.0424450  18.3000735  22.1869182  35.1117639  19.0732297
  22.1413128  34.8665434  17.5800231   5.8164833  46.4761177  20.0518921
   5.6997217  47.4206609  19.9497611   4.9957280  46.1734738  20.4404720
  12.6733167  40.0092338  31.5885416  13.5424327  40.1832990  31.2272051
  12.1939919  40.8286754  31.4661145   6.8419347  47.1289439  23.2674849
   7.7446594  47.1613049  23.5841344   6.6156717  46.1989889  23.2821185
   8.5972949  45.8820425  19.9284928   7.6468580  45.8822287  19.8149300
   8.9005436  45.1353160  19.4120963   4.4877266  30.0879107  30.1868289
   5.3508728  29.7315912  30.3971614   3.9142677  29.7493002  30.8743694
  24.3325643  51.7180963  20.9930690  24.9704053  51.5987711  20.2894030
  24.2146486  52.6661807  21.0518642  21.1415349  51.6708392  20.9292215
  20.8033861  51.5549456  20.0412750  22.0105117  51.2699557  20.9093221
  17.0002165  53.5243868  16.9189106  16.4367030  53.4333805  16.1505394
  16.8854560  52.7043772  17.3991598  21.6235132  52.8243243  26.8878421
  21.6123773  52.4296042  26.0158924  21.7855772  52.0909316  27.4812192
  14.5466597  55.0195060  19.7573326  15.3387889  54.6785884  19.3419626
  14.7863247  55.1290035  20.6775480  22.5801724  57.1914836  12.2303571
  21.9289703  57.7768916  11.8437585  23.3746086  57.7221031  12.2898608
  16.5057351  54.2803973  12.6290705  17.2788227  53.7332960  12.4903581
  16.8582750  55.1448222  12.8405167  18.3442393  55.6080355  25.8357604
  18.0532259  56.5125986  25.7204271  18.9799378  55.6496883  26.5501674
  19.2698600  52.9857204  22.4258964  19.8662172  52.7613226  21.7115927
  19.3273572  52.2441949  23.0284412  18.8423629  50.4396639  10.2609155
  19.0949149  49.9178160   9.4992618  17.9048188  50.2762784  10.3635839
  23.8866911  49.4432417  18.0683898  24.6730001  49.0251840  17.7174315
  24.1505616  50.3478509  18.2365547  24.0576989  54.8805268  12.7672555
  23.4222822  54.9539894  13.4793460  23.7274395  55.4698866  12.0891634
  29.2875339  49.3807651  18.9716877  30.0200510  48.8106867  19.2054706
  28.5314694  48.9929251  19.4123382  18.5619917  52.3424745  12.4633530
  18.4456175  51.6669648  13.1314614  18.6722177  51.8557119  11.6465683
  20.9051458  51.8034892  16.1680219  20.5409665  51.2765513  16.8793141
  21.7618574  51.4133361  15.9946705  26.8100759  43.0929225  23.4311485
  26.4784084  43.9624636  23.2072700  26.2146372  42.7765509  24.1105516
  23.3032278  55.2941771  22.8307398  23.0033002  56.1966809  22.7223205
  22.9583338  55.0273954  23.6828551  16.7544760  51.7455567  18.8644103
  15.8295256  51.6131782  19.0721794  17.0029173  52.5249787  19.3614045
  26.7029422  47.8124311  20.5104836  25.7946300  47.7439719  20.2163596
  26.6517018  48.2896256  21.3386661  20.5246166  49.2882449  12.1488235
  20.4045791  49.7339500  12.9873715  19.8298754  49.6367767  11.5901773
  14.1153571  51.3888841  19.6987892  14.2445952  51.6423320  20.6127303
  13.4351022  51.9816549  19.3792547  18.2853058  62.0586091  15.7978366
  18.2077088  63.0093916  15.8766846  17.6814702  61.7131963  16.4553292
  20.7770288  49.2313956  28.4539733  20.0003622  49.7907877  28.4442597
  21.4160851  49.7170739  28.9754603  28.5691069  46.0140749  22.2882709
  27.9265449  46.3073282  21.6422504  28.0645997  45.8993670  23.0935906
  26.2231232  49.7603922  12.9768569  27.1349088  49.9931309  12.8016266
  25.7140879  50.3440967  12.4143647  19.0316660  52.0399410  28.0157700
  19.7731345  52.5784454  27.7392523  18.3253646  52.6665698  28.1729252
  24.5072000  54.1828550  26.6129861  24.9155356  53.7410961  25.8684494
  23.7849261  53.6081178  26.8664054  20.8603070  49.1201157  23.9863418
  21.7064265  49.5440571  24.1298067  20.8001708  48.4634781  24.6801981
  24.8300815  54.7429741  20.3682150  24.2009677  54.9075455  19.6658218
  24.4426477  55.1571350  21.1393114  28.7090046  55.6784179  17.7226514
  28.0241085  56.0583080  17.1723547  28.7933896  56.2879505  18.4558462
  24.0102515  46.7805525  25.6444592  23.7663447  47.5347586  25.1078868
  24.2862446  47.1590873  26.4791839  25.9640978  53.3244138  24.3221857
  26.1757873  53.9675898  23.6456239  25.9170726  52.4906454  23.8543788
  23.5667207  45.9361958  21.2258430  22.7051686  46.2343212  21.5175167
  23.5929642  46.1532357  20.2939462  20.3828776  54.4804149  17.6332235
  20.8467122  54.7591852  16.8436858  20.1185575  53.5787593  17.4505326
  17.2752858  54.0275630  20.5711999  17.8454215  54.4562899  19.9329483
  17.8660969  53.7458215  21.2696184  19.3197663  50.6027301  14.4421800
  20.0221706  51.0548345  14.9095727  18.9878291  49.9611120  15.0701694
  17.7678024  49.1939058  28.8173010  17.1376685  49.8755339  29.0508407
  17.6614112  49.0822140  27.8726148  13.0622996  48.8610854  19.7438934
  12.2722050  49.1168382  19.2679045  13.5534244  49.6759192  19.8490974
  27.0786806  56.2016093  22.4944215  27.9004250  55.7996280  22.2126896
  27.0749209  56.0984327  23.4460331  15.0137742  49.2255433  16.7022411
  14.2168905  49.3374127  17.2205906  14.7863334  49.5642085  15.8363301
  20.8443409  55.7500136  24.6504925  20.9087842  56.2120544  25.4863097
  20.1354333  55.1197501  24.7787235  11.3460699  49.1141344  22.1753925
  11.5968738  49.9988354  22.4411501  11.8820248  48.9345946  21.4029017
  35.1692799  52.5454842  18.8429186  34.4156507  51.9762240  18.6873191
  35.3040340  52.5117506  19.7899821  20.5591427  57.4168244  14.5183906
  20.4237102  58.2619780  14.9468753  21.1001240  57.6187522  13.7549839
  17.0458767  43.4959824  31.1798261  16.6525712  42.9426022  31.8545905
  17.8624907  43.8070402  31.5704778  14.0120825  54.9343682  15.0911831
  14.5245345  55.7286932  15.2417395  14.6643537  54.2369972  15.0245432
  15.8215709  58.0509438  17.1734584  15.9982338  58.9727403  16.9855568
  16.6172543  57.7367857  17.6028964  19.9626728  44.9117703  28.7718517
  20.7036441  45.5124856  28.6922980  20.1944651  44.1695341  28.2136560
  15.1068066  50.0974070  27.0496747  14.9921581  49.1959327  27.3503846
  14.2512584  50.3437767  26.6981564  22.1859904  58.0391810  28.6484248
  21.7423758  57.2528189  28.3305152  22.8477117  58.2270961  27.9828138
  16.9447025  59.5687612  23.1744926  17.4954450  59.4404675  22.4021920
  16.1058501  59.8682501  22.8239819  24.2841142  58.3194610  26.6765649
  24.2659617  59.1403491  26.1845918  25.2061062  58.1948686  26.9015790
  20.7414196  55.8338740  27.5189157  21.2742533  55.0727028  27.2888465
  20.2128277  55.5412392  28.2613312  23.9083891  40.9398806  23.0482799
  23.5648160  41.8300447  22.9721910  24.2762853  40.7500463  22.1852384
  11.9769741  53.2632336  15.8671401  12.8144963  53.6729345  15.6505109
  12.1548009  52.3231778  15.8371595  23.8734173  50.9307417  11.5555234
  23.3580797  51.7012022  11.7943622  23.6011482  50.2572553  12.1788296
  21.4581284  45.7757118  16.6140473  20.6022881  45.3863968  16.4346111
  21.8708236  45.8549078  15.7540258  22.9880431  43.3103461  21.0132032
  22.4845227  43.2733596  20.1999838  23.2811038  44.2196204  21.0728689
  19.2323317  43.3942191  20.0198214  20.0976314  43.1984999  19.6604104
  19.3000826  43.1652542  20.9467571  28.8468448  53.6839772  13.4908408
  28.0697890  53.3450931  13.0463570  29.5259929  53.6892395  12.8163373
  23.6620477  48.8034509  13.3815015  23.3570612  49.1180658  14.2325159
  24.6150919  48.8815929  13.4242348  22.1066908  54.9624732  15.0307969
  21.5788270  54.2277492  14.7181207  21.6054411  55.7399409  14.7847938
  27.0859754  53.1573753  20.1475016  26.4283429  53.8473014  20.2355144
  27.8900154  53.5470185  20.4909002  16.8385636  45.6244399  17.3914581
  17.4129388  45.4019580  16.6587774  17.4256618  45.6933093  18.1443182
  25.8965213  51.5118125  18.1978957  26.4097095  52.1448117  18.7000667
  26.5466437  50.9119321  17.8322317  19.1408304  42.4985647  16.1189650
  18.4872716  42.1834665  15.4946265  19.0988778  41.8761388  16.8449473
  20.2519509  52.7804943   8.0342942  19.3446570  52.5494196   8.2334091
  20.7490541  51.9842562   8.2216924  23.1587587  61.4902450  10.9539629
  22.4849286  61.7934147  11.5624586  23.5453409  62.2931530  10.6045086
  22.3746044  48.9867581  20.4437298  21.4568605  49.2082528  20.2858986
  22.7906188  49.0613892  19.5849005  23.1581092  50.3858997  15.5739978
  23.9052911  50.8980394  15.2647100  23.4272681  50.0643049  16.4344372
  21.4307742  52.8817537  12.5566932  20.5218961  52.5976570  12.6539402
  21.4602826  53.3016616  11.6970239  26.6627009  56.4924127  16.3258100
  26.2089337  55.6515037  16.3823291  26.0320976  57.1285525  16.6632880
  25.6059929  47.4216113  17.5558767  24.8682686  46.9093499  17.8869010
  25.8586703  46.9816495  16.7442044  25.1059949  58.3300624  17.2607918
  25.3982923  58.8905681  16.5420284  25.6158569  58.6229185  18.0161077
  25.7071556  40.1992365  18.1500537  26.0130433  39.3389728  17.8626452
  26.4324161  40.7909985  17.9499531  11.9995912  50.6023052  16.5382135
  11.8020312  50.0092412  15.8133201  11.4442576  50.2975262  17.2558073
  19.9792636  50.4946158  18.6576728  20.0341246  49.5419994  18.5819204
  19.1683838  50.6505597  19.1418026  21.1283830  54.4226281   9.8955011
  20.6903260  53.7062140   9.4360648  21.8694271  54.6502396   9.3340102
  17.9184996  49.1123218  16.4167107  17.1052862  49.4117388  16.8232299
  18.4143990  48.7178907  17.1341589  20.0693574  59.1080975  18.3501371
  20.0269753  59.3341821  17.4209903  20.9856273  58.8744349  18.4987173
  23.5159208  49.5765042  25.2482001  23.8708595  49.8036515  26.1076466
  24.1631339  49.9083419  24.6259256  29.2456945  52.6983478  15.9531330
  29.1074843  52.8885074  15.0252519  28.8893163  53.4602861  16.4099381
  17.4099071  46.6841573  22.0328342  18.0498450  46.5430332  21.3351305
  16.5776601  46.3976087  21.6566944  29.2726324  54.7660005  20.9642601
  29.7062831  54.6735294  21.8125655  29.9857905  54.7417506  20.3262617
  18.1859375  55.9844004  18.1463334  18.9799973  55.4894324  17.9445909
  17.4751067  55.4561867  17.7831040  23.0054219  58.3662099  22.4975702
  23.0591241  58.9353036  23.2653418  22.1369001  58.5363984  22.1329739
  14.4942138  50.1287085  14.2223087  13.5639726  50.0671541  14.4393049
  14.5899610  49.6063038  13.4259728  14.4127687  46.6541898  16.8101328
  14.6734504  47.5687232  16.7010489  15.2344860  46.1866341  16.9597941
  15.8852613  48.0679655  23.9800153  16.5575666  47.8597018  23.3312802
  15.0582399  47.8701741  23.5405385  30.1341874  54.8083706  23.4975487
  30.3277764  55.7129516  23.7434761  30.0342492  54.3491125  24.3314072
  21.7878185  44.6941596  25.9965814  21.1406100  45.3931546  25.9030290
  22.5579200  45.1277740  26.3642062  25.1956982  54.9590449  29.0716367
  25.0442489  54.7301000  28.1546451  25.1861662  55.9161050  29.0847712
  21.9642319  52.5322361  24.0562634  22.8934379  52.6833521  23.8831601
  21.5433349  52.6206382  23.2011280  20.7630651  56.5573026  21.8261171
  20.6241736  56.1891810  22.6987109  19.9745247  57.0720665  21.6545129
  21.3578803  61.6582122  13.1686708  21.5330558  61.1870165  13.9832330
  20.6711591  62.2847888  13.3967968  22.3135866  55.9354628  19.2150009
  21.9785698  55.8955398  20.1107659  21.8139811  55.2699344  18.7420419
  16.2880110  51.3422258  24.7402590  16.1499908  50.6102497  25.3414129
  17.1985033  51.2531159  24.4586778  25.2495057  53.2810663   9.4887069
  24.6324228  52.5557491   9.3920121  24.7811546  54.0420023   9.1454143
  18.9162410  51.0542218  24.2286270  19.6262029  50.4135410  24.1872888
  18.8731719  51.3055113  25.1512451  26.9049189  57.9909571  27.1492849
  26.8461735  57.3068791  26.4823432  27.3068708  58.7328561  26.6973475
  17.6291344  48.0407436  26.0481909  17.0928701  47.5898174  26.7003506
  17.0408053  48.1753344  25.3052374  15.9239888  64.8071485  19.9426568
  16.1636486  65.4390009  20.6205586  15.0809084  64.4559525  20.2291927
  26.9066596  55.9549155  25.3806829  26.0193375  55.6175077  25.5033228
  27.4765147  55.2232186  25.6175594   8.5595744  52.2873247  18.7049880
   9.2466783  51.9734977  18.1170895   8.4043872  53.1914611  18.4317131
  13.3630466  47.1763443  23.1334904  13.2788654  46.5689113  22.3985314
  12.5413172  47.6672462  23.1344400  20.4367750  60.6150607  22.3468072
  20.3637921  61.4205579  22.8587376  19.9945143  60.8142573  21.5216093
  20.2257529  59.8522377  15.8570893  19.4425051  60.3944058  15.9509118
  20.9250275  60.3696357  16.2565135  23.5354180  45.6617007  18.5005099
  24.0322879  44.9086969  18.1806169  22.7641161  45.6981324  17.9348308
  31.3883937  51.3657372  20.1423390  31.3773813  52.2482088  19.7717323
  30.5201316  51.0128923  19.9477927  22.8966433  60.5137441  24.5026231
  23.6094406  61.1484906  24.4302132  22.4056462  60.6101307  23.6866232
  24.6183960  54.4188694  16.0743522  23.6840239  54.5390157  15.9048227
  24.7960629  53.5161161  15.8103532  20.1189148  47.8034390  18.2276783
  19.7486936  47.2505430  18.9157689  20.6148241  47.1992523  17.6751783
  28.0056512  50.2606013  16.6093556  28.4716964  51.0934005  16.5353859
  28.4564012  49.7950995  17.3138815  17.9478347  58.2631885  25.3231801
  18.6487806  58.8968368  25.4761196  17.4773462  58.6046616  24.5627441
  26.0732743  56.6049835  13.6079708  26.3492587  56.4906429  14.5173582
  25.2037241  56.2067320  13.5691881  25.9773174  42.6286600  20.6484458
  25.0636254  42.8590827  20.8166665  26.4066276  42.7125044  21.4998490
  25.7479633  50.8176492  23.1484352  25.0951083  51.0652400  22.4936804
  26.1260013  50.0040631  22.8146829  22.7086807  60.8536186  17.2512522
  22.8909201  60.0357841  17.7140274  23.5319793  61.0703878  16.8137412
  23.0428972  59.7804371  14.5127570  23.5716739  59.2696825  13.8997733
  23.3057192  59.4646901  15.3773104  21.7967206  51.5596303  29.6350389
  21.1207843  51.4590433  30.3052764  22.6194840  51.4035517  30.0986386
  13.5446065  57.7968240  22.2562904  14.1299502  57.0511928  22.3890808
  13.3470903  58.1072197  23.1399568  16.3984720  60.8319487  17.2725346
  15.7295095  61.3165615  16.7889386  16.2597590  61.0788708  18.1868725
   8.1363720  50.3673840  20.9767347   8.1747819  49.8337431  21.7704465
   7.6304012  49.8409046  20.3578324  20.5389989  62.8663231  23.8708005
  21.0908297  63.0294852  24.6357090  20.8796182  63.4567669  23.1988030
  15.5154482  45.2138381  24.4729889  15.5795808  46.0753212  24.0607287
  15.4521602  44.6012382  23.7402248  14.9906754  47.2861513  28.1202924
  15.6178793  46.9038591  28.7340448  14.1334673  47.0675715  28.4858616
  25.3900863  57.6924488  29.7256659  25.9340767  58.3054447  29.2311614
  24.8087708  58.2504067  30.2423672  11.7672297  49.0937942  14.0521279
  12.0625738  48.1848621  13.9988332  10.8660333  49.0725682  13.7302281
  23.6758376  60.8145206  20.8571687  23.5509515  60.0134946  20.3482632
  24.3337467  61.3091400  20.3685657  15.2966544  47.1693939  20.0348827
  14.5753130  47.7829907  19.8956300  16.0859800  47.7051704  19.9565473
  25.7393284  58.6154226  22.4851237  24.7923620  58.4959578  22.4129564
  26.0876057  57.7276724  22.5677498  18.0992858  44.5048365  26.3089479
  18.6227260  44.7510662  27.0715788  17.8805191  45.3368400  25.8892616
  13.4960139  46.7752040  14.1760604  13.1672845  45.8949419  13.9935710
  13.8499509  46.7199709  15.0636993  22.7439718  58.4106943  18.6855589
  22.5964680  57.4823650  18.8663159  23.5693211  58.4327033  18.2012664
  16.6101962  47.0625010  14.5436081  16.9498034  47.5910931  13.8214690
  17.0574082  47.4005416  15.3194648  26.3473840  59.2335501  19.7720462
  27.2720387  59.0278363  19.6344913  26.1789143  58.9851903  20.6809804
  19.3045403  45.4462060  23.9939149  18.9642223  44.6469874  24.3959829
  18.5984409  45.7463771  23.4215983  19.9561875  42.5311373  22.4466472
  20.7787944  42.0571851  22.3245363  20.1999938  43.3101857  22.9465159
  18.5970109  45.5599631  12.7429374  19.3178472  45.9380884  12.2393091
  17.9735413  46.2788508  12.8464352  22.7401232  46.2644780  13.6787707
  22.9564846  47.1469418  13.3776535  22.2595299  45.8730994  12.9493348
  17.4800453  49.2230494  20.2558451  17.3345034  49.5370797  21.1482733
  17.0025657  49.8415394  19.7029350  19.3396836  46.2133042  20.3039341
  19.3258405  45.3174135  19.9671639  20.0569264  46.2203705  20.9377627
  21.1922967  46.6470382  22.3492468  20.9340745  47.5687452  22.3476799
  20.6608007  46.2500816  23.0392932  26.1369156  59.7521169  15.1282553
  26.3106033  59.1867591  14.3756406  26.6298047  60.5522064  14.9462043
  11.9546116  51.7635838  23.1946112  11.4099584  52.5395646  23.3266387
  12.8325465  52.1106642  23.0365234  18.7433732  45.0947422  15.5726911
  18.8649643  44.1664068  15.7717798  18.4535775  45.1086108  14.6605226
  21.6124923  42.7802332  18.7093631  21.6346619  42.8441665  17.7545610
  22.0292982  41.9406841  18.9034137  31.9908547  52.5157592  16.7472853
  32.4339693  51.7664917  16.3491976  31.1135057  52.5067728  16.3646585
  27.1244328  59.0687933  12.2279452  27.8195233  59.6894626  12.4466766
  27.4667478  58.2183284  12.5031830  12.7412137  50.8905734  26.0876269
  11.9993873  51.0388370  26.6740900  12.4204882  51.1514000  25.2243019
  29.0235751  56.5187639  13.7566783  29.5487075  56.8574912  13.0316103
  28.9358104  55.5834654  13.5729917  20.6855800  60.4321712  25.8856659
  20.9942926  60.1870859  26.7579359  21.4831282  60.6368351  25.3975529
  20.7076412  62.5859622  18.1162036  20.2681402  62.0936001  18.8094892
  21.4584529  62.0432590  17.8754111  13.1868751  58.7771163  18.1186664
  14.0126771  58.4774935  17.7385307  12.8362803  58.0078785  18.5676452
  18.1550284  58.1297631  20.1884337  17.5330294  57.4668336  19.8886565
  18.8255151  58.1558763  19.5057985  11.3877356  56.6957489  19.0775597
  10.5509264  56.2679664  18.8959599  11.3601002  56.8889933  20.0146389
  18.2274812  46.6079419  29.7816843  18.2762967  47.4841542  29.3994613
  18.7697326  46.0656812  29.2088487  28.7129657  57.1520542  29.0617980
  27.9225201  57.1344681  28.5222480  28.4763012  57.6908836  29.8167017
  28.8327532  54.0013009  26.3750709  28.8825537  53.8363016  27.3166232
  28.7241456  53.1340268  25.9848590  17.7163791  56.6801554  13.6642798
  17.8651912  57.3637019  13.0109471  18.5230235  56.6606645  14.1792254
  26.1231295  49.9843937  27.6910016  27.0241158  49.8450402  27.3994014
  26.1979269  50.1498392  28.6308193  20.4574100  47.3610792  26.5363202
  19.5877410  47.6544358  26.2645791  20.6933581  47.9451237  27.2570466
  30.3345729  56.4209950  26.6192731  30.0430538  56.7839931  27.4556192
  29.7217861  55.7076959  26.4406063  31.5341412  53.9862830  19.1395301
  32.3688303  54.4252634  19.3032861  31.6700540  53.5101483  18.3203547
  28.5832918  51.5442565  25.0872789  29.0587039  51.7370211  24.2791640
  27.6598483  51.6001751  24.8416172  15.4716424  52.7066732  14.6703867
  15.2262466  51.8029062  14.8684077  15.6412339  52.7083883  13.7283345
  23.1613134  43.5790409  24.0528622  23.6795078  44.3151435  23.7275111
  22.8068267  43.8854402  24.8875382  23.4125728  39.9990691  19.5729519
  23.6927482  39.3313880  20.1989946  24.1976335  40.1919787  19.0604183
  21.2159197  59.1749685  11.1354545  20.6433164  59.7939872  10.6825017
  21.7891990  59.7249047  11.6694467  27.2834587  48.4208325  23.3201094
  28.2352009  48.5206423  23.3413318  27.1138037  47.6286594  23.8299179
  25.3048966  45.5063908  23.5060495  24.7098898  45.7868921  22.8106984
  25.0198663  45.9957809  24.2777236  24.4356456  59.4586835  12.2663128
  25.3687130  59.3932397  12.4696003  24.3479669  60.2943102  11.8077660
  27.0644473  58.7752705   9.2267075  26.9858105  58.4412569  10.1202833
  27.8854140  59.2674473   9.2258548  29.7622664  51.6414445  22.4343394
  29.7298984  50.7030445  22.6203078  30.3723288  51.7198481  21.7009219
  21.6005995  50.5110498   8.4770598  22.5465100  50.3816706   8.5459016
  21.2220240  49.7725160   8.9540026  29.9117153  48.4325488  22.4801677
  29.3956201  47.6483945  22.2931606  30.7957101  48.1044205  22.6448196
  27.5727880  42.1766504  18.4397490  27.3752701  41.8681592  19.3240822
  28.1827585  42.9028143  18.5695420  35.5799214  52.7030452  21.5749431
  36.3102603  52.4415740  22.1357134  34.9706160  51.9659174  21.6151499
  33.6614511  50.8438314  22.1723882  32.9347675  50.7094279  21.5640373
  33.2461798  51.1515143  22.9780600  21.4844688  54.5628244  29.9371255
  22.4047697  54.7406843  30.1311301  21.4494271  53.6184289  29.7850954
  10.7026853  49.7566837  18.8624529  10.3829637  48.9032146  18.5698903
  10.1560281  49.9715416  19.6182497  14.4806760  52.4729278  22.5794036
  14.6992770  53.4046386  22.5982070  14.8932534  52.1137253  23.3648840
  21.4010978  42.9797364  14.5669724  20.5911706  42.6344449  14.9424970
  22.0895395  42.6704908  15.1557336  23.3301526  42.0575411  16.1894021
  23.8832565  42.4770864  16.8484044  23.5671613  41.1311159  16.2316977
  19.3534626  48.0462484  31.9696785  19.2531352  48.9956841  31.9008876
  19.1356168  47.7180723  31.0972855  10.5715113  53.3769749  20.8317651
   9.8778584  52.9623702  20.3187605  11.3188104  53.4190285  20.2351070
  26.7080333  44.1675936  15.6972685  26.1279002  44.8260740  15.3150738
  26.4416266  43.3453280  15.2860103  25.1583900  43.5680993  17.8994006
  25.6583678  43.6797528  17.0908324  25.8019508  43.2642046  18.5394814
  19.2165896  51.4759623  30.7861847  18.7332977  52.2759983  30.9925736
  19.3026835  51.4867568  29.8329291  12.4851855  53.3088003  18.7083666
  12.4622543  53.4075690  17.7565549  12.7952492  54.1553154  19.0300832
  15.1439233  55.3664158  22.8230280  16.0982487  55.3348100  22.7560212
  14.9451757  54.9054782  23.6380506  15.7338615  53.9365274  25.3901078
  16.5531504  54.4309353  25.4135915  16.0075423  53.0197242  25.3618646
  25.4905211  46.3276026  14.7529034  24.6031066  46.6125677  14.5349228
  25.9059201  46.1669790  13.9056310  28.8419748  46.3522547  18.4683373
  29.6180138  46.8419000  18.7407990  28.1167882  46.7780601  18.9255242
  31.2792306  47.0650166  19.5257313  31.8736797  46.8245902  18.8150622
  31.3518890  46.3457297  20.1530850  13.4989462  60.9083777  19.8400478
  13.3643930  60.1484178  19.2738476  13.0821524  61.6324677  19.3729267
  24.6348425  56.0920701   8.8477054  25.3384275  56.2970703   9.4634709
  23.9111074  56.6597463   9.1126137  25.4646235  51.8430562  14.9679324
  25.4081437  52.2999114  14.1286956  26.0174578  51.0821247  14.7902166
  29.2751041  47.6320294  15.7929443  29.0187975  47.2316930  16.6237651
  28.6503909  48.3464088  15.6679582  33.5863379  50.3716367  18.3000735
  33.0262937  50.4409557  19.0732297  32.9806882  50.1957352  17.5800231
  16.6558588  61.8053094  20.0518921  16.5390972  62.7498527  19.9497611
  15.8351034  61.5026656  20.4404720  26.5435122  56.5303230  10.8975514
  27.3780726  56.0984428  10.7152988  26.3819465  56.3585244  11.8252408
  26.1981015  53.0335343  12.2631853  26.1429818  52.8679615  11.3220297
  25.5727070  53.7411376  12.4194043  10.9873529  48.2703408  26.0893275
  11.6332393  47.7602362  26.5780500  10.7790681  49.0072089  26.6636700
  23.5126922  55.3384255  31.5885416  24.3818081  55.5124907  31.2272051
  23.0333673  56.1578672  31.4661145  17.6813102  62.4581356  23.2674849
  18.5840349  62.4904966  23.5841344  17.4550472  61.5281807  23.2821185
  19.4366704  61.2112343  19.9284928  18.4862335  61.2114204  19.8149300
  19.7399190  60.4645077  19.4120963  23.3229259  39.1286229  16.0963108
  22.5561655  38.5744716  16.2419790  23.7339964  39.2008098  16.9577260
  15.3271020  45.4171025  30.1868289  16.1902482  45.0607830  30.3971614
  14.7536431  45.0784920  30.8743694  35.1719397  67.0472881  20.9930690
  35.8097807  66.9279628  20.2894030  35.0540240  67.9953725  21.0518642
  31.9809104  67.0000309  20.9292215  31.6427615  66.8841374  20.0412750
  32.8498872  66.5991474  20.9093221  27.8395919  68.8535786  16.9189106
  27.2760785  68.7625723  16.1505394  27.7248314  68.0335690  17.3991598
  32.4628887  68.1535161  26.8878421  32.4517527  67.7587959  26.0158924
  32.6249526  67.4201234  27.4812192  25.3860351  70.3486977  19.7573326
  26.1781643  70.0077802  19.3419626  25.6257001  70.4581952  20.6775480
  33.4195478  72.5206753  12.2303571  32.7683458  73.1060834  11.8437585
  34.2139841  73.0512948  12.2898608  27.3451105  69.6095890  12.6290705
  28.1181981  69.0624878  12.4903581  27.6976504  70.4740140  12.8405167
  29.1836148  70.9372273  25.8357604  28.8926014  71.8417904  25.7204271
  29.8193132  70.9788800  26.5501674  30.1092355  68.3149121  22.4258964
  30.7055927  68.0905144  21.7115927  30.1667326  67.5733867  23.0284412
  29.6817383  65.7688557  10.2609155  29.9342904  65.2470078   9.4992618
  28.7441942  65.6054702  10.3635839  34.7260666  64.7724335  18.0683898
  35.5123755  64.3543758  17.7174315  34.9899370  65.6770427  18.2365547
  34.8970743  70.2097185  12.7672555  34.2616576  70.2831812  13.4793460
  34.5668150  70.7990784  12.0891634  40.1269093  64.7099568  18.9716877
  40.8594265  64.1398785  19.2054706  39.3708449  64.3221169  19.4123382
  29.4013672  67.6716663  12.4633530  29.2849930  66.9961566  13.1314614
  29.5115932  67.1849037  11.6465683  31.7445213  67.1326810  16.1680219
  31.3803420  66.6057431  16.8793141  32.6012329  66.7425279  15.9946705
  37.6494513  58.4221142  23.4311485  37.3177838  59.2916553  23.2072700
  37.0540127  58.1057426  24.1105516  31.3850700  62.1616709  11.1641568
  31.5525102  63.0296946  11.5312039  31.1947869  62.3243991  10.2402857
  34.1426033  70.6233688  22.8307398  33.8426756  71.5258727  22.7223205
  33.7977092  70.3565871  23.6828551  27.5938514  67.0747485  18.8644103
  26.6689011  66.9423699  19.0721794  27.8422928  67.8541704  19.3614045
  37.5423177  63.1416228  20.5104836  36.6340054  63.0731637  20.2163596
  37.4910772  63.6188173  21.3386661  31.3639921  64.6174367  12.1488235
  31.2439546  65.0631418  12.9873715  30.6692509  64.9659685  11.5901773
  24.9547325  66.7180759  19.6987892  25.0839707  66.9715238  20.6127303
  24.2744777  67.3108467  19.3792547  29.1246813  77.3878009  15.7978366
  29.0470842  78.3385834  15.8766846  28.5208456  77.0423881  16.4553292
  31.6164042  64.5605874  28.4539733  30.8397377  65.1199794  28.4442597
  32.2554606  65.0462657  28.9754603  39.4084823  61.3432667  22.2882709
  38.7659203  61.6365200  21.6422504  38.9039752  61.2285587  23.0935906
  37.0624987  65.0895840  12.9768569  37.9742843  65.3223227  12.8016266
  36.5534634  65.6732884  12.4143647  29.8710415  67.3691327  28.0157700
  30.6125099  67.9076371  27.7392523  29.1647400  67.9957616  28.1729252
  31.6996824  64.4493075  23.9863418  32.5458020  64.8732488  24.1298067
  31.6395462  63.7926699  24.6801981  35.6694569  70.0721658  20.3682150
  35.0403432  70.2367373  19.6658218  35.2820231  70.4863268  21.1393114
  34.8496270  62.1097443  25.6444592  34.6057202  62.8639504  25.1078868
  35.1256200  62.4882791  26.4791839  34.4060962  61.2653876  21.2258430
  33.5445441  61.5635130  21.5175167  34.4323396  61.4824275  20.2939462
  31.2222531  69.8096067  17.6332235  31.6860876  70.0883770  16.8436858
  30.9579329  68.9079511  17.4505326  28.1146612  69.3567548  20.5711999
  28.6847969  69.7854816  19.9329483  28.7054724  69.0750133  21.2696184
  30.1591417  65.9319219  14.4421800  30.8615460  66.3840263  14.9095727
  29.8272045  65.2903038  15.0701694  28.6071779  64.5230976  28.8173010
  27.9770439  65.2047256  29.0508407  28.5007866  64.4114057  27.8726148
  23.9016751  64.1902772  19.7438934  23.1115805  64.4460300  19.2679045
  24.3927998  65.0051109  19.8490974  25.8531496  64.5547351  16.7022411
  25.0562660  64.6666045  17.2205906  25.6257089  64.8934003  15.8363301
  31.6837164  71.0792054  24.6504925  31.7481596  71.5412461  25.4863097
  30.9748088  70.4489419  24.7787235  22.1854454  64.4433262  22.1753925
  22.4362492  65.3280272  22.4411501  22.7214002  64.2637864  21.4029017
  31.3985182  72.7460162  14.5183906  31.2630856  73.5911697  14.9468753
  31.9394994  72.9479439  13.7549839  27.8852521  58.8251741  31.1798261
  27.4919467  58.2717940  31.8545905  28.7018662  59.1362320  31.5704778
  24.8514579  70.2635600  15.0911831  25.3639100  71.0578850  15.2417395
  25.5037292  69.5661890  15.0245432  26.6609464  73.3801356  17.1734584
  26.8376092  74.3019321  16.9855568  27.4566297  73.0659775  17.6028964
  30.8020482  60.2409621  28.7718517  31.5430196  60.8416774  28.6922980
  31.0338405  59.4987258  28.2136560  25.9461820  65.4265988  27.0496747
  25.8315335  64.5251245  27.3503846  25.0906338  65.6729685  26.6981564
  27.7840779  74.8979530  23.1744926  28.3348204  74.7696593  22.4021920
  26.9452255  75.1974419  22.8239819  31.5807950  71.1630658  27.5189157
  32.1136287  70.4018946  27.2888465  31.0522031  70.8704309  28.2613312
  34.7477645  56.2690723  23.0482799  34.4041915  57.1592365  22.9721910
  35.1156608  56.0792381  22.1852384  22.8163496  68.5924254  15.8671401
  23.6538718  69.0021262  15.6505109  22.9941763  67.6523696  15.8371595
  34.7127928  66.2599335  11.5555234  34.1974551  67.0303939  11.7943622
  34.4405236  65.5864471  12.1788296  32.2975039  61.1049035  16.6140473
  31.4416635  60.7155886  16.4346111  32.7101991  61.1840996  15.7540258
  33.8274186  58.6395379  21.0132032  33.3238981  58.6025514  20.1999838
  34.1204792  59.5488121  21.0728689  30.0717071  58.7234108  20.0198214
  30.9370068  58.5276917  19.6604104  30.1394580  58.4944460  20.9467571
  39.6862202  69.0131689  13.4908408  38.9091645  68.6742849  13.0463570
  40.3653683  69.0184312  12.8163373  34.5014231  64.1326427  13.3815015
  34.1964367  64.4472576  14.2325159  35.4544673  64.2107847  13.4242348
  32.9460663  70.2916650  15.0307969  32.4182024  69.5569410  14.7181207
  32.4448166  71.0691326  14.7847938  37.9253509  68.4865670  20.1475016
  37.2677183  69.1764932  20.2355144  38.7293908  68.8762102  20.4909002
  27.6779391  60.9536316  17.3914581  28.2523142  60.7311498  16.6587774
  28.2650373  61.0225011  18.1443182  36.7358968  66.8410043  18.1978957
  37.2490849  67.4740035  18.7000667  37.3860192  66.2411239  17.8322317
  28.0048978  62.9840777  11.4110466  27.1686290  63.3215464  11.7319741
  27.8653747  62.8489757  10.4737603  29.9802058  57.8277565  16.1189650
  29.3266471  57.5126582  15.4946265  29.9382532  57.2053306  16.8449473
  31.0913263  68.1096860   8.0342942  30.1840325  67.8786114   8.2334091
  31.5884295  67.3134479   8.2216924  33.9981342  76.8194367  10.9539629
  33.3243041  77.1226064  11.5624586  34.3847164  77.6223448  10.6045086
  33.2139799  64.3159499  20.4437298  32.2962360  64.5374446  20.2858986
  33.6299942  64.3905809  19.5849005  33.9974846  65.7150914  15.5739978
  34.7446665  66.2272312  15.2647100  34.2666436  65.3934967  16.4344372
  32.2701497  68.2109455  12.5566932  31.3612716  67.9268488  12.6539402
  32.2996580  68.6308534  11.6970239  36.4453684  62.7508031  17.5558767
  35.7076440  62.2385417  17.8869010  36.6980457  62.3108412  16.7442044
  36.5465311  55.5284283  18.1500537  36.8524188  54.6681646  17.8626452
  37.2717916  56.1201903  17.9499531  22.8389667  65.9314969  16.5382135
  22.6414067  65.3384330  15.8133201  22.2836331  65.6267179  17.2558073
  30.8186391  65.8238076  18.6576728  30.8735000  64.8711912  18.5819204
  30.0077593  65.9797515  19.1418026  31.9677584  69.7518199   9.8955011
  31.5297014  69.0354058   9.4360648  32.7088025  69.9794314   9.3340102
  28.7578751  64.4415135  16.4167107  27.9446616  64.7409306  16.8232299
  29.2537745  64.0470824  17.1341589  30.9087328  74.4372892  18.3501371
  30.8663507  74.6633739  17.4209903  31.8250027  74.2036267  18.4987173
  28.2492825  62.0133491  22.0328342  28.8892205  61.8722250  21.3351305
  27.4170356  61.7268004  21.6566944  29.0253129  71.3135921  18.1463334
  29.8193728  70.8186242  17.9445909  28.3144822  70.7853785  17.7831040
  33.8447974  73.6954017  22.4975702  33.8984996  74.2644953  23.2653418
  32.9762755  73.8655902  22.1329739  25.3335893  65.4579003  14.2223087
  24.4033481  65.3963459  14.4393049  25.4293365  64.9354956  13.4259728
  25.2521442  61.9833816  16.8101328  25.5128259  62.8979149  16.7010489
  26.0738614  61.5158259  16.9597941  26.7246367  63.3971573  23.9800153
  27.3969420  63.1888935  23.3312802  25.8976154  63.1993659  23.5405385
  32.6271939  60.0233514  25.9965814  31.9799854  60.7223464  25.9030290
  33.3972954  60.4569658  26.3642062  32.8036073  67.8614279  24.0562634
  33.7328133  68.0125439  23.8831601  32.3827103  67.9498300  23.2011280
  31.6024405  71.8864943  21.8261171  31.4635491  71.5183728  22.6987109
  30.8139001  72.4012583  21.6545129  32.1972557  76.9874040  13.1686708
  32.3724313  76.5162083  13.9832330  31.5105345  77.6139806  13.3967968
  33.1529620  71.2646546  19.2150009  32.8179453  71.2247316  20.1107659
  32.6533566  70.5991262  18.7420419  27.1273864  66.6714176  24.7402590
  26.9893662  65.9394415  25.3414129  28.0378788  66.5823076  24.4586778
  36.0888812  68.6102580   9.4887069  35.4717983  67.8849409   9.3920121
  35.6205300  69.3711941   9.1454143  29.7556165  66.3834135  24.2286270
  30.4655783  65.7427328  24.1872888  29.7125473  66.6347030  25.1512451
  28.4685099  63.3699353  26.0481909  27.9322456  62.9190092  26.7003506
  27.8801807  63.5045262  25.3052374  26.7633642  80.1363403  19.9426568
  27.0030241  80.7681927  20.6205586  25.9202839  79.7851443  20.2291927
  27.8787358  62.8288005   8.6108373  27.0016824  62.7076806   8.2470620
  28.3545111  62.0374083   8.3587262  19.3989498  67.6165164  18.7049880
  20.0860538  67.3026894  18.1170895  19.2437627  68.5206529  18.4317131
  24.2024220  62.5055361  23.1334904  24.1182409  61.8981031  22.3985314
  23.3806927  62.9964379  23.1344400  31.2761504  75.9442525  22.3468072
  31.2031676  76.7497497  22.8587376  30.8338897  76.1434491  21.5216093
  31.0651284  75.1814295  15.8570893  30.2818806  75.7235975  15.9509118
  31.7644029  75.6988275  16.2565135  34.3747934  60.9908925  18.5005099
  34.8716634  60.2378887  18.1806169  33.6034916  61.0273241  17.9348308
  35.4577715  69.7480612  16.0743522  34.5233993  69.8682074  15.9048227
  35.6354383  68.8453079  15.8103532  30.9582903  63.1326308  18.2276783
  30.5880690  62.5797348  18.9157689  31.4541995  62.5284441  17.6751783
  38.8450266  65.5897931  16.6093556  39.3110718  66.4225923  16.5353859
  39.2957767  65.1242913  17.3138815  28.7872101  73.5923803  25.3231801
  29.4881561  74.2260286  25.4761196  28.3167216  73.9338534  24.5627441
  36.9126497  71.9341752  13.6079708  37.1886341  71.8198347  14.5173582
  36.0430996  71.5359237  13.5691881  36.8166929  57.9578518  20.6484458
  35.9030009  58.1882745  20.8166665  37.2460030  58.0416962  21.4998490
  33.5480561  76.1828103  17.2512522  33.7302956  75.3649759  17.7140274
  34.3713547  76.3995795  16.8137412  33.8822727  75.1096288  14.5127570
  34.4110493  74.5988743  13.8997733  34.1450946  74.7938819  15.3773104
  24.3839819  73.1260158  22.2562904  24.9693256  72.3803846  22.3890808
  24.1864658  73.4364114  23.1399568  27.2378475  76.1611405  17.2725346
  26.5688850  76.6457533  16.7889386  27.0991344  76.4080625  18.1868725
  18.9757474  65.6965758  20.9767347  19.0141574  65.1629349  21.7704465
  18.4697767  65.1700963  20.3578324  26.3548236  60.5430298  24.4729889
  26.4189563  61.4045129  24.0607287  26.2915357  59.9304300  23.7402248
  25.8300509  62.6153431  28.1202924  26.4572548  62.2330508  28.7340448
  24.9728428  62.3967633  28.4858616  22.6066052  64.4229860  14.0521279
  22.9019493  63.5140538  13.9988332  21.7054087  64.4017599  13.7302281
  26.1360299  62.4985857  20.0348827  25.4146884  63.1121824  19.8956300
  26.9253554  63.0343621  19.9565473  28.9386612  59.8340283  26.3089479
  29.4621014  60.0802580  27.0715788  28.7198946  60.6660318  25.8892616
  24.3353893  62.1043958  14.1760604  24.0066599  61.2241337  13.9935710
  24.6893264  62.0491626  15.0636993  33.5833472  73.7398860  18.6855589
  33.4358435  72.8115568  18.8663159  34.4086966  73.7618951  18.2012664
  27.4495716  62.3916927  14.5436081  27.7891789  62.9202849  13.8214690
  27.8967837  62.7297334  15.3194648  30.1439157  60.7753978  23.9939149
  29.8035978  59.9761791  24.3959829  29.4378164  61.0755689  23.4215983
  30.7955629  57.8603291  22.4466472  31.6181698  57.3863769  22.3245363
  31.0393693  58.6393774  22.9465159  29.4363864  60.8891549  12.7429374
  30.1572226  61.2672802  12.2393091  28.8129168  61.6080426  12.8464352
  33.5794986  61.5936698  13.6787707  33.7958601  62.4761336  13.3776535
  33.0989054  61.2022911  12.9493348  28.3194208  64.5522411  20.2558451
  28.1738789  64.8662714  21.1482733  27.8419411  65.1707312  19.7029350
  30.1790591  61.5424959  20.3039341  30.1652160  60.6466053  19.9671639
  30.8963019  61.5495623  20.9377627  32.0316721  61.9762299  22.3492468
  31.7734499  62.8979370  22.3476799  31.5001762  61.5792734  23.0392932
  22.7939870  67.0927756  23.1946112  22.2493338  67.8687564  23.3266387
  23.6719220  67.4398560  23.0365234  29.5827487  60.4239339  15.5726911
  29.7043398  59.4955986  15.7717798  29.2929529  60.4378025  14.6605226
  32.4518677  58.1094250  18.7093631  32.4740374  58.1733583  17.7545610
  32.8686736  57.2698759  18.9034137  37.9638083  74.3979851  12.2279452
  38.6588987  75.0186544  12.4466766  38.3061233  73.5475202  12.5031830
  23.5805892  66.2197652  26.0876269  22.8387628  66.3680287  26.6740900
  23.2598636  66.4805917  25.2243019  31.5470167  77.9151540  18.1162036
  31.1075157  77.4227918  18.8094892  32.2978284  77.3724507  17.8754111
  24.0262506  74.1063081  18.1186664  24.8520525  73.8066852  17.7385307
  23.6756558  73.3370703  18.5676452  28.9944039  73.4589549  20.1884337
  28.3724048  72.7960254  19.8886565  29.6648906  73.4850681  19.5057985
  22.2271111  72.0249407  19.0775597  21.3903019  71.5971581  18.8959599
  22.1994756  72.2181850  20.0146389  29.0668566  61.9371337  29.7816843
  29.1156722  62.8133460  29.3994613  29.6091080  61.3948730  29.2088487
  28.5557546  72.0093472  13.6642798  28.7045666  72.6928937  13.0109471
  29.3623989  71.9898562  14.1792254  31.2967855  62.6902709  26.5363202
  30.4271164  62.9836275  26.2645791  31.5327335  63.2743154  27.2570466
  26.3110179  68.0358650  14.6703867  26.0656221  67.1320980  14.8684077
  26.4806093  68.0375800  13.7283345  34.0006888  58.9082326  24.0528622
  34.5188832  59.6443353  23.7275111  33.6462021  59.2146319  24.8875382
  25.5805826  63.7687007  12.1690028  24.8875071  63.8431362  11.5130064
  25.3357578  63.0047351  12.6911545  34.2519483  55.3282609  19.5729519
  34.5321236  54.6605798  20.1989946  35.0370090  55.5211704  19.0604183
  32.0552951  74.5041603  11.1354545  31.4826918  75.1231790  10.6825017
  32.6285745  75.0540964  11.6694467  38.1228341  63.7500243  23.3201094
  39.0745764  63.8498340  23.3413318  37.9531791  62.9578511  23.8299179
  36.1442720  60.8355826  23.5060495  35.5492653  61.1160839  22.8106984
  35.8592417  61.3249727  24.2777236  35.2750211  74.7878753  12.2663128
  36.2080884  74.7224314  12.4696003  35.1873424  75.6235020  11.8077660
  37.9038228  74.1044623   9.2267075  37.8251859  73.7704487  10.1202833
  38.7247894  74.5966391   9.2258548  32.4399750  65.8402415   8.4770598
  33.3858854  65.7108623   8.5459016  32.0613995  65.1017077   8.9540026
  40.7510907  63.7617406  22.4801677  40.2349956  62.9775862  22.2931606
  41.6350856  63.4336122  22.6448196  38.4121634  57.5058421  18.4397490
  38.2146455  57.1973510  19.3240822  39.0221340  58.2320060  18.5695420
  30.6242667  63.7652392   8.4125483  29.7174122  63.4685504   8.4888197
  30.9018648  63.4682210   7.5459769  21.5420607  65.0858755  18.8624529
  21.2223392  64.2324063  18.5698903  20.9954035  65.3007333  19.6182497
  25.3200515  67.8021196  22.5794036  25.5386525  68.7338304  22.5982070
  25.7326289  67.4429171  23.3648840  32.2404733  58.3089281  14.5669724
  31.4305461  57.9636366  14.9424970  32.9289149  57.9996825  15.1557336
  34.1695281  57.3867328  16.1894021  34.7226319  57.8062782  16.8484044
  34.4065367  56.4603076  16.2316977  30.1928380  63.3754402  31.9696785
  30.0925107  64.3248759  31.9008876  29.9749922  63.0472641  31.0972855
  29.3941451  60.6239327   8.5537462  30.2560615  60.9494225   8.8133280
  29.5791796  59.8370823   8.0410528  21.4108867  68.7061667  20.8317651
  20.7172339  68.2915619  20.3187605  22.1581858  68.7482203  20.2351070
  37.5474088  59.4967853  15.6972685  36.9672757  60.1552657  15.3150738
  37.2810021  58.6745198  15.2860103  35.9977654  58.8972911  17.8994006
  36.4977433  59.0089446  17.0908324  36.6413262  58.5933964  18.5394814
  30.0559650  66.8051541  30.7861847  29.5726732  67.6051901  30.9925736
  30.1420589  66.8159486  29.8329291  23.3245610  68.6379920  18.7083666
  23.3016298  68.7367608  17.7565549  23.6346246  69.4845071  19.0300832
  25.9832988  70.6956075  22.8230280  26.9376241  70.6640018  22.7560212
  25.7845511  70.2346699  23.6380506  26.5732370  69.2657192  25.3901078
  27.3925259  69.7601270  25.4135915  26.8469177  68.3489160  25.3618646
  36.3298966  61.6567944  14.7529034  35.4424821  61.9417594  14.5349228
  36.7452955  61.4961707  13.9056310  39.6813502  61.6814465  18.4683373
  40.4573892  62.1710917  18.7407990  38.9561636  62.1072519  18.9255242
  42.1186061  62.3942084  19.5257313  42.7130551  62.1537820  18.8150622
  42.1912644  61.6749215  20.1530850  24.3383216  76.2375695  19.8400478
  24.2037684  75.4776096  19.2738476  23.9215279  76.9616595  19.3729267
  35.4742179  71.4212618   8.8477054  36.1778030  71.6262621   9.4634709
  34.7504828  71.9889380   9.1126137  36.3039990  67.1722480  14.9679324
  36.2475191  67.6291031  14.1286956  36.8568332  66.4113164  14.7902166
  40.1144796  62.9612212  15.7929443  39.8581730  62.5608847  16.6237651
  39.4897664  63.6756006  15.6679582  27.4952342  77.1345012  20.0518921
  27.3784726  78.0790444  19.9497611  26.6744789  76.8318574  20.4404720
  37.3828877  71.8595148  10.8975514  38.2174481  71.4276346  10.7152988
  37.2213220  71.6877161  11.8252408  37.0374769  68.3627261  12.2631853
  36.9823573  68.1971532  11.3220297  36.4120824  69.0703294  12.4194043
  21.8267284  63.5995325  26.0893275  22.4726148  63.0894279  26.5780500
  21.6184435  64.3364007  26.6636700  30.3470894  57.8635370  11.8417171
  30.3349564  58.8077210  11.9985442  31.2394316  57.6805515  11.5476632
  28.5206856  77.7873274  23.2674849  29.4234103  77.8196884  23.5841344
  28.2944226  76.8573725  23.2821185  30.2760458  76.5404260  19.9284928
  29.3256089  76.5406122  19.8149300  30.5792945  75.7936995  19.4120963
  34.1623014  54.4578147  16.0963108  33.3955410  53.9036633  16.2419790
  34.5733719  54.5300015  16.9577260  26.1664775  60.7462942  30.1868289
  27.0296237  60.3899747  30.3971614  25.5930186  60.4076837  30.8743694
  38.6789674  84.1827703  16.9189106  38.1154539  84.0917640  16.1505394
  38.5642069  83.3627608  17.3991598  44.2589233  87.8498671  12.2303571
  43.6077212  88.4352751  11.8437585  45.0533595  88.3804866  12.2898608
  38.1844860  84.9387808  12.6290705  38.9575736  84.3916795  12.4903581
  38.5370259  85.8032057  12.8405167  40.5211138  81.0980474  10.2609155
  40.7736658  80.5761996   9.4992618  39.5835697  80.9346620  10.3635839
  45.7364498  85.5389103  12.7672555  45.1010331  85.6123729  13.4793460
  45.4061904  86.1282702  12.0891634  40.2407426  83.0008580  12.4633530
  40.1243684  82.3253484  13.1314614  40.3509686  82.5140954  11.6465683
  42.2244454  77.4908627  11.1641568  42.3918857  78.3588863  11.5312039
  42.0341623  77.6535909  10.2402857  39.9640567  92.7169926  15.7978366
  39.8864597  93.6677751  15.8766846  39.3602211  92.3715799  16.4553292
  47.9018741  80.4187758  12.9768569  48.8136597  80.6515144  12.8016266
  47.3928388  81.0024802  12.4143647  42.2378936  88.0752079  14.5183906
  42.1024611  88.9203615  14.9468753  42.7788749  88.2771357  13.7549839
  35.6908334  85.5927517  15.0911831  36.2032854  86.3870768  15.2417395
  36.3431046  84.8953808  15.0245432  37.5003218  88.7093274  17.1734584
  37.6769847  89.6311238  16.9855568  38.2960052  88.3951693  17.6028964
  33.6557250  83.9216172  15.8671401  34.4932472  84.3313180  15.6505109
  33.8335518  82.9815614  15.8371595  45.5521682  81.5891252  11.5555234
  45.0368306  82.3595857  11.7943622  45.2798991  80.9156388  12.1788296
  43.7854417  85.6208568  15.0307969  43.2575779  84.8861327  14.7181207
  43.2841920  86.3983244  14.7847938  38.8442732  78.3132695  11.4110466
  38.0080044  78.6507382  11.7319741  38.7047502  78.1781675  10.4737603
  41.9307018  83.4388778   8.0342942  41.0234079  83.2078031   8.2334091
  42.4278050  82.6426397   8.2216924  44.8375096  92.1486285  10.9539629
  44.1636795  92.4517982  11.5624586  45.2240918  92.9515365  10.6045086
  43.1095251  83.5401373  12.5566932  42.2006470  83.2560406  12.6539402
  43.1390335  83.9600451  11.6970239  33.6783421  81.2606887  16.5382135
  33.4807821  80.6676248  15.8133201  33.1230085  80.9559097  17.2558073
  42.8071339  85.0810116   9.8955011  42.3690769  84.3645975   9.4360648
  43.5481780  85.3086231   9.3340102  36.1729647  80.7870921  14.2223087
  35.2427235  80.7255376  14.4393049  36.2687119  80.2646874  13.4259728
  43.0366312  92.3165958  13.1686708  43.2118067  91.8454001  13.9832330
  42.3499100  92.9431724  13.3967968  46.9282566  83.9394498   9.4887069
  46.3111737  83.2141326   9.3920121  46.4599055  84.7003858   9.1454143
  37.6027397  95.4655320  19.9426568  37.8423995  96.0973844  20.6205586
  36.7596593  95.1143360  20.2291927  38.7181112  78.1579922   8.6108373
  37.8410579  78.0368723   8.2470620  39.1938865  77.3666001   8.3587262
  30.2383252  82.9457082  18.7049880  30.9254292  82.6318812  18.1170895
  30.0831381  83.8498447  18.4317131  41.9045038  90.5106213  15.8570893
  41.1212560  91.0527893  15.9509118  42.6037784  91.0280192  16.2565135
  49.6844021  80.9189849  16.6093556  50.1504473  81.7517840  16.5353859
  50.1351521  80.4534830  17.3138815  47.7520252  87.2633670  13.6079708
  48.0280096  87.1490265  14.5173582  46.8824750  86.8651155  13.5691881
  44.3874316  91.5120021  17.2512522  44.5696710  90.6941677  17.7140274
  45.2107302  91.7287713  16.8137412  44.7216481  90.4388206  14.5127570
  45.2504248  89.9280661  13.8997733  44.9844701  90.1230736  15.3773104
  38.0772229  91.4903323  17.2725346  37.4082604  91.9749450  16.7889386
  37.9385099  91.7372543  18.1868725  29.8151229  81.0257675  20.9767347
  29.8535328  80.4921266  21.7704465  29.3091521  80.4992881  20.3578324
  33.4459806  79.7521778  14.0521279  33.7413247  78.8432456  13.9988332
  32.5447842  79.7309517  13.7302281  35.1747648  77.4335875  14.1760604
  34.8460354  76.5533254  13.9935710  35.5287018  77.3783544  15.0636993
  38.2889471  77.7208845  14.5436081  38.6285543  78.2494766  13.8214690
  38.7361591  78.0589251  15.3194648  40.2757618  76.2183467  12.7429374
  40.9965981  76.5964719  12.2393091  39.6522922  76.9372344  12.8464352
  47.8156665  90.4105004  15.1282553  47.9893542  89.8451427  14.3756406
  48.3085556  91.2105899  14.9462043  48.8031837  89.7271769  12.2279452
  49.4982742  90.3478461  12.4466766  49.1454987  88.8767120  12.5031830
  50.7023260  87.1771474  13.7566783  51.2274584  87.5158747  13.0316103
  50.6145613  86.2418489  13.5729917  34.8656260  89.4354998  18.1186664
  35.6914280  89.1358770  17.7385307  34.5150312  88.6662621  18.5676452
  33.0664865  87.3541325  19.0775597  32.2296773  86.9263499  18.8959599
  33.0388511  87.5473768  20.0146389  39.3951300  87.3385390  13.6642798
  39.5439420  88.0220854  13.0109471  40.2017744  87.3190480  14.1792254
  37.1503933  83.3650567  14.6703867  36.9049975  82.4612897  14.8684077
  37.3199848  83.3667718  13.7283345  36.4199581  79.0978925  12.1690028
  35.7268826  79.1723280  11.5130064  36.1751333  78.3339269  12.6911545
  42.8946706  89.8333520  11.1354545  42.3220673  90.4523707  10.6825017
  43.4679499  90.3832882  11.6694467  46.1143965  90.1170670  12.2663128
  47.0474639  90.0516232  12.4696003  46.0267178  90.9526937  11.8077660
  48.7431982  89.4336541   9.2267075  48.6645614  89.0996404  10.1202833
  49.5641649  89.9258309   9.2258548  43.2793504  81.1694333   8.4770598
  44.2252609  81.0400541   8.5459016  42.9007749  80.4308995   8.9540026
  41.4636421  79.0944309   8.4125483  40.5567877  78.7977422   8.4888197
  41.7412402  78.7974128   7.5459769  40.2335206  75.9531245   8.5537462
  41.0954370  76.2786143   8.8133280  40.4185550  75.1662741   8.0410528
  35.1776971  91.5667613  19.8400478  35.0431439  90.8068014  19.2738476
  34.7609033  92.2908512  19.3729267  46.3135934  86.7504536   8.8477054
  47.0171784  86.9554539   9.4634709  45.5898583  87.3181298   9.1126137
  47.1433744  82.5014397  14.9679324  47.0868946  82.9582949  14.1286956
  47.6962087  81.7405082  14.7902166  38.3346097  92.4636930  20.0518921
  38.2178481  93.4082362  19.9497611  37.5138543  92.1610491  20.4404720
  48.2222631  87.1887065  10.8975514  49.0568235  86.7568264  10.7152988
  48.0606974  87.0169079  11.8252408  47.8768523  83.6919179  12.2631853
  47.8217327  83.5263450  11.3220297  47.2514579  84.3995212  12.4194043
  56.8506906  97.7056716  20.9930690  57.4885316  97.5863464  20.2894030
  56.7327749  98.6537560  21.0518642  53.6596613  97.6584145  20.9292215
  53.3215124  97.5425209  20.0412750  54.5286381  97.2575310  20.9093221
  49.5183428  99.5119621  16.9189106  48.9548293  99.4209558  16.1505394
  49.4035823  98.6919525  17.3991598  54.1416396  98.8118996  26.8878421
  54.1305036  98.4171795  26.0158924  54.3037035  98.0785069  27.4812192
  47.0647860 101.0070813  19.7573326  47.8569152 100.6661637  19.3419626
  47.3044510 101.1165788  20.6775480  55.0982987 103.1790589  12.2303571
  54.4470967 103.7644669  11.8437585  55.8927350 103.7096784  12.2898608
  49.0238614 100.2679726  12.6290705  49.7969490  99.7208713  12.4903581
  49.3764013 101.1323975  12.8405167  50.8623657 101.5956108  25.8357604
  50.5713523 102.5001739  25.7204271  51.4980641 101.6372636  26.5501674
  51.7879864  98.9732957  22.4258964  52.3843436  98.7488979  21.7115927
  51.8454835  98.2317702  23.0284412  51.3604892  96.4272392  10.2609155
  51.6130413  95.9053913   9.4992618  50.4229451  96.2638537  10.3635839
  56.4048175  95.4308170  18.0683898  57.1911264  95.0127593  17.7174315
  56.6686879  96.3354263  18.2365547  56.5758252 100.8681021  12.7672555
  55.9404085 100.9415647  13.4793460  56.2455659 101.4574619  12.0891634
  61.8056602  95.3683404  18.9716877  62.5381774  94.7982620  19.2054706
  61.0495958  94.9805004  19.4123382  51.0801181  98.3300498  12.4633530
  50.9637439  97.6545401  13.1314614  51.1903441  97.8432872  11.6465683
  53.4232722  97.7910645  16.1680219  53.0590929  97.2641266  16.8793141
  54.2799838  97.4009114  15.9946705  53.0638209  92.8200545  11.1641568
  53.2312611  93.6880781  11.5312039  52.8735378  92.9827826  10.2402857
  55.8213542 101.2817524  22.8307398  55.5214265 102.1842562  22.7223205
  55.4764601 101.0149707  23.6828551  49.2726023  97.7331320  18.8644103
  48.3476520  97.6007535  19.0721794  49.5210437  98.5125540  19.3614045
  59.2210686  93.8000064  20.5104836  58.3127563  93.7315472  20.2163596
  59.1698281  94.2772009  21.3386661  53.0427430  95.2758202  12.1488235
  52.9227055  95.7215253  12.9873715  52.3480018  95.6243520  11.5901773
  46.6334834  97.3764594  19.6987892  46.7627216  97.6299073  20.6127303
  45.9532286  97.9692302  19.3792547  50.8034322 108.0461844  15.7978366
  50.7258351 108.9969669  15.8766846  50.1995965 107.7007716  16.4553292
  53.2951551  95.2189709  28.4539733  52.5184886  95.7783630  28.4442597
  53.9342115  95.7046492  28.9754603  61.0872332  92.0016502  22.2882709
  60.4446712  92.2949035  21.6422504  60.5827261  91.8869423  23.0935906
  58.7412496  95.7479675  12.9768569  59.6530352  95.9807062  12.8016266
  58.2322143  96.3316720  12.4143647  51.5497924  98.0275163  28.0157700
  52.2912608  98.5660207  27.7392523  50.8434909  98.6541452  28.1729252
  57.0253263 100.1704303  26.6129861  57.4336619  99.7286714  25.8684494
  56.3030525  99.5956931  26.8664054  53.3784333  95.1076910  23.9863418
  54.2245529  95.5316324  24.1298067  53.3182971  94.4510534  24.6801981
  57.3482078 100.7305494  20.3682150  56.7190940 100.8951208  19.6658218
  56.9607740 101.1447103  21.1393114  61.2271310 101.6659932  17.7226514
  60.5422348 102.0458833  17.1723547  61.3115159 102.2755258  18.4558462
  56.5283779  92.7681278  25.6444592  56.2844711  93.5223339  25.1078868
  56.8043709  93.1466626  26.4791839  58.4822242  99.3119891  24.3221857
  58.6939137  99.9551651  23.6456239  58.4351990  98.4782207  23.8543788
  52.9010040 100.4679902  17.6332235  53.3648385 100.7467605  16.8436858
  52.6366838  99.5663347  17.4505326  49.7934121 100.0151383  20.5711999
  50.3635478 100.4438652  19.9329483  50.3842233  99.7333968  21.2696184
  51.8378926  96.5903054  14.4421800  52.5402969  97.0424098  14.9095727
  51.5059554  95.9486873  15.0701694  59.5968069 102.1891846  22.4944215
  60.4185513 101.7872033  22.2126896  59.5930472 102.0860080  23.4460331
  47.5319005  95.2131186  16.7022411  46.7350169  95.3249880  17.2205906
  47.3044598  95.5517838  15.8363301  53.3624673 101.7375889  24.6504925
  53.4269105 102.1996297  25.4863097  52.6535597 101.1073254  24.7787235
  67.6874063  98.5330595  18.8429186  66.9337771  97.9637993  18.6873191
  67.8221604  98.4993259  19.7899821  53.0772691 103.4043997  14.5183906
  52.9418365 104.2495533  14.9468753  53.6182503 103.6063275  13.7549839
  46.5302088 100.9219435  15.0911831  47.0426609 101.7162685  15.2417395
  47.1824801 100.2245725  15.0245432  48.3396973 104.0385191  17.1734584
  48.5163601 104.9603156  16.9855568  49.1353806 103.7243610  17.6028964
  54.7041167 104.0267563  28.6484248  54.2605021 103.2403942  28.3305152
  55.3658381 104.2146714  27.9828138  49.4628288 105.5563365  23.1744926
  50.0135713 105.4280428  22.4021920  48.6239764 105.8558254  22.8239819
  56.8022405 104.3070363  26.6765649  56.7840880 105.1279244  26.1845918
  57.7242325 104.1824439  26.9015790  53.2595459 101.8214493  27.5189157
  53.7923796 101.0602781  27.2888465  52.7309540 101.5288145  28.2613312
  44.4951005  99.2508089  15.8671401  45.3326227  99.6605098  15.6505109
  44.6729272  98.3107531  15.8371595  56.3915437  96.9183170  11.5555234
  55.8762060  97.6887775  11.7943622  56.1192745  96.2448306  12.1788296
  61.3649711  99.6715525  13.4908408  60.5879154  99.3326684  13.0463570
  62.0441192  99.6768148  12.8163373  56.1801740  94.7910262  13.3815015
  55.8751876  95.1056411  14.2325159  57.1332182  94.8691682  13.4242348
  54.6248172 100.9500485  15.0307969  54.0969533 100.2153245  14.7181207
  54.1235675 101.7275162  14.7847938  59.6041018  99.1449506  20.1475016
  58.9464692  99.8348767  20.2355144  60.4081417  99.5345938  20.4909002
  58.4146477  97.4993879  18.1978957  58.9278358  98.1323870  18.7000667
  59.0647701  96.8995074  17.8322317  49.6836487  93.6424613  11.4110466
  48.8473799  93.9799299  11.7319741  49.5441256  93.5073592  10.4737603
  52.7700772  98.7680696   8.0342942  51.8627834  98.5369949   8.2334091
  53.2671804  97.9718315   8.2216924  54.8927308  94.9743334  20.4437298
  53.9749869  95.1958281  20.2858986  55.3087451  95.0489645  19.5849005
  55.6762355  96.3734750  15.5739978  56.4234174  96.8856147  15.2647100
  55.9453945  96.0518802  16.4344372  53.9489006  98.8693290  12.5566932
  53.0400225  98.5852323  12.6539402  53.9784089  99.2892369  11.6970239
  59.1808273 102.4799880  16.3258100  58.7270600 101.6390790  16.3823291
  58.5502240 103.1161278  16.6632880  58.1241193  93.4091866  17.5558767
  57.3863949  92.8969252  17.8869010  58.3767966  92.9692248  16.7442044
  57.6241212 104.3176377  17.2607918  57.9164187 104.8781434  16.5420284
  58.1339833 104.6104938  18.0161077  44.5177176  96.5898805  16.5382135
  44.3201576  95.9968165  15.8133201  43.9623840  96.2851015  17.2558073
  52.4973900  96.4821911  18.6576728  52.5522509  95.5295747  18.5819204
  51.6865102  96.6381350  19.1418026  53.6465093 100.4102034   9.8955011
  53.2084523  99.6937893   9.4360648  54.3875534 100.6378149   9.3340102
  50.4366259  95.0998971  16.4167107  49.6234125  95.3993141  16.8232299
  50.9325254  94.7054660  17.1341589  52.5874837 105.0956728  18.3501371
  52.5451016 105.3217574  17.4209903  53.5037536 104.8620102  18.4987173
  56.0340471  95.5640795  25.2482001  56.3889859  95.7912268  26.1076466
  56.6812602  95.8959172  24.6259256  61.7638208  98.6859231  15.9531330
  61.6256107  98.8760827  15.0252519  61.4074427  99.4478614  16.4099381
  61.7907588 100.7535758  20.9642601  62.2244094 100.6611047  21.8125655
  62.5039168 100.7293259  20.3262617  50.7040638 101.9719757  18.1463334
  51.4981237 101.4770077  17.9445909  49.9932331 101.4437620  17.7831040
  55.5235483 104.3537852  22.4975702  55.5772505 104.9228789  23.2653418
  54.6550264 104.5239737  22.1329739  47.0123402  96.1162838  14.2223087
  46.0820990  96.0547294  14.4393049  47.1080874  95.5938791  13.4259728
  62.6523137 100.7959459  23.4975487  62.8459027 101.7005269  23.7434761
  62.5523755 100.3366878  24.3314072  57.7138246 100.9466202  29.0716367
  57.5623752 100.7176753  28.1546451  57.7042925 101.9036803  29.0847712
  54.4823582  98.5198114  24.0562634  55.4115642  98.6709274  23.8831601
  54.0614612  98.6082135  23.2011280  53.2811914 102.5448779  21.8261171
  53.1423000 102.1767563  22.6987109  52.4926510 103.0596418  21.6545129
  53.8760066 107.6457875  13.1686708  54.0511822 107.1745918  13.9832330
  53.1892854 108.2723641  13.3967968  54.8317129 101.9230381  19.2150009
  54.4966962 101.8831151  20.1107659  54.3321075 101.2575097  18.7420419
  59.4230453 103.9785324  27.1492849  59.3642999 103.2944544  26.4823432
  59.8249971 104.7204314  26.6973475  48.4421151 110.7947238  19.9426568
  48.6817750 111.4265762  20.6205586  47.5990348 110.4435278  20.2291927
  49.5574867  93.4871840   8.6108373  48.6804333  93.3660641   8.2470620
  50.0332620  92.6957918   8.3587262  59.4247860 101.9424908  25.3806829
  58.5374639 101.6050830  25.5033228  59.9946411 101.2107939  25.6175594
  41.0777007  98.2749000  18.7049880  41.7648047  97.9610730  18.1170895
  40.9225136  99.1790364  18.4317131  52.9549013 106.6026360  22.3468072
  52.8819185 107.4081332  22.8587376  52.5126406 106.8018326  21.5216093
  52.7438793 105.8398130  15.8570893  51.9606315 106.3819811  15.9509118
  53.4431538 106.3572110  16.2565135  63.9065200  97.3533125  20.1423390
  63.8955077  98.2357841  19.7717323  63.0382580  97.0004676  19.9477927
  55.4147697 106.5013194  24.5026231  56.1275669 107.1360659  24.4302132
  54.9237725 106.5977060  23.6866232  57.1365224 100.4064447  16.0743522
  56.2021502 100.5265910  15.9048227  57.3141892  99.5036914  15.8103532
  60.5237775  96.2481766  16.6093556  60.9898227  97.0809758  16.5353859
  60.9745276  95.7826748  17.3138815  50.4659610 104.2507638  25.3231801
  51.1669070 104.8844121  25.4761196  49.9954725 104.5922369  24.5627441
  58.5914006 102.5925588  13.6079708  58.8673850 102.4782182  14.5173582
  57.7218505 102.1943073  13.5691881  58.2660896  96.8052245  23.1484352
  57.6132347  97.0528153  22.4936804  58.6441276  95.9916384  22.8146829
  55.2268070 106.8411939  17.2512522  55.4090465 106.0233594  17.7140274
  56.0501056 107.0579631  16.8137412  55.5610236 105.7680124  14.5127570
  56.0898002 105.2572578  13.8997733  55.8238455 105.4522654  15.3773104
  54.3148469  97.5472056  29.6350389  53.6389106  97.4466186  30.3052764
  55.1376103  97.3911270  30.0986386  46.0627328 103.7843993  22.2562904
  46.6480765 103.0387681  22.3890808  45.8652167 104.0947950  23.1399568
  48.9165984 106.8195240  17.2725346  48.2476359 107.3041368  16.7889386
  48.7778853 107.0664461  18.1868725  40.6544983  96.3549593  20.9767347
  40.6929083  95.8213184  21.7704465  40.1485276  95.8284799  20.3578324
  53.0571252 108.8538984  23.8708005  53.6089560 109.0170605  24.6357090
  53.3977446 109.4443422  23.1988030  57.9082127 103.6800241  29.7256659
  58.4522030 104.2930200  29.2311614  57.3268971 104.2379820  30.2423672
  44.2853561  95.0813695  14.0521279  44.5807002  94.1724374  13.9988332
  43.3841596  95.0601435  13.7302281  56.1939639 106.8020959  20.8571687
  56.0690779 106.0010699  20.3482632  56.8518731 107.2967153  20.3685657
  58.2574548 104.6029979  22.4851237  57.3104883 104.4835331  22.4129564
  58.6057321 103.7152478  22.5677498  46.0141402  92.7627793  14.1760604
  45.6854108  91.8825172  13.9935710  46.3680773  92.7075462  15.0636993
  55.2620981 104.3982696  18.6855589  55.1145944 103.4699403  18.8663159
  56.0874475 104.4202786  18.2012664  49.1283225  93.0500763  14.5436081
  49.4679298  93.5786684  13.8214690  49.5755346  93.3881169  15.3194648
  58.8655103 105.2211254  19.7720462  59.7901650 105.0154116  19.6344913
  58.6970406 104.9727656  20.6809804  51.1151373  91.5475384  12.7429374
  51.8359735  91.9256637  12.2393091  50.4916677  92.2664261  12.8464352
  55.2582495  92.2520533  13.6787707  55.4746110  93.1345171  13.3776535
  54.7776563  91.8606747  12.9493348  58.6550419 105.7396922  15.1282553
  58.8287297 105.1743344  14.3756406  59.1479310 106.5397817  14.9462043
  44.4727379  97.7511591  23.1946112  43.9280847  98.5271399  23.3266387
  45.3506729  98.0982395  23.0365234  51.2614996  91.0823175  15.5726911
  51.3830907  90.1539821  15.7717798  50.9717038  91.0961861  14.6605226
  64.5089810  98.5033345  16.7472853  64.9520956  97.7540670  16.3491976
  63.6316321  98.4943481  16.3646585  53.2037064 106.4197465  25.8856659
  53.5124190 106.1746612  26.7579359  54.0012546 106.6244104  25.3975529
  53.2257676 108.5735375  18.1162036  52.7862666 108.0811754  18.8094892
  53.9765793 108.0308343  17.8754111  45.7050015 104.7646916  18.1186664
  46.5308034 104.4650688  17.7385307  45.3544067 103.9954538  18.5676452
  50.6731548 104.1173384  20.1884337  50.0511557 103.4544089  19.8886565
  51.3436415 104.1434516  19.5057985  43.9058620 102.6833242  19.0775597
  43.0690528 102.2555417  18.8959599  43.8782265 102.8765686  20.0146389
  61.2310921 103.1396295  29.0617980  60.4406465 103.1220434  28.5222480
  60.9944275 103.6784589  29.8167017  61.3508796  99.9888762  26.3750709
  61.4006801  99.8238769  27.3166232  61.2422719  99.1216021  25.9848590
  50.2345055 102.6677308  13.6642798  50.3833175 103.3512772  13.0109471
  51.0411498 102.6482398  14.1792254  58.6412558  95.9719690  27.6910016
  59.5422421  95.8326155  27.3994014  58.7160533  96.1374145  28.6308193
  62.8526993 102.4085703  26.6192731  62.5611801 102.7715684  27.4556192
  62.2399124 101.6952712  26.4406063  64.0522675  99.9738583  19.1395301
  64.8869566 100.4128387  19.3032861  64.1881804  99.4977236  18.3203547
  61.1014181  97.5318318  25.0872789  61.5768303  97.7245964  24.2791640
  60.1779746  97.5877504  24.8416172  47.9897688  98.6942485  14.6703867
  47.7443730  97.7904815  14.8684077  48.1593602  98.6959636  13.7283345
  47.2593335  94.4270843  12.1690028  46.5662580  94.5015198  11.5130064
  47.0145087  93.6631186  12.6911545  59.8015850  94.4084078  23.3201094
  60.7533273  94.5082176  23.3413318  59.6319300  93.6162347  23.8299179
  62.2803928  97.6290198  22.4343394  62.2480248  96.6906198  22.6203078
  62.8904551  97.7074234  21.7009219  54.1187259  96.4986251   8.4770598
  55.0646363  96.3692459   8.5459016  53.7401504  95.7600913   8.9540026
  62.4298416  94.4201241  22.4801677  61.9137465  93.6359698  22.2931606
  63.3138365  94.0919958  22.6448196  68.0980478  98.6906205  21.5749431
  68.8283866  98.4291493  22.1357134  67.4887423  97.9534927  21.6151499
  66.1795775  96.8314067  22.1723882  65.4528938  96.6970032  21.5640373
  65.7643062  97.1390896  22.9780600  54.0025951 100.5503997  29.9371255
  54.9228961 100.7282596  30.1311301  53.9675534  99.6060042  29.7850954
  52.3030176  94.4236227   8.4125483  51.3961631  94.1269340   8.4888197
  52.5806157  94.1266045   7.5459769  43.2208116  95.7442591  18.8624529
  42.9010901  94.8907899  18.5698903  42.6741544  95.9591169  19.6182497
  51.0728960  91.2823162   8.5537462  51.9348124  91.6078061   8.8133280
  51.2579305  90.4954658   8.0410528  43.0896376  99.3645502  20.8317651
  42.3959848  98.9499455  20.3187605  43.8369367  99.4066039  20.2351070
  59.2261597  90.1551689  15.6972685  58.6460266  90.8136493  15.3150738
  58.9597530  89.3329033  15.2860103  57.6765163  89.5556747  17.8994006
  58.1764942  89.6673281  17.0908324  58.3200771  89.2517799  18.5394814
  51.7347159  97.4635376  30.7861847  51.2514241  98.2635736  30.9925736
  51.8208098  97.4743321  29.8329291  45.0033119  99.2963756  18.7083666
  44.9803807  99.3951443  17.7565549  45.3133755 100.1428907  19.0300832
  47.6620497 101.3539911  22.8230280  48.6163750 101.3223853  22.7560212
  47.4633020 100.8930535  23.6380506  58.0086475  92.3151779  14.7529034
  57.1212330  92.6001430  14.5349228  58.4240464  92.1545543  13.9056310
  61.3601011  92.3398300  18.4683373  62.1361401  92.8294753  18.7407990
  60.6349145  92.7656354  18.9255242  63.7973570  93.0525919  19.5257313
  64.3918060  92.8121655  18.8150622  63.8700153  92.3333050  20.1530850
  46.0170725 106.8959530  19.8400478  45.8825193 106.1359931  19.2738476
  45.6002788 107.6200430  19.3729267  57.9827499  97.8306315  14.9679324
  57.9262700  98.2874867  14.1286956  58.5355841  97.0697000  14.7902166
  61.7932305  93.6196047  15.7929443  61.5369239  93.2192683  16.6237651
  61.1685173  94.3339841  15.6679582  66.1044642  96.3592120  18.3000735
  65.5444200  96.4285310  19.0732297  65.4988146  96.1833105  17.5800231
  49.1739851 107.7928847  20.0518921  49.0572235 108.7374280  19.9497611
  48.3532298 107.4902409  20.4404720  58.7162278  99.0211096  12.2631853
  58.6611082  98.8555368  11.3220297  58.0908333  99.7287129  12.4194043
  56.0308185 101.3260008  31.5885416  56.8999345 101.5000661  31.2272051
  55.5514937 102.1454425  31.4661145  52.0258403  88.5219205  11.8417171
  52.0137073  89.4661045  11.9985442  52.9181825  88.3389351  11.5476632
  50.1994365 108.4457109  23.2674849  51.1021612 108.4780719  23.5841344
  49.9731735 107.5157560  23.2821185  51.9547967 107.1988096  19.9284928
  51.0043598 107.1989957  19.8149300  52.2580454 106.4520830  19.4120963
  64.4990367 112.9876062  20.9292215  64.1608879 112.8717127  20.0412750
  65.3680135 112.5867227  20.9093221  64.9810150 114.1410914  26.8878421
  64.9698791 113.7463712  26.0158924  65.1430790 113.4076987  27.4812192
  61.7017411 116.9248026  25.8357604  61.4107277 117.8293657  25.7204271
  62.3374396 116.9664553  26.5501674  62.6273618 114.3024874  22.4258964
  63.2237190 114.0780897  21.7115927  62.6848590 113.5609620  23.0284412
  70.1675777 104.4096895  23.4311485  69.8359102 105.2792306  23.2072700
  69.5721390 104.0933179  24.1105516  60.1119778 113.0623238  18.8644103
  59.1870274 112.9299452  19.0721794  60.3604191 113.8417457  19.3614045
  70.0604440 109.1291981  20.5104836  69.1521318 109.0607390  20.2163596
  70.0092036 109.6063926  21.3386661  57.4728589 112.7056512  19.6987892
  57.6020970 112.9590991  20.6127303  56.7926040 113.2984220  19.3792547
  64.1345306 110.5481627  28.4539733  63.3578640 111.1075547  28.4442597
  64.7735869 111.0338410  28.9754603  71.9266087 107.3308420  22.2882709
  71.2840467 107.6240953  21.6422504  71.4221015 107.2161340  23.0935906
  62.3891678 113.3567080  28.0157700  63.1306363 113.8952124  27.7392523
  61.6828664 113.9833369  28.1729252  67.8647018 115.4996221  26.6129861
  68.2730374 115.0578631  25.8684494  67.1424279 114.9248848  26.8664054
  64.2178088 110.4368828  23.9863418  65.0639283 110.8608241  24.1298067
  64.1576726 109.7802452  24.6801981  67.3677533 108.0973196  25.6444592
  67.1238465 108.8515257  25.1078868  67.6437464 108.4758544  26.4791839
  69.3215996 114.6411808  24.3221857  69.5332891 115.2843568  23.6456239
  69.2745744 113.8074125  23.8543788  66.9242225 107.2529629  21.2258430
  66.0626704 107.5510883  21.5175167  66.9504660 107.4700028  20.2939462
  61.1253042 110.5106729  28.8173010  60.4951703 111.1923009  29.0508407
  61.0189130 110.3989810  27.8726148  56.4198014 110.1778525  19.7438934
  55.6297068 110.4336053  19.2679045  56.9109262 110.9926863  19.8490974
  64.2018427 117.0667807  24.6504925  64.2662860 117.5288214  25.4863097
  63.4929351 116.4365172  24.7787235  54.7035717 110.4309015  22.1753925
  54.9543756 111.3156025  22.4411501  55.2395266 110.2513617  21.4029017
  60.4033785 104.8127494  31.1798261  60.0100730 104.2593693  31.8545905
  61.2199925 105.1238073  31.5704778  63.3201746 106.2285374  28.7718517
  64.0611459 106.8292527  28.6922980  63.5519669 105.4863011  28.2136560
  58.4643084 111.4141741  27.0496747  58.3496599 110.5126998  27.3503846
  57.6087601 111.6605438  26.6981564  65.5434921 119.3559481  28.6484248
  65.0998776 118.5695860  28.3305152  66.2052135 119.5438632  27.9828138
  67.6416160 119.6362281  26.6765649  67.6234635 120.4571162  26.1845918
  68.5636080 119.5116356  26.9015790  64.0989214 117.1506411  27.5189157
  64.6317550 116.3894699  27.2888465  63.5703295 116.8580062  28.2613312
  67.2658909 102.2566476  23.0482799  66.9223178 103.1468118  22.9721910
  67.6337871 102.0668134  22.1852384  66.3455449 104.6271132  21.0132032
  65.8420245 104.5901267  20.1999838  66.6386056 105.5363874  21.0728689
  62.5898335 104.7109861  20.0198214  63.4551332 104.5152670  19.6604104
  62.6575844 104.4820213  20.9467571  60.1960654 106.9412069  17.3914581
  60.7704406 106.7187251  16.6587774  60.7831636 107.0100764  18.1443182
  62.4983322 103.8153318  16.1189650  61.8447734 103.5002335  15.4946265
  62.4563796 103.1929059  16.8449473  65.7321062 110.3035252  20.4437298
  64.8143623 110.5250199  20.2858986  66.1481206 110.3781562  19.5849005
  69.0646574 101.5160036  18.1500537  69.3705451 100.6557399  17.8626452
  69.7899179 102.1077656  17.9499531  55.3570930 111.9190722  16.5382135
  55.1595330 111.3260083  15.8133201  54.8017594 111.6142932  17.2558073
  66.8734226 110.8932713  25.2482001  67.2283613 111.1204186  26.1076466
  67.5206357 111.2251090  24.6259256  60.7674089 108.0009244  22.0328342
  61.4073468 107.8598003  21.3351305  59.9351619 107.7143757  21.6566944
  57.7702705 107.9709569  16.8101328  58.0309522 108.8854902  16.7010489
  58.5919877 107.5034012  16.9597941  59.2427630 109.3847326  23.9800153
  59.9150684 109.1764688  23.3312802  58.4157417 109.1869412  23.5405385
  65.1453202 106.0109267  25.9965814  64.4981118 106.7099217  25.9030290
  65.9154218 106.4445411  26.3642062  68.5532000 116.2758119  29.0716367
  68.4017507 116.0468671  28.1546451  68.5436680 117.2328721  29.0847712
  65.3217337 113.8490032  24.0562634  66.2509397 114.0001192  23.8831601
  64.9008367 113.9374053  23.2011280  59.6455128 112.6589929  24.7402590
  59.5074926 111.9270168  25.3414129  60.5560051 112.5698829  24.4586778
  62.2737428 112.3709888  24.2286270  62.9837047 111.7303081  24.1872888
  62.2306737 112.6222783  25.1512451  60.9866362 109.3575106  26.0481909
  60.4503719 108.9065845  26.7003506  60.3983071 109.4921015  25.3052374
  70.2641614 117.2716826  25.3806829  69.3768393 116.9342748  25.5033228
  70.8340165 116.5399857  25.6175594  51.9170761 113.6040917  18.7049880
  52.6041801 113.2902648  18.1170895  51.7618890 114.5082282  18.4317131
  56.7205484 108.4931114  23.1334904  56.6363672 107.8856784  22.3985314
  55.8988190 108.9840132  23.1344400  66.8929197 106.9784678  18.5005099
  67.3897897 106.2254640  18.1806169  66.1216179 107.0148994  17.9348308
  63.4764166 109.1202061  18.2276783  63.1061954 108.5673101  18.9157689
  63.9723259 108.5160194  17.6751783  61.3053365 119.5799556  25.3231801
  62.0062824 120.2136039  25.4761196  60.8348480 119.9214287  24.5627441
  69.3348192 103.9454271  20.6484458  68.4211272 104.1758498  20.8166665
  69.7641294 104.0292715  21.4998490  69.1054651 112.1344163  23.1484352
  68.4526101 112.3820070  22.4936804  69.4835031 111.3208301  22.8146829
  65.1542224 112.8763974  29.6350389  64.4782861 112.7758103  30.3052764
  65.9769858 112.7203188  30.0986386  56.9021083 119.1135911  22.2562904
  57.4874520 118.3679599  22.3890808  56.7045921 119.4239867  23.1399568
  51.4938738 111.6841511  20.9767347  51.5322837 111.1505102  21.7704465
  50.9879030 111.1576716  20.3578324  58.8729500 106.5306051  24.4729889
  58.9370826 107.3920882  24.0607287  58.8096620 105.9180053  23.7402248
  58.3481772 108.6029184  28.1202924  58.9753811 108.2206261  28.7340448
  57.4909691 108.3843386  28.4858616  68.7475881 119.0092159  29.7256659
  69.2915785 119.6222117  29.2311614  68.1662726 119.5671737  30.2423672
  58.6541562 108.4861610  20.0348827  57.9328148 109.0997577  19.8956300
  59.4434818 109.0219374  19.9565473  61.4567876 105.8216036  26.3089479
  61.9802278 106.0678333  27.0715788  61.2380209 106.6536071  25.8892616
  62.6620421 106.7629731  23.9939149  62.3217241 105.9637544  24.3959829
  61.9559427 107.0631442  23.4215983  63.3136893 103.8479044  22.4466472
  64.1362962 103.3739522  22.3245363  63.5574956 104.6269527  22.9465159
  60.8375471 110.5398164  20.2558451  60.6920052 110.8538467  21.1482733
  60.3600675 111.1583065  19.7029350  62.6971854 107.5300712  20.3039341
  62.6833423 106.6341806  19.9671639  63.4144282 107.5371376  20.9377627
  64.5497985 107.9638052  22.3492468  64.2915763 108.8855123  22.3476799
  64.0183025 107.5668487  23.0392932  55.3121133 113.0803509  23.1946112
  54.7674602 113.8563317  23.3266387  56.1900483 113.4274313  23.0365234
  64.9699941 104.0970003  18.7093631  64.9921637 104.1609336  17.7545610
  65.3868000 103.2574512  18.9034137  56.0987155 112.2073405  26.0876269
  55.3568891 112.3556040  26.6740900  55.7779900 112.4681671  25.2243019
  61.5849830 107.9247090  29.7816843  61.6337985 108.8009213  29.3994613
  62.1272344 107.3824483  29.2088487  72.0704675 118.4688213  29.0617980
  71.2800219 118.4512352  28.5222480  71.8338030 119.0076507  29.8167017
  72.1902550 115.3180680  26.3750709  72.2400555 115.1530687  27.3166232
  72.0816474 114.4507939  25.9848590  69.4806313 111.3011608  27.6910016
  70.3816176 111.1618072  27.3994014  69.5554287 111.4666062  28.6308193
  63.8149118 108.6778462  26.5363202  62.9452428 108.9712028  26.2645791
  64.0508598 109.2618907  27.2570466  71.9407935 112.8610236  25.0872789
  72.4162057 113.0537882  24.2791640  71.0173501 112.9169421  24.8416172
  66.5188152 104.8958079  24.0528622  67.0370096 105.6319106  23.7275111
  66.1643285 105.2022073  24.8875382  66.7700746 101.3158362  19.5729519
  67.0502500 100.6481551  20.1989946  67.5551353 101.5087457  19.0604183
  70.6409604 109.7375996  23.3201094  71.5927027 109.8374093  23.3413318
  70.4713055 108.9454264  23.8299179  68.6623984 106.8231579  23.5060495
  68.0673916 107.1036592  22.8106984  68.3773681 107.3125480  24.2777236
  73.2692171 109.7493159  22.4801677  72.7531219 108.9651615  22.2931606
  74.1532119 109.4211875  22.6448196  70.9302898 103.4934174  18.4397490
  70.7327719 103.1849263  19.3240822  71.5402603 104.2195813  18.5695420
  64.8419706 115.8795915  29.9371255  65.7622715 116.0574514  30.1311301
  64.8069289 114.9351960  29.7850954  54.0601871 111.0734508  18.8624529
  53.7404655 110.2199816  18.5698903  53.5135299 111.2883086  19.6182497
  57.8381778 113.7896949  22.5794036  58.0567788 114.7214057  22.5982070
  58.2507552 113.4304924  23.3648840  66.6876544 103.3743081  16.1894021
  67.2407583 103.7938535  16.8484044  66.9246631 102.4478829  16.2316977
  62.7109644 109.3630155  31.9696785  62.6106370 110.3124512  31.9008876
  62.4931186 109.0348394  31.0972855  53.9290131 114.6937420  20.8317651
  53.2353602 114.2791372  20.3187605  54.6763122 114.7357956  20.2351070
  62.5740914 112.7927294  30.7861847  62.0907995 113.5927654  30.9925736
  62.6601853 112.8035239  29.8329291  55.8426873 114.6255673  18.7083666
  55.8197561 114.7243361  17.7565549  56.1527510 115.4720824  19.0300832
  58.5014251 116.6831828  22.8230280  59.4557505 116.6515771  22.7560212
  58.3026775 116.2222452  23.6380506  59.0913633 115.2532945  25.3901078
  59.9106522 115.7477023  25.4135915  59.3650441 114.3364913  25.3618646
  54.3448547 109.5871078  26.0893275  54.9907411 109.0770032  26.5780500
  54.1365699 110.3239760  26.6636700  66.8701940 116.6551926  31.5885416
  67.7393099 116.8292578  31.2272051  66.3908691 117.4746343  31.4661145
  66.6804277 100.4453900  16.0963108  65.9136673  99.8912386  16.2419790
  67.0914982 100.5175768  16.9577260  58.6846038 106.7338695  30.1868289
  59.5477500 106.3775500  30.3971614  58.1111449 106.3952590  30.8743694
  71.2427539 120.1419412  31.1798261  70.8494485 119.5885611  31.8545905
  72.0593680 120.4529991  31.5704778  73.5503398 124.6922073  31.9696785
  73.4500125 125.6416430  31.9008876  73.3324940 124.3640312  31.0972855
  69.5239793 122.0630613  30.1868289  70.3871254 121.7067418  30.3971614
  68.9505204 121.7244508  30.8743694  25.3900864  34.6986611  16.4501966
  25.9340768  35.3116569  15.9556921  24.8087709  35.2566189  16.9668979
  28.7129659  34.1582665  15.7863287  27.9225202  34.1406804  15.2467787
  28.4763013  34.6970959  16.5412324  23.5126923  32.3446378  18.3130722
  24.3818083  32.5187030  17.9517357  23.0333674  33.1640795  18.1906452
  35.1719399  44.0535004   7.7175997  35.8097809  43.9341751   7.0139337
  35.0540242  45.0015848   7.7763949  32.4628888  45.1597284  13.6123727
  32.4517529  44.7650082  12.7404231  32.6249527  44.4263356  14.2057499
  29.1836149  47.9434395  12.5602911  28.8926015  48.8480026  12.4449577
  29.8193133  47.9850923  13.2746981  30.1092356  45.3211244   9.1504271
  30.7055928  45.0967266   8.4361234  30.1667327  44.5795989   9.7529719
  40.1269094  41.7161691   5.6962184  40.8594266  41.1460908   5.9300013
  39.3708450  41.3283291   6.1368689  37.6494515  35.4283265  10.1556792
  37.3177839  36.2978676   9.9318007  37.0540128  35.1119549  10.8350822
  34.1426034  47.6295811   9.5552705  33.8426757  48.5320850   9.4468512
  33.7977094  47.3627994  10.4073858  29.1246814  54.3940131   2.5223673
  29.0470844  55.3447956   2.6012153  28.5208458  54.0486004   3.1798599
  31.6164044  41.5667997  15.1785039  30.8397378  42.1261917  15.1687904
  32.2554607  42.0524780  15.6999910  39.4084824  38.3494789   9.0128016
  38.7659205  38.6427323   8.3667811  38.9039753  38.2347710   9.8181213
  29.8710416  44.3753450  14.7403006  30.6125100  44.9138494  14.4637830
  29.1647402  45.0019739  14.8974558  35.3465756  46.5182590  13.3375168
  35.7549112  46.0765001  12.5929800  34.6243017  45.9435218  13.5909361
  31.6996826  41.4555197  10.7108725  32.5458021  41.8794611  10.8543374
  31.6395463  40.7988822  11.4047288  35.6694570  47.0783781   7.0927457
  35.0403433  47.2429495   6.3903525  35.2820232  47.4925391   7.8638421
  39.5483802  48.0138219   4.4471821  38.8634840  48.3937120   3.8968854
  39.6327652  48.6233546   5.1803768  34.8496271  39.1159566  12.3689899
  34.6057203  39.8701626  11.8324174  35.1256202  39.4944913  13.2037146
  36.8034734  45.6598178  11.0467164  37.0151629  46.3029938  10.3701545
  36.7564482  44.8260495  10.5789094  28.6071780  41.5293098  15.5418316
  27.9770440  42.2109379  15.7753713  28.5007868  41.4176180  14.5971455
  37.9180562  48.5370133   9.2189521  38.7398006  48.1350321   8.9372203
  37.9142965  48.4338368  10.1705637  31.6837165  48.0854177  11.3750232
  31.7481598  48.5474584  12.2108404  30.9748089  47.4551542  11.5032542
  46.0086555  44.8808882   5.5674493  45.2550263  44.3116280   5.4118497
  46.1434096  44.8471546   6.5145128  27.8852523  35.8313864  17.9043567
  27.4919468  35.2780063  18.5791212  28.7018663  36.1424443  18.2950085
  30.8020484  37.2471743  15.4963824  31.5430197  37.8478896  15.4168287
  31.0338406  36.5049381  14.9381867  25.9461822  42.4328110  13.7742054
  25.8315337  41.5313368  14.0749153  25.0906339  42.6791807  13.4226870
  33.0253659  50.3745851  15.3729554  32.5817513  49.5882229  15.0550459
  33.6870873  50.5625001  14.7073445  27.7840780  51.9041652   9.8990233
  28.3348206  51.7758716   9.1267227  26.9452256  52.2036541   9.5485126
  35.1234897  50.6548651  13.4010956  35.1053373  51.4757532  12.9091225
  36.0454817  50.5302726  13.6261097  31.5807951  48.1692780  14.2434464
  32.1136288  47.4081068  14.0133772  31.0522033  47.8766432  14.9858618
  37.9253510  45.4927793   6.8720322  37.2677185  46.1827054   6.9600451
  38.7293909  45.8824225   7.2154309  37.5020765  48.8278167   3.0503407
  37.0483092  47.9869077   3.1068597  36.8714732  49.4639566   3.3878187
  35.9453704  50.6654664   3.9853225  36.2376679  51.2259721   3.2665590
  36.4552325  50.9583225   4.7406384  30.9087330  51.4435015   5.0746678
  30.8663508  51.6695861   4.1455210  31.8250029  51.2098390   5.2232479
  34.3552963  41.9119083  11.9727307  34.7102351  42.1390556  12.8321773
  35.0025095  42.2437459  11.3504563  40.1120080  47.1014045   7.6887908
  40.5456587  47.0089335   8.5370962  40.8251661  47.0771546   7.0507924
  33.8447975  50.7016140   9.2221008  33.8984997  51.2707076   9.9898724
  32.9762756  50.8718025   8.8575045  40.9735630  47.1437746  10.2220793
  41.1671520  48.0483557  10.4680068  40.8736248  46.6845165  11.0559378
  32.6271940  37.0295637  12.7211121  31.9799855  37.7285586  12.6275597
  33.3972956  37.4631781  13.0887369  36.0350738  47.2944489  15.7961674
  35.8836245  47.0655041  14.8791757  36.0255418  48.2515090  15.8093019
  32.8036075  44.8676402  10.7807940  33.7328135  45.0187561  10.6076908
  32.3827105  44.9560422   9.9256587  31.6024406  48.8927066   8.5506478
  31.4635492  48.5245850   9.4232416  30.8139003  49.4074705   8.3790436
  33.1529622  48.2708669   5.9395316  32.8179454  48.2309439   6.8352966
  32.6533567  47.6053385   5.4665726  27.1273866  43.6776299  11.4647897
  26.9893663  42.9456538  12.0659436  28.0378789  43.5885199  11.1832085
  29.7556166  43.3896258  10.9531576  30.4655785  42.7489450  10.9118195
  29.7125474  43.6409153  11.8757757  37.7442945  50.3263611  13.8738156
  37.6855491  49.6422832  13.2068739  38.1462463  51.0682601  13.4218782
  28.4685100  40.3761476  12.7727216  27.9322457  39.9252214  13.4248812
  27.8801809  40.5107385  12.0297680  26.7633644  57.1425525   6.6671875
  27.0030242  57.7744049   7.3450893  25.9202840  56.7913565   6.9537234
  37.7460352  48.2903195  12.1052135  36.8587131  47.9529117  12.2278534
  38.3158903  47.5586227  12.3420901  31.2761506  52.9504648   9.0713379
  31.2031677  53.7559619   9.5832683  30.8338899  53.1496613   8.2461400
  42.2277693  43.7011413   6.8668697  42.2167569  44.5836128   6.4962630
  41.3595072  43.3482964   6.6723234  33.7360189  52.8491482  11.2271537
  34.4488161  53.4838947  11.1547439  33.2450218  52.9455348  10.4111539
  28.7872103  50.5985925  12.0477108  29.4881562  51.2322408  12.2006502
  28.3167218  50.9400657  11.2872747  36.5873389  43.1530533   9.8729658
  35.9344839  43.4006440   9.2182111  36.9653768  42.3394671   9.5392136
  33.5480562  53.1890226   3.9757829  33.7302957  52.3711882   4.4385581
  34.3713548  53.4057918   3.5382719  32.6360962  43.8950344  16.3595695
  31.9601599  43.7944473  17.0298071  33.4588595  43.7389557  16.8231693
  24.3839821  50.1322280   8.9808211  24.9693257  49.3865968   9.1136115
  24.1864659  50.4426237   9.8644875  31.3783744  55.2017271  10.5953311
  31.9302052  55.3648893  11.3602397  31.7189938  55.7921709   9.9233336
  25.8300510  39.6215553  14.8448230  26.4572549  39.2392631  15.4585755
  24.9728429  39.4029755  15.2103923  36.2294619  50.0278529  16.4501966
  36.7734523  50.6408487  15.9556921  35.6481464  50.5858107  16.9668979
  34.5152132  53.1499247   7.5816994  34.3903271  52.3488986   7.0727939
  35.1731223  53.6445440   7.0930964  36.5787040  50.9508267   9.2096544
  35.6317376  50.8313618   9.1374870  36.9269813  50.0630765   9.2922805
  28.9386613  36.8402406  13.0334786  29.4621015  37.0864702  13.7961095
  28.7198947  37.6722440  12.6137923  33.5833473  50.7460983   5.4100896
  33.4358436  49.8177690   5.5908466  34.4086967  50.7681074   4.9257971
  37.1867595  51.5689542   6.4965769  38.1114143  51.3632403   6.3590220
  37.0182899  51.3205943   7.4055110  36.9762911  52.0875209   1.8527860
  37.1499789  51.5221632   1.1001713  37.4691803  52.8876104   1.6707350
  42.8302303  44.8511632   3.4718160  43.2733449  44.1018957   3.0737283
  41.9528813  44.8421768   3.0891892  23.5805893  43.2259774  12.8121576
  22.8387629  43.3742410  13.3986206  23.2598637  43.4868040  11.9488325
  31.5249556  52.7675753  12.6101966  31.8336682  52.5224899  13.4824665
  32.3225038  52.9722391  12.1220836  31.5470168  54.9213662   4.8407342
  31.1075158  54.4290041   5.5340199  32.2978285  54.3786630   4.5999418
  28.9944040  50.4651671   6.9129644  28.3724049  49.8022376   6.6131872
  29.6648907  50.4912803   6.2303292  29.0668567  38.9433459  16.5062150
  29.1156723  39.8195582  16.1239920  29.6091082  38.4010852  15.9333793
  39.5523413  49.4874583  15.7863287  38.7618957  49.4698722  15.2467787
  39.3156768  50.0262876  16.5412324  39.6721288  46.3367049  13.0996016
  39.7219293  46.1717057  14.0411538  39.5635212  45.4694308  12.7093896
  36.9625051  42.3197977  14.4155322  37.8634913  42.1804442  14.1239320
  37.0373025  42.4852432  15.3553500  31.2967856  39.6964832  13.2608509
  30.4271165  39.9898398  12.9891097  31.5327336  40.2805277  13.9815772
  41.1739485  48.7563991  13.3438037  40.8824293  49.1193971  14.1801498
  40.5611616  48.0430999  13.1651369  42.3735167  46.3216870   5.8640607
  43.2082059  46.7606674   6.0278168  42.5094296  45.8455524   5.0448853
  39.4226673  43.8796605  11.8118095  39.8980795  44.0724252  11.0036947
  38.4992239  43.9355791  11.5661479  38.1228342  40.7562365  10.0446401
  39.0745765  40.8560463  10.0658625  37.9531793  39.9640634  10.5544485
  36.1442722  37.8417949  10.2305802  35.5492654  38.1222961   9.5352290
  35.8592418  38.3311849  11.0022543  40.6016420  43.9768485   9.1588700
  40.5692740  43.0384486   9.3448384  41.2117044  44.0552522   8.4254525
  40.7510909  40.7679528   9.2046984  40.2349957  39.9837985   9.0176912
  41.6350857  40.4398245   9.3693503  46.4192970  45.0384492   8.2994737
  47.1496358  44.7769780   8.8602441  45.8099915  44.3013214   8.3396805
  44.5008267  43.1792354   8.8969188  43.7741431  43.0448319   8.2885680
  44.0855554  43.4869183   9.7025906  32.3238443  46.8982284  16.6616561
  33.2441453  47.0760883  16.8556608  32.2888026  45.9538329  16.5096261
  30.1928381  40.3816525  18.6942092  30.0925108  41.3310881  18.6254183
  29.9749923  40.0534763  17.8218162  30.0559651  43.8113663  17.5107153
  29.5726733  44.6114023  17.7171042  30.1420590  43.8221608  16.5574597
  25.9832989  47.7018198   9.5475587  26.9376242  47.6702140   9.4805519
  25.7845512  47.2408822  10.3625813  26.5732371  46.2719314  12.1146385
  27.3925260  46.7663393  12.1381222  26.8469179  45.3551282  12.0863952
  24.3383218  53.2437818   6.5645785  24.2037686  52.4838218   5.9983783
  23.9215280  53.9678717   6.0974574  44.4257135  42.7070407   5.0246041
  43.8656693  42.7763597   5.7977603  43.8200638  42.5311392   4.3045537
  27.4952344  54.1407135   6.7764228  27.3784728  55.0852567   6.6742918
  26.6744790  53.8380696   7.1650027  34.3520677  47.6738295  18.3130722
  35.2211837  47.8478948  17.9517357  33.8727429  48.4932712  18.1906452
  28.5206858  54.7935396   9.9920156  29.4234104  54.8259007  10.3086651
  28.2944228  53.8635847  10.0066492  30.2760460  53.5466383   6.6530235
  29.3256091  53.5468245   6.5394607  30.5792946  52.7999118   6.1366269
  26.1664776  37.7525065  16.9113596  27.0296238  37.3961870  17.1216921
  25.5930187  37.4138960  17.5989000  46.0113153  59.3826921   7.7175997
  46.6491563  59.2633669   7.0139337  45.8933996  60.3307765   7.7763949
  42.8202859  59.3354350   7.6537522  42.4821371  59.2195414   6.7658057
  43.6892628  58.9345515   7.6338528  38.6789675  61.1889826   3.6434413
  38.1154540  61.0979763   2.8750700  38.5642070  60.3689730   4.1236905
  43.3022642  60.4889201  13.6123727  43.2911283  60.0942000  12.7404231
  43.4643282  59.7555274  14.2057499  36.2254107  62.6841018   6.4818633
  37.0175399  62.3431842   6.0664932  36.4650757  62.7935993   7.4020786
  44.2589234  64.8560794  -1.0451122  43.6077214  65.4414874  -1.4317109
  45.0533597  65.3866989  -0.9856085  38.1844861  61.9449931  -0.6463988
  38.9575737  61.3978918  -0.7851112  38.5370260  62.8094180  -0.4349527
  40.0229904  63.2726313  12.5602911  39.7319770  64.1771944  12.4449577
  40.6586888  63.3142841  13.2746981  40.9486110  60.6503162   9.1504271
  41.5449683  60.4259184   8.4361234  41.0061082  59.9087907   9.7529719
  40.5211139  58.1042597  -3.0145538  40.7736660  57.5824118  -3.7762075
  39.5835698  57.9408742  -2.9118855  45.5654422  57.1078375   4.7929205
  46.3517511  56.6897798   4.4419622  45.8293126  58.0124467   4.9610853
  45.7364499  62.5451226  -0.5082138  45.1010332  62.6185852   0.2038766
  45.4061905  63.1344824  -1.1863059  50.9662849  57.0453608   5.6962184
  51.6988021  56.4752825   5.9300013  50.2102204  56.6575209   6.1368689
  40.2407428  60.0070703  -0.8121163  40.1243686  59.3315606  -0.1440079
  40.3509687  59.5203077  -1.6289010  42.5838968  59.4680850   2.8925526
  42.2197176  58.9411471   3.6038447  43.4406084  59.0779319   2.7192011
  48.4888269  50.7575183  10.1556792  48.1571594  51.6270594   9.9318007
  47.8933883  50.4411467  10.8350822  44.9819789  62.9587729   9.5552705
  44.6820512  63.8612767   9.4468512  44.6370848  62.6919912  10.4073858
  38.4332270  59.4101525   5.5889409  37.5082767  59.2777739   5.7967101
  38.6816683  60.1895745   6.0859352  48.3816932  55.4770269   7.2350142
  47.4733810  55.4085677   6.9408903  48.3304528  55.9542214   8.0631968
  42.2033676  56.9528407  -1.1266459  42.0833302  57.3985458  -0.2880978
  41.5086265  57.3013725  -1.6852921  35.7941081  59.0534799   6.4233198
  35.9233462  59.3069278   7.3372610  35.1138532  59.6462507   6.1037853
  39.9640568  69.7232049   2.5223673  39.8864598  70.6739874   2.6012153
  39.3602212  69.3777921   3.1798599  42.4557798  56.8959914  15.1785039
  41.6791132  57.4553834  15.1687904  43.0948361  57.3816697  15.6999910
  50.2478579  53.6786707   9.0128016  49.6052959  53.9719240   8.3667811
  49.7433507  53.5639627   9.8181213  47.9018743  57.4249880  -0.2986125
  48.8136599  57.6577267  -0.4738427  47.3928390  58.0086925  -0.8611046
  40.7104171  59.7045368  14.7403006  41.4518855  60.2430412  14.4637830
  40.0041156  60.3311656  14.8974558  46.1859510  61.8474508  13.3375168
  46.5942866  61.4056919  12.5929800  45.4636772  61.2727136  13.5909361
  42.5390580  56.7847115  10.7108725  43.3851775  57.2086528  10.8543374
  42.4789218  56.1280739  11.4047288  46.5088325  62.4075699   7.0927457
  45.8797187  62.5721413   6.3903525  46.1213987  62.8217308   7.8638421
  50.3877557  63.3430137   4.4471821  49.7028595  63.7229038   3.8968854
  50.4721406  63.9525463   5.1803768  45.6890026  54.4451483  12.3689899
  45.4450957  55.1993544  11.8324174  45.9649956  54.8236831  13.2037146
  47.6428488  60.9890096  11.0467164  47.8545384  61.6321856  10.3701545
  47.5958237  60.1552412  10.5789094  45.2454717  53.6007916   7.9503736
  44.3839196  53.8989170   8.2420474  45.2717152  53.8178315   7.0184769
  42.0616287  62.1450107   4.3577542  42.5254632  62.4237810   3.5682164
  41.7973085  61.2433551   4.1750633  38.9540368  61.6921588   7.2957305
  39.5241725  62.1208857   6.6574790  39.5448480  61.4104173   7.9941491
  40.9985173  58.2673259   1.1667107  41.7009216  58.7194303   1.6341033
  40.6665801  57.6257078   1.7947000  39.4465534  56.8585016  15.5418316
  38.8164195  57.5401297  15.7753713  39.3401622  56.7468097  14.5971455
  34.7410507  56.5256812   6.4684241  33.9509561  56.7814340   5.9924351
  35.2321754  57.3405150   6.5736281  48.7574316  63.8662051   9.2189521
  49.5791760  63.4642238   8.9372203  48.7536719  63.7630285  10.1705637
  36.6925252  56.8901391   3.4267717  35.8956415  57.0020085   3.9451213
  36.4650844  57.2288043   2.5608608  42.5230920  63.4146094  11.3750232
  42.5875352  63.8766502  12.2108404  41.8141844  62.7843459  11.5032542
  33.0248210  56.7787302   8.8999231  33.2756248  57.6634312   9.1656807
  33.5607758  56.5991904   8.1274323  56.8480309  60.2100800   5.5674493
  56.0944018  59.6408198   5.4118497  56.9827851  60.1763464   6.5145128
  42.2378937  65.0814202   1.2429212  42.1024612  65.9265738   1.6714060
  42.7788750  65.2833479   0.4795146  38.7246277  51.1605782  17.9043567
  38.3313223  50.6071980  18.5791212  39.5412417  51.4716360  18.2950085
  35.6908335  62.5989640   1.8157137  36.2032855  63.3932890   1.9662702
  36.3431048  61.9015930   1.7490739  37.5003219  65.7155396   3.8979891
  37.6769848  66.6373361   3.7100874  38.2960053  65.4013815   4.3274270
  41.6414238  52.5763661  15.4963824  42.3823951  53.1770814  15.4168287
  41.8732161  51.8341299  14.9381867  36.7855576  57.7620028  13.7742054
  36.6709091  56.8605285  14.0749153  35.9300094  58.0083725  13.4226870
  43.8647414  65.7037768  15.3729554  43.4211268  64.9174147  15.0550459
  44.5264627  65.8916919  14.7073445  38.6234535  67.2333570   9.8990233
  39.1741960  67.1050633   9.1267227  37.7846011  67.5328459   9.5485126
  45.9628652  65.9840568  13.4010956  45.9447127  66.8049449  12.9091225
  46.8848572  65.8594644  13.6261097  42.4201706  63.4984698  14.2434464
  42.9530043  62.7372986  14.0133772  41.8915787  63.2058350  14.9858618
  45.5871401  48.6044764   9.7728106  45.2435670  49.4946405   9.6967216
  45.9550364  48.4146421   8.9097691  33.6557252  60.9278294   2.5916708
  34.4932474  61.3375303   2.3750416  33.8335519  59.9877736   2.5616902
  45.5521684  58.5953375  -1.7199459  45.0368307  59.3657979  -1.4811072
  45.2798992  57.9218511  -1.0966398  43.1368795  53.4403076   3.3385779
  42.2810391  53.0509926   3.1591418  43.5495746  53.5195036   2.4785565
  44.6667941  50.9749419   7.7377339  44.1632737  50.9379554   6.9245144
  44.9598548  51.8842162   7.7973996  40.9110827  51.0588149   6.7443521
  41.7763824  50.8630957   6.3849410  40.9788336  50.8298500   7.6712877
  50.5255958  61.3485729   0.2153714  49.7485401  61.0096889  -0.2291124
  51.2047439  61.3538353  -0.4591321  45.3407987  56.4680467   0.1060322
  45.0358122  56.7826616   0.9570465  46.2938429  56.5461887   0.1487655
  43.7854419  62.6270690   1.7553276  43.2575780  61.8923450   1.4426513
  43.2841921  63.4045367   1.5093244  48.7647265  60.8219711   6.8720322
  48.1070939  61.5118972   6.9600451  49.5687664  61.2116143   7.2154309
  38.5173146  53.2890357   4.1159888  39.0916898  53.0665538   3.3833080
  39.1044129  53.3579051   4.8688489  47.5752723  59.1764083   4.9224264
  48.0884605  59.8094075   5.4245974  48.2253947  58.5765279   4.5567624
  40.8195814  50.1631605   2.8434957  40.1660226  49.8480623   2.2191572
  40.7776288  49.5407346   3.5694780  41.9307019  60.4450901  -5.2411751
  41.0234081  60.2140154  -5.0420602  42.4278051  59.6488520  -5.0537769
  44.8375098  69.1548408  -2.3215065  44.1636796  69.4580104  -1.7130107
  45.2240920  69.9577488  -2.6709608  44.0533554  56.6513539   7.1682605
  43.1356116  56.8728486   7.0104293  44.4693698  56.7259849   6.3094312
  44.8368602  58.0504955   2.2985285  45.5840421  58.5626352   1.9892407
  45.1060192  57.7289007   3.1589678  43.1095252  60.5463495  -0.7187761
  42.2006472  60.2622528  -0.6215291  43.1390336  60.9662574  -1.5784454
  48.3414520  64.1570085   3.0503407  47.8876847  63.3160995   3.1068597
  47.7108486  64.7931483   3.3878187  47.2847439  55.0862071   4.2804074
  46.5470196  54.5739457   4.6114317  47.5374213  54.6462453   3.4687351
  46.7847459  65.9946582   3.9853225  47.0770433  66.5551639   3.2665590
  47.2946080  66.2875143   4.7406384  47.3859067  47.8638323   4.8745843
  47.6917943  47.0035686   4.5871758  48.1111671  48.4555943   4.6744837
  33.6783423  58.2669010   3.2627441  33.4807822  57.6738370   2.5378508
  33.1230087  57.9621220   3.9803380  41.6580146  58.1592116   5.3822034
  41.7128756  57.2065952   5.3064511  40.8471348  58.3151555   5.8663333
  42.8071340  62.0872239  -3.3799682  42.3690770  61.3708098  -3.8394045
  43.5481781  62.3148354  -3.9414591  39.5972506  56.7769176   3.1412413
  38.7840372  57.0763346   3.5477605  40.0931500  56.3824865   3.8586896
  41.7481084  66.7726933   5.0746678  41.7057263  66.9987779   4.1455210
  42.6643783  66.5390307   5.2232479  45.1946718  57.2411000  11.9727307
  45.5496106  57.4682473  12.8321773  45.8418849  57.5729377  11.3504563
  50.9244455  60.3629436   2.6776636  50.7862353  60.5531032   1.7497825
  50.5680674  61.1248819   3.1344687  39.0886581  54.3487531   8.7573648
  39.7285960  54.2076290   8.0596612  38.2564112  54.0622045   8.3812250
  50.9513834  62.4305963   7.6887908  51.3850341  62.3381252   8.5370962
  51.6645415  62.4063464   7.0507924  39.8646885  63.6489962   4.8708641
  40.6587483  63.1540282   4.6691216  39.1538577  63.1207825   4.5076346
  44.6841729  66.0308057   9.2221008  44.7378752  66.5998994   9.9898724
  43.8156511  66.2009942   8.8575045  36.1729648  57.7933043   0.9468393
  35.2427236  57.7317499   1.1638356  36.2687120  57.2708996   0.1505035
  36.0915197  54.3187856   3.5346635  36.3522015  55.2333189   3.4255796
  36.9132370  53.8512299   3.6843248  37.5640123  55.7325613  10.7045460
  38.2363176  55.5242976  10.0558109  36.7369909  55.5347699  10.2650692
  51.8129384  62.4729664  10.2220793  52.0065274  63.3775474  10.4680068
  51.7130002  62.0137083  11.0559378  43.4665695  52.3587554  12.7211121
  42.8193610  53.0577504  12.6275597  44.2366710  52.7923698  13.0887369
  46.8744493  62.6236407  15.7961674  46.7229999  62.3946958  14.8791757
  46.8649172  63.5807008  15.8093019  43.6429829  60.1968319  10.7807940
  44.5721889  60.3479479  10.6076908  43.2220859  60.2852340   9.9256587
  42.4418161  64.2218984   8.5506478  42.3029247  63.8537768   9.4232416
  41.6532757  64.7366623   8.3790436  43.0366313  69.3228080  -0.1067986
  43.2118069  68.8516123   0.7077637  42.3499101  69.9493846   0.1213275
  43.9923376  63.6000586   5.9395316  43.6573209  63.5601356   6.8352966
  43.4927322  62.9345302   5.4665726  37.9667620  59.0068216  11.4647897
  37.8287418  58.2748455  12.0659436  38.8772543  58.9177116  11.1832085
  46.9282568  60.9456621  -3.7867625  46.3111738  60.2203449  -3.8834572
  46.4599056  61.7065981  -4.1300550  40.5949921  58.7188176  10.9531576
  41.3049539  58.0781368  10.9118195  40.5519229  58.9701071  11.8757757
  48.5836699  65.6555529  13.8738156  48.5249246  64.9714749  13.2068739
  48.9856218  66.3974519  13.4218782  39.3078855  55.7053394  12.7727216
  38.7716212  55.2544132  13.4248812  38.7195563  55.8399302  12.0297680
  37.6027398  72.4717443   6.6671875  37.8423996  73.1035967   7.3450893
  36.7596595  72.1205483   6.9537234  48.5854107  63.6195113  12.1052135
  47.6980885  63.2821035  12.2278534  49.1552658  62.8878144  12.3420901
  30.2383254  59.9519205   5.4295187  30.9254294  59.6380935   4.8416202
  30.0831382  60.8560569   5.1562438  35.0417976  54.8409401   9.8580210
  34.9576165  54.2335071   9.1230620  34.2200682  55.3318420   9.8589707
  42.1155260  68.2796565   9.0713379  42.0425432  69.0851537   9.5832683
  41.6732653  68.4788531   8.2461400  41.9045040  67.5168335   2.5816200
  41.1212562  68.0590016   2.6754425  42.6037785  68.0342315   2.9810441
  45.2141690  53.3262965   5.2250405  45.7110389  52.5732927   4.9051476
  44.4428671  53.3627281   4.6593615  53.0671447  59.0303330   6.8668697
  53.0561323  59.9128046   6.4962630  52.1988827  58.6774881   6.6723234
  44.5753944  68.1783399  11.2271537  45.2881916  68.8130864  11.1547439
  44.0843972  68.2747265  10.4111539  46.2971470  62.0834652   2.7988829
  45.3627749  62.2036115   2.6293533  46.4748139  61.1807119   2.5348839
  41.7976659  55.4680348   4.9522090  41.4274446  54.9151388   5.6402996
  42.2935751  54.8638481   4.3997090  49.6844022  57.9251971   3.3338863
  50.1504474  58.7579963   3.2599166  50.1351522  57.4596953   4.0384121
  39.6265857  65.9277843  12.0477108  40.3275317  66.5614326  12.2006502
  39.1560972  66.2692574  11.2872747  47.7520253  64.2695793   0.3325015
  48.0280097  64.1552387   1.2418889  46.8824752  63.8713277   0.2937188
  47.6560685  50.2932558   7.3729764  46.7423764  50.5236785   7.5411971
  48.0853786  50.3771002   8.2243797  47.4267143  58.4822450   9.8729658
  46.7738593  58.7298358   9.2182111  47.8047523  57.6686588   9.5392136
  44.3874317  68.5182143   3.9757829  44.5696711  67.7003799   4.4385581
  45.2107303  68.7349836   3.5382719  44.7216482  67.4450329   1.2372877
  45.2504249  66.9342783   0.6243039  44.9844702  67.1292859   2.1018410
  43.4754716  59.2242261  16.3595695  42.7995353  59.1236391  17.0298071
  44.2982350  59.0681475  16.8231693  35.2233575  65.4614198   8.9808211
  35.8087012  64.7157886   9.1136115  35.0258414  65.7718155   9.8644875
  38.0772230  68.4965445   3.9970653  37.4082606  68.9811573   3.5134693
  37.9385100  68.7434666   4.9114032  29.8151230  58.0319798   7.7012654
  29.8535329  57.4983389   8.4949772  29.3091523  57.5055004   7.0823631
  42.2177499  70.5309189  10.5953311  42.7695807  70.6940810  11.3602397
  42.5583692  71.1213627   9.9233336  37.1941992  52.8784339  11.1975196
  37.2583319  53.7399169  10.7852594  37.1309112  52.2658340  10.4647555
  36.6694265  54.9507471  14.8448230  37.2966304  54.5684548  15.4585755
  35.8122184  54.7321673  15.2103923  47.0688373  65.3570446  16.4501966
  47.6128277  65.9700405  15.9556921  46.4875218  65.9150025  16.9668979
  33.4459807  56.7583900   0.7766585  33.7413249  55.8494579   0.7233639
  32.5447843  56.7371640   0.4547588  45.3545886  68.4791164   7.5816994
  45.2297026  67.6780904   7.0727939  46.0124977  68.9737358   7.0930964
  36.9754054  54.8339897   6.7594134  36.2540640  55.4475865   6.6201607
  37.7647310  55.3697662   6.6810780  47.4180795  66.2800184   9.2096544
  46.4711130  66.1605536   9.1374870  47.7663568  65.3922682   9.2922805
  39.7780368  52.1694323  13.0334786  40.3014770  52.4156620  13.7961095
  39.5592701  53.0014358  12.6137923  35.1747649  54.4397998   0.9005910
  34.8460355  53.5595377   0.7181016  35.5287020  54.3845667   1.7882300
  44.4227228  66.0752901   5.4100896  44.2752190  65.1469608   5.5908466
  45.2480721  66.0972991   4.9257971  38.2889472  54.7270968   1.2681388
  38.6285545  55.2556889   0.5459996  38.7361593  55.0651374   2.0439955
  48.0261350  66.8981459   6.4965769  48.9507897  66.6924321   6.3590220
  47.8576653  66.6497861   7.4055110  40.9832913  53.1108018  10.7184456
  40.6429733  52.3115831  11.1205136  40.2771919  53.4109729  10.1461289
  41.6349385  50.1957331   9.1711779  42.4575454  49.7217809   9.0490669
  41.8787448  50.9747815   9.6710465  40.2757619  53.2245589  -0.5325319
  40.9965982  53.6026842  -1.0361602  39.6522923  53.9434466  -0.4290341
  44.4188742  53.9290738   0.4033013  44.6352357  54.8115376   0.1021841
  43.9382809  53.5376952  -0.3261345  39.1587964  56.8876451   6.9803758
  39.0132544  57.2016755   7.8728039  38.6813167  57.5061352   6.4274656
  41.0184346  53.8778999   7.0284647  41.0045915  52.9820093   6.6916945
  41.7356775  53.8849663   7.6622933  42.8710477  54.3116340   9.0737775
  42.6128255  55.2333410   9.0722105  42.3395518  53.9146774   9.7638239
  47.8156666  67.4167127   1.8527860  47.9893543  66.8513549   1.1001713
  48.3085557  68.2168022   1.6707350  33.6333626  59.4281796   9.9191419
  33.0887094  60.2041604  10.0511693  34.5112976  59.7752600   9.7610540
  40.4221242  52.7593380   2.2972217  40.5437154  51.8310026   2.4963105
  40.1323285  52.7732066   1.3850533  43.2912433  50.4448290   5.4338937
  43.3134130  50.5087623   4.4790917  43.7080492  49.6052799   5.6279443
  53.6696057  60.1803550   3.4718160  54.1127203  59.4310875   3.0737283
  52.7922567  60.1713686   3.0891892  48.8031838  66.7333891  -1.0475242
  49.4982743  67.3540584  -0.8287927  49.1454989  65.8829242  -0.7722864
  34.4199648  58.5551692  12.8121576  33.6781384  58.7034328  13.3986206
  34.0992392  58.8159958  11.9488325  50.7023262  64.1833597   0.4812089
  51.2274586  64.5220869  -0.2438591  50.6145614  63.2480612   0.2975224
  42.3643310  68.0967670  12.6101966  42.6730437  67.8516817  13.4824665
  43.1618792  68.3014309  12.1220836  42.3863922  70.2505580   4.8407342
  41.9468913  69.7581959   5.5340199  43.1372039  69.7078548   4.5999418
  34.8656261  66.4417121   4.8431970  35.6914281  66.1420893   4.4630614
  34.5150313  65.6724743   5.2921759  39.8337794  65.7943589   6.9129644
  39.2117804  65.1314294   6.6131872  40.5042661  65.8204721   6.2303292
  33.0664866  64.3603447   5.8020904  32.2296775  63.9325622   5.6204905
  33.0388512  64.5535891   6.7391695  39.9062322  54.2725377  16.5062150
  39.9550477  55.1487500  16.1239920  40.4484836  53.7302770  15.9333793
  50.3917168  64.8166500  15.7863287  49.6012711  64.7990639  15.2467787
  50.1550522  65.3554794  16.5412324  50.5115043  61.6658967  13.0996016
  50.5613048  61.5008974  14.0411538  50.4028966  60.7986226  12.7093896
  39.3951301  64.3447512   0.3888105  39.5439422  65.0282977  -0.2645223
  40.2017745  64.3252603   0.9037560  47.8018805  57.6489895  14.4155322
  48.7028668  57.5096360  14.1239320  47.8766780  57.8144350  15.3553500
  42.1361610  55.0256750  13.2608509  41.2664920  55.3190316  12.9891097
  42.3721091  55.6097195  13.9815772  52.0133240  64.0855908  13.3438037
  51.7218048  64.4485889  14.1801498  51.4005371  63.3722917  13.1651369
  53.2128922  61.6508788   5.8640607  54.0475813  62.0898592   6.0278168
  53.3488051  61.1747441   5.0448853  50.2620428  59.2088523  11.8118095
  50.7374549  59.4016169  11.0036947  49.3385993  59.2647709  11.5661479
  37.1503934  60.3712690   1.3949173  36.9049976  59.4675020   1.5929384
  37.3199849  60.3729841   0.4528651  44.8400644  51.2436366  10.7773929
  45.3582588  51.9797393  10.4520418  44.4855777  51.5500360  11.6120688
  45.0913238  47.6636649   6.2974826  45.3714992  46.9959838   6.9235252
  45.8763845  47.8565745   5.7849490  42.8946707  66.8395643  -2.1400148
  42.3220674  67.4585830  -2.5929676  43.4679501  67.3895005  -1.6060226
  48.9622097  56.0854283  10.0446401  49.9139520  56.1852381  10.0658625
  48.7925547  55.2932552  10.5544485  46.9836476  53.1709866  10.2305802
  46.3886408  53.4514879   9.5352290  46.6986173  53.6603767  11.0022543
  46.1143967  67.1232793  -1.0091566  47.0474640  67.0578355  -0.8058690
  46.0267180  67.9589060  -1.4677033  48.7431983  66.4398663  -4.0487618
  48.6645615  66.1058527  -3.1551860  49.5641650  66.9320431  -4.0496146
  51.4410175  59.3060403   9.1588700  51.4086495  58.3676403   9.3448384
  52.0510798  59.3844439   8.4254525  43.2793505  58.1756456  -4.7984096
  44.2252610  58.0462664  -4.7295677  42.9007750  57.4371118  -4.3214667
  51.5904663  56.0971446   9.2046984  51.0743712  55.3129903   9.0176912
  52.4744612  55.7690163   9.3693503  49.2515390  49.8412462   5.1642796
  49.0540211  49.5327550   6.0486128  49.8615096  50.5674101   5.2940726
  57.2586724  60.3676410   8.2994737  57.9890113  60.1061698   8.8602441
  56.6493670  59.6305131   8.3396805  55.3402022  58.5084272   8.8969188
  54.6135185  58.3740237   8.2885680  54.9249308  58.8161101   9.7025906
  43.1632198  62.2274202  16.6616561  44.0835207  62.4052801  16.8556608
  43.1281781  61.2830247  16.5096261  32.3814363  57.4212795   5.5869836
  32.0617147  56.5678104   5.2944210  31.8347791  57.6361374   6.3427803
  36.1594270  60.1375236   9.3039343  36.3780280  61.0692344   9.3227376
  36.5720044  59.7783211  10.0894146  43.0798488  50.6443322   1.2915031
  42.2699217  50.2990407   1.6670277  43.7682905  50.3350865   1.8802643
  45.0089037  49.7221369   2.9139328  45.5620075  50.1416822   3.5729351
  45.2459123  48.7957117   2.9562284  41.0322136  55.7108442  18.6942092
  40.9318863  56.6602799  18.6254183  40.8143678  55.3826681  17.8218162
  32.2502623  61.0415707   7.5562958  31.5566094  60.6269660   7.0432912
  32.9975614  61.0836243   6.9596377  48.3867844  51.8321894   2.4217992
  47.8066513  52.4906698   2.0396044  48.1203776  51.0099238   2.0105409
  46.8371410  51.2326951   4.6239312  47.3371188  51.3443486   3.8153631
  47.4807018  50.9288004   5.2640121  40.8953406  59.1405581  17.5107153
  40.4120488  59.9405941  17.7171042  40.9814345  59.1513526  16.5574597
  34.1639365  60.9733961   5.4328973  34.1410054  61.0721648   4.4810856
  34.4740002  61.8199112   5.7546139  36.8226743  63.0310116   9.5475587
  37.7769997  62.9994058   9.4805519  36.6239267  62.5700739  10.3625813
  37.4126125  61.6011232  12.1146385  38.2319014  62.0955310  12.1381222
  37.6862933  60.6843200  12.0863952  47.1692722  53.9921984   1.4774340
  46.2818577  54.2771635   1.2594535  47.5846711  53.8315747   0.6301617
  50.5207258  54.0168505   5.1928679  51.2967648  54.5064958   5.4653296
  49.7955392  54.4426559   5.6500549  52.9579816  54.7296124   6.2502620
  53.5524307  54.4891860   5.5395928  53.0306400  54.0103255   6.8776156
  35.1776972  68.5729735   6.5645785  35.0431440  67.8130136   5.9983783
  34.7609034  69.2970635   6.0974574  46.3135935  63.7566659  -4.4277640
  47.0171785  63.9616661  -3.8119984  45.5898584  64.3243421  -4.1628556
  47.1433745  59.5076520   1.6924630  47.0868947  59.9645071   0.8532263
  47.6962088  58.7467205   1.5147473  50.9538551  55.2966252   2.5174750
  50.6975486  54.8962888   3.3482958  50.3291419  56.0110046   2.3924889
  55.2650889  58.0362325   5.0246041  54.7050447  58.1055514   5.7977603
  54.6594393  57.8603310   4.3045537  38.3346098  69.4699052   6.7764228
  38.2178482  70.4144485   6.6742918  37.5138544  69.1672614   7.1650027
  48.2222633  64.1949188  -2.3779180  49.0568236  63.7630386  -2.5601705
  48.0606975  64.0231202  -1.4502285  47.8768525  60.6981301  -1.0122840
  47.8217329  60.5325573  -1.9534396  47.2514580  61.4057334  -0.8560651
  32.6661040  55.9349366  12.8138582  33.3119903  55.4248320  13.3025807
  32.4578191  56.6718047  13.3882007  45.1914432  63.0030213  18.3130722
  46.0605592  63.1770865  17.9517357  44.7121183  63.8224630  18.1906452
  39.3600612  70.1227314   9.9920156  40.2627859  70.1550924  10.3086651
  39.1337982  69.1927765  10.0066492  41.1154214  68.8758301   6.6530235
  40.1649845  68.8760162   6.5394607  41.4186700  68.1291035   6.1366269
  45.0016770  46.7932187   2.8208415  44.2349165  46.2390674   2.9665097
  45.4127475  46.8654056   3.6822566  37.0058531  53.0816983  16.9113596
  37.8689992  52.7253788  17.1216921  36.4323941  52.7430878  17.5989000
  56.8506908  74.7118839   7.7175997  57.4885318  74.5925586   7.0139337
  56.7327751  75.6599683   7.7763949  53.6596614  74.6646267   7.6537522
  53.3215125  74.5487332   6.7658057  54.5286382  74.2637432   7.6338528
  49.5183430  76.5181744   3.6434413  48.9548295  76.4271681   2.8750700
  49.4035825  75.6981648   4.1236905  54.1416397  75.8181119  13.6123727
  54.1305038  75.4233917  12.7404231  54.3037036  75.0847192  14.2057499
  47.0647862  78.0132935   6.4818633  47.8569153  77.6723760   6.0664932
  47.3044512  78.1227910   7.4020786  55.0982988  80.1852711  -1.0451122
  54.4470968  80.7706792  -1.4317109  55.8927351  80.7158906  -0.9856085
  49.0238615  77.2741848  -0.6463988  49.7969491  76.7270836  -0.7851112
  49.3764014  78.1386098  -0.4349527  50.8623658  78.6018231  12.5602911
  50.5713524  79.5063862  12.4449577  51.4980642  78.6434758  13.2746981
  51.7879865  75.9795079   9.1504271  52.3843437  75.7551102   8.4361234
  51.8454836  75.2379825   9.7529719  51.3604893  73.4334515  -3.0145538
  51.6130414  72.9116036  -3.7762075  50.4229452  73.2700660  -2.9118855
  56.4048176  72.4370293   4.7929205  57.1911265  72.0189716   4.4419622
  56.6686880  73.3416385   4.9610853  56.5758253  77.8743143  -0.5082138
  55.9404086  77.9477770   0.2038766  56.2455660  78.4636742  -1.1863059
  61.8056603  72.3745526   5.6962184  62.5381775  71.8044743   5.9300013
  61.0495959  71.9867127   6.1368689  51.0801182  75.3362621  -0.8121163
  50.9637440  74.6607524  -0.1440079  51.1903442  74.8494994  -1.6289010
  53.4232723  74.7972768   2.8925526  53.0590930  74.2703389   3.6038447
  54.2799839  74.4071237   2.7192011  59.3282024  66.0867100  10.1556792
  58.9965348  66.9562511   9.9318007  58.7327637  65.7703384  10.8350822
  53.0638210  69.8262667  -2.1113126  53.2312612  70.6942904  -1.7442654
  52.8735379  69.9889949  -3.0351836  55.8213543  78.2879646   9.5552705
  55.5214266  79.1904685   9.4468512  55.4764603  78.0211829  10.4073858
  49.2726025  74.7393443   5.5889409  48.3476521  74.6069657   5.7967101
  49.5210438  75.5187662   6.0859352  59.2210687  70.8062186   7.2350142
  58.3127564  70.7377595   6.9408903  59.1698283  71.2834131   8.0631968
  53.0427431  72.2820325  -1.1266459  52.9227056  72.7277376  -0.2880978
  52.3480019  72.6305642  -1.6852921  46.6334836  74.3826717   6.4233198
  46.7627217  74.6361196   7.3372610  45.9532287  74.9754425   6.1037853
  50.8034323  85.0523967   2.5223673  50.7258353  86.0031792   2.6012153
  50.1995967  84.7069839   3.1798599  53.2951553  72.2251832  15.1785039
  52.5184887  72.7845752  15.1687904  53.9342116  72.7108615  15.6999910
  61.0872333  69.0078625   9.0128016  60.4446714  69.3011158   8.3667811
  60.5827262  68.8931545   9.8181213  58.7412497  72.7541798  -0.2986125
  59.6530353  72.9869185  -0.4738427  58.2322144  73.3378842  -0.8611046
  57.0253265  77.1766426  13.3375168  57.4336621  76.7348836  12.5929800
  56.3030526  76.6019053  13.5909361  53.3784335  72.1139033  10.7108725
  54.2245530  72.5378446  10.8543374  53.3182972  71.4572657  11.4047288
  57.3482079  77.7367616   7.0927457  56.7190942  77.9013331   6.3903525
  56.9607741  78.1509226   7.8638421  61.2271311  78.6722054   4.4471821
  60.5422349  79.0520956   3.8968854  61.3115161  79.2817381   5.1803768
  56.5283780  69.7743401  12.3689899  56.2844712  70.5285461  11.8324174
  56.8043711  70.1528749  13.2037146  58.4822243  76.3182013  11.0467164
  58.6939138  76.9613773  10.3701545  58.4351991  75.4844330  10.5789094
  56.0848472  68.9299834   7.9503736  55.2232951  69.2281088   8.2420474
  56.1110906  69.1470233   7.0184769  52.9010041  77.4742025   4.3577542
  53.3648387  77.7529728   3.5682164  52.6366839  76.5725469   4.1750633
  49.7934122  77.0213506   7.2957305  50.3635479  77.4500774   6.6574790
  50.3842234  76.7396091   7.9941491  51.8378927  73.5965177   1.1667107
  52.5402971  74.0486221   1.6341033  51.5059556  72.9548996   1.7947000
  50.2859289  72.1876934  15.5418316  49.6557949  72.8693214  15.7753713
  50.1795377  72.0760015  14.5971455  45.5804261  71.8548730   6.4684241
  44.7903315  72.1106258   5.9924351  46.0715509  72.6697067   6.5736281
  59.5968071  79.1953969   9.2189521  60.4185514  78.7934156   8.9372203
  59.5930474  79.0922203  10.1705637  47.5319007  72.2193309   3.4267717
  46.7350170  72.3312003   3.9451213  47.3044599  72.5579961   2.5608608
  53.3624674  78.7438012  11.3750232  53.4269107  79.2058419  12.2108404
  52.6535598  78.1135377  11.5032542  43.8641964  72.1079220   8.8999231
  44.1150003  72.9926230   9.1656807  44.4001513  71.9283822   8.1274323
  67.6874064  75.5392717   5.5674493  66.9337772  74.9700115   5.4118497
  67.8221605  75.5055382   6.5145128  53.0772692  80.4106120   1.2429212
  52.9418367  81.2557655   1.6714060  53.6182504  80.6125397   0.4795146
  46.5302089  77.9281558   1.8157137  47.0426610  78.7224808   1.9662702
  47.1824802  77.2307848   1.7490739  48.3396974  81.0447314   3.8979891
  48.5163602  81.9665279   3.7100874  49.1353807  80.7305733   4.3274270
  52.4807992  67.9055578  15.4963824  53.2217706  68.5062732  15.4168287
  52.7125915  67.1633216  14.9381867  54.7041168  81.0329686  15.3729554
  54.2605022  80.2466065  15.0550459  55.3658382  81.2208837  14.7073445
  49.4628289  82.5625488   9.8990233  50.0135715  82.4342551   9.1267227
  48.6239765  82.8620377   9.5485126  56.8022406  81.3132486  13.4010956
  56.7840882  82.1341367  12.9091225  57.7242326  81.1886561  13.6261097
  53.2595460  78.8276615  14.2434464  53.7923797  78.0664904  14.0133772
  52.7309542  78.5350267  14.9858618  56.4265155  63.9336681   9.7728106
  56.0829425  64.8238323   9.6967216  56.7944118  63.7438339   8.9097691
  44.4951006  76.2570212   2.5916708  45.3326228  76.6667220   2.3750416
  44.6729274  75.3169654   2.5616902  56.3915438  73.9245293  -1.7199459
  55.8762062  74.6949897  -1.4811072  56.1192747  73.2510429  -1.0966398
  53.9762549  68.7694993   3.3385779  53.1204146  68.3801844   3.1591418
  54.3889501  68.8486954   2.4785565  55.5061696  66.3041337   7.7377339
  55.0026491  66.2671472   6.9245144  55.7992303  67.2134079   7.7973996
  51.7504582  66.3880066   6.7443521  52.6157578  66.1922875   6.3849410
  51.8182091  66.1590418   7.6712877  61.3649712  76.6777647   0.2153714
  60.5879155  76.3388807  -0.2291124  62.0441193  76.6830270  -0.4591321
  56.1801741  71.7972385   0.1060322  55.8751877  72.1118534   0.9570465
  57.1332183  71.8753805   0.1487655  54.6248173  77.9562608   1.7553276
  54.0969535  77.2215368   1.4426513  54.1235676  78.7337284   1.5093244
  59.6041019  76.1511628   6.8720322  58.9464694  76.8410890   6.9600451
  60.4081418  76.5408060   7.2154309  49.3566901  68.6182274   4.1159888
  49.9310653  68.3957456   3.3833080  49.9437883  68.6870969   4.8688489
  58.4146478  74.5056001   4.9224264  58.9278360  75.1385993   5.4245974
  59.0647702  73.9057197   4.5567624  49.6836488  70.6486735  -1.8644227
  48.8473800  70.9861422  -1.5434952  49.5441258  70.5135715  -2.8017090
  51.6589568  65.4923523   2.8434957  51.0053981  65.1772540   2.2191572
  51.6170043  64.8699264   3.5694780  52.7700773  75.7742818  -5.2411751
  51.8627835  75.5432072  -5.0420602  53.2671805  74.9780437  -5.0537769
  54.8927309  71.9805457   7.1682605  53.9749870  72.2020404   7.0104293
  55.3087452  72.0551767   6.3094312  55.6762357  73.3796872   2.2985285
  56.4234176  73.8918270   1.9892407  55.9453946  73.0580925   3.1589678
  53.9489007  75.8755413  -0.7187761  53.0400226  75.5914446  -0.6215291
  53.9784091  76.2954492  -1.5784454  59.1808274  79.4862003   3.0503407
  58.7270601  78.6452912   3.1068597  58.5502241  80.1223401   3.3878187
  58.1241194  70.4153989   4.2804074  57.3863951  69.9031375   4.6114317
  58.3767967  69.9754370   3.4687351  57.6241213  81.3238499   3.9853225
  57.9164188  81.8843556   3.2665590  58.1339834  81.6167060   4.7406384
  58.2252821  63.1930241   4.8745843  58.5311698  62.3327604   4.5871758
  58.9505426  63.7847861   4.6744837  44.5177177  73.5960927   3.2627441
  44.3201577  73.0030288   2.5378508  43.9623841  73.2913137   3.9803380
  52.4973901  73.4884034   5.3822034  52.5522511  72.5357870   5.3064511
  51.6865103  73.6443473   5.8663333  53.6465095  77.4164157  -3.3799682
  53.2084525  76.7000016  -3.8394045  54.3875535  77.6440272  -3.9414591
  50.4366261  72.1061093   3.1412413  49.6234126  72.4055264   3.5477605
  50.9325255  71.7116782   3.8586896  52.5874839  82.1018850   5.0746678
  52.5451017  82.3279697   4.1455210  53.5037537  81.8682225   5.2232479
  56.0340472  72.5702918  11.9727307  56.3889860  72.7974391  12.8321773
  56.6812604  72.9021295  11.3504563  61.7638209  75.6921354   2.6776636
  61.6256108  75.8822950   1.7497825  61.4074428  76.4540737   3.1344687
  49.9280336  69.6779449   8.7573648  50.5679715  69.5368208   8.0596612
  49.0957866  69.3913962   8.3812250  61.7907589  77.7597881   7.6887908
  62.2244096  77.6673170   8.5370962  62.5039170  77.7355381   7.0507924
  50.7040639  78.9781879   4.8708641  51.4981238  78.4832199   4.6691216
  49.9932332  78.4499742   4.5076346  55.5235484  81.3599975   9.2221008
  55.5772506  81.9290911   9.9898724  54.6550265  81.5301860   8.8575045
  47.0123403  73.1224961   0.9468393  46.0820991  73.0609417   1.1638356
  47.1080875  72.6000914   0.1505035  46.9308952  69.6479774   3.5346635
  47.1915769  70.5625107   3.4255796  47.7526124  69.1804216   3.6843248
  48.4033877  71.0617531  10.7045460  49.0756931  70.8534893  10.0558109
  47.5763664  70.8639617  10.2650692  62.6523139  77.8021581  10.2220793
  62.8459029  78.7067392  10.4680068  62.5523757  77.3429001  11.0559378
  54.3059449  67.6879472  12.7211121  53.6587364  68.3869422  12.6275597
  55.0760465  68.1215616  13.0887369  57.7138247  77.9528324  15.7961674
  57.5623754  77.7238876  14.8791757  57.7042927  78.9098926  15.8093019
  54.4823584  75.5260237  10.7807940  55.4115644  75.6771397  10.6076908
  54.0614614  75.6144258   9.9256587  53.2811915  79.5510901   8.5506478
  53.1423001  79.1829686   9.4232416  52.4926512  80.0658541   8.3790436
  53.8760067  84.6519998  -0.1067986  54.0511823  84.1808041   0.7077637
  53.1892855  85.2785764   0.1213275  54.8317131  78.9292504   5.9395316
  54.4966963  78.8893274   6.8352966  54.3321076  78.2637220   5.4665726
  48.8061375  74.3360134  11.4647897  48.6681172  73.6040373  12.0659436
  49.7166298  74.2469034  11.1832085  51.4343675  74.0480093  10.9531576
  52.1443294  73.4073286  10.9118195  51.3912983  74.2992988  11.8757757
  59.4230454  80.9847447  13.8738156  59.3643000  80.3006667  13.2068739
  59.8249972  81.7266437  13.4218782  50.1472609  71.0345311  12.7727216
  49.6109966  70.5836050  13.4248812  49.5589318  71.1691220  12.0297680
  48.4421153  87.8009361   6.6671875  48.6817751  88.4327885   7.3450893
  47.5990349  87.4497401   6.9537234  49.5574868  70.4933963  -4.6646320
  48.6804334  70.3722763  -5.0284074  50.0332621  69.7020041  -4.9167432
  59.4247861  78.9487031  12.1052135  58.5374640  78.6112952  12.2278534
  59.9946412  78.2170062  12.3420901  41.0777008  75.2811122   5.4295187
  41.7648048  74.9672852   4.8416202  40.9225137  76.1852487   5.1562438
  45.8811730  70.1701319   9.8580210  45.7969919  69.5626989   9.1230620
  45.0594437  70.6610337   9.8589707  52.9549015  83.6088483   9.0713379
  52.8819186  84.4143455   9.5832683  52.5126408  83.8080449   8.2461400
  52.7438794  82.8460253   2.5816200  51.9606316  83.3881933   2.6754425
  53.4431539  83.3634233   2.9810441  56.0535444  68.6554883   5.2250405
  56.5504144  67.9024845   4.9051476  55.2822426  68.6919199   4.6593615
  63.9065202  74.3595248   6.8668697  63.8955078  75.2419963   6.4962630
  63.0382581  74.0066799   6.6723234  55.4147698  83.5075317  11.2271537
  56.1275670  84.1422782  11.1547439  54.9237727  83.6039183  10.4111539
  57.1365225  77.4126570   2.7988829  56.2021504  77.5328032   2.6293533
  57.3141893  76.5099036   2.5348839  52.6370413  70.7972265   4.9522090
  52.2668201  70.2443306   5.6402996  53.1329505  70.1930399   4.3997090
  60.5237776  73.2543889   3.3338863  60.9898229  74.0871881   3.2599166
  60.9745277  72.7888871   4.0384121  50.4659612  81.2569761  12.0477108
  51.1669071  81.8906243  12.2006502  49.9954727  81.5984492  11.2872747
  58.5914007  79.5987710   0.3325015  58.8673851  79.4844305   1.2418889
  57.7218506  79.2005195   0.2937188  58.4954439  65.6224476   7.3729764
  57.5817519  65.8528703   7.5411971  58.9247541  65.7062920   8.2243797
  58.2660898  73.8114368   9.8729658  57.6132348  74.0590275   9.2182111
  58.6441277  72.9978506   9.5392136  55.2268071  83.8474061   3.9757829
  55.4090466  83.0295717   4.4385581  56.0501057  84.0641753   3.5382719
  55.5610237  82.7742246   1.2372877  56.0898003  82.2634701   0.6243039
  55.8238457  82.4584776   2.1018410  46.0627330  80.7906116   8.9808211
  46.6480766  80.0449803   9.1136115  45.8652168  81.1010072   9.8644875
  48.9165985  83.8257363   3.9970653  48.2476360  84.3103491   3.5134693
  48.7778855  84.0726583   4.9114032  40.6544984  73.3611716   7.7012654
  40.6929084  72.8275306   8.4949772  40.1485277  72.8346921   7.0823631
  53.0571253  85.8601106  10.5953311  53.6089561  86.0232728  11.3602397
  53.3977447  86.4505544   9.9233336  48.0335747  68.2076256  11.1975196
  48.0977073  69.0691087  10.7852594  47.9702867  67.5950258  10.4647555
  57.9082128  80.6862364  16.4501966  58.4522032  81.2992322  15.9556921
  57.3268973  81.2441942  16.9668979  44.2853562  72.0875818   0.7766585
  44.5807003  71.1786496   0.7233639  43.3841598  72.0663557   0.4547588
  56.1939641  83.8083082   7.5816994  56.0690780  83.0072822   7.0727939
  56.8518732  84.3029275   7.0930964  47.8147809  70.1631814   6.7594134
  47.0934395  70.7767782   6.6201607  48.6041065  70.6989579   6.6810780
  58.2574549  81.6092102   9.2096544  57.3104885  81.4897453   9.1374870
  58.6057322  80.7214600   9.2922805  50.6174122  67.4986241  13.0334786
  51.1408524  67.7448538  13.7961095  50.3986456  68.3306276  12.6137923
  46.0141404  69.7689916   0.9005910  45.6854110  68.8887295   0.7181016
  46.3680774  69.7137584   1.7882300  55.2620982  81.4044818   5.4100896
  55.1145945  80.4761526   5.5908466  56.0874476  81.4264909   4.9257971
  49.1283227  70.0562885   1.2681388  49.4679299  70.5848807   0.5459996
  49.5755347  70.3943292   2.0439955  58.8655104  82.2273377   6.4965769
  59.7901652  82.0216238   6.3590220  58.6970408  81.9789778   7.4055110
  51.8226668  68.4399936  10.7184456  51.4823488  67.6407749  11.1205136
  51.1165674  68.7401647  10.1461289  52.4743139  65.5249249   9.1711779
  53.2969209  65.0509727   9.0490669  52.7181203  66.3039732   9.6710465
  51.1151374  68.5537507  -0.5325319  51.8359736  68.9318760  -1.0361602
  50.4916678  69.2726384  -0.4290341  55.2582497  69.2582656   0.4033013
  55.4746111  70.1407294   0.1021841  54.7776564  68.8668869  -0.3261345
  49.9981718  72.2168369   6.9803758  49.8526299  72.5308672   7.8728039
  49.5206922  72.8353269   6.4274656  51.8578101  69.2070917   7.0284647
  51.8439670  68.3112010   6.6916945  52.5750529  69.2141581   7.6622933
  53.7104232  69.6408257   9.0737775  53.4522010  70.5625328   9.0722105
  53.1789272  69.2438692   9.7638239  58.6550420  82.7459044   1.8527860
  58.8287298  82.1805467   1.1001713  59.1479312  83.5459939   1.6707350
  44.4727380  74.7573714   9.9191419  43.9280848  75.5333522  10.0511693
  45.3506730  75.1044518   9.7610540  51.2614997  68.0885297   2.2972217
  51.3830908  67.1601944   2.4963105  50.9717039  68.1023983   1.3850533
  54.1306187  65.7740208   5.4338937  54.1527884  65.8379541   4.4790917
  54.5474246  64.9344717   5.6279443  64.5089812  75.5095467   3.4718160
  64.9520958  74.7602793   3.0737283  63.6316322  75.5005604   3.0891892
  53.2257677  85.5797498   4.8407342  52.7862667  85.0873876   5.5340199
  53.9765794  85.0370465   4.5999418  45.7050016  81.7709039   4.8431970
  46.5308036  81.4712810   4.4630614  45.3544068  81.0016661   5.2921759
  50.6731549  81.1235507   6.9129644  50.0511558  80.4606212   6.6131872
  51.3436416  81.1496639   6.2303292  43.9058621  79.6895365   5.8020904
  43.0690529  79.2617539   5.6204905  43.8782266  79.8827808   6.7391695
  50.7456076  69.6017295  16.5062150  50.7944232  70.4779418  16.1239920
  51.2878591  69.0594688  15.9333793  61.2310922  80.1458418  15.7863287
  60.4406466  80.1282557  15.2467787  60.9944277  80.6846712  16.5412324
  61.3508797  76.9950884  13.0996016  61.4006802  76.8300892  14.0411538
  61.2422721  76.1278143  12.7093896  50.2345056  79.6739430   0.3888105
  50.3833176  80.3574895  -0.2645223  51.0411499  79.6544520   0.9037560
  58.6412560  72.9781812  14.4155322  59.5422422  72.8388277  14.1239320
  58.7160534  73.1436267  15.3553500  52.9755365  70.3548667  13.2608509
  52.1058674  70.6482233  12.9891097  53.2114845  70.9389112  13.9815772
  62.8526994  79.4147826  13.3438037  62.5611802  79.7777806  14.1801498
  62.2399125  78.7014834  13.1651369  64.0522676  76.9800706   5.8640607
  64.8869568  77.4190510   6.0278168  64.1881805  76.5039359   5.0448853
  61.1014182  74.5380441  11.8118095  61.5768304  74.7308087  11.0036947
  60.1779748  74.5939626  11.5661479  47.9897689  75.7004608   1.3949173
  47.7443731  74.7966938   1.5929384  48.1593603  75.7021758   0.4528651
  55.6794399  66.5728284  10.7773929  56.1976343  67.3089311  10.4520418
  55.3249532  66.8792277  11.6120688  47.2593336  71.4332965  -1.1064665
  46.5662581  71.5077320  -1.7624629  47.0145088  70.6693309  -0.5843148
  55.9306993  62.9928567   6.2974826  56.2108747  62.3251756   6.9235252
  56.7157600  63.1857662   5.7849490  59.8015851  71.4146201  10.0446401
  60.7533274  71.5144298  10.0658625  59.6319302  70.6224469  10.5544485
  57.8230231  68.5001784  10.2305802  57.2280163  68.7806797   9.5352290
  57.5379927  68.9895685  11.0022543  62.2803929  74.6352320   9.1588700
  62.2480249  73.6968321   9.3448384  62.8904553  74.7136357   8.4254525
  54.1187260  73.5048373  -4.7984096  55.0646365  73.3754581  -4.7295677
  53.7401505  72.7663035  -4.3214667  62.4298418  71.4263364   9.2046984
  61.9137466  70.6421820   9.0176912  63.3138366  71.0982080   9.3693503
  60.0909144  65.1704379   5.1642796  59.8933966  64.8619468   6.0486128
  60.7008850  65.8966018   5.2940726  68.0980479  75.6968327   8.2994737
  68.8283867  75.4353615   8.8602441  67.4887424  74.9597049   8.3396805
  66.1795776  73.8376190   8.8969188  65.4528940  73.7032155   8.2885680
  65.7643063  74.1453018   9.7025906  52.3030177  71.4298350  -4.8629210
  51.3961632  71.1331462  -4.7866497  52.5806158  71.1328168  -5.7294924
  43.2208117  72.7504713   5.5869836  42.9010902  71.8970021   5.2944210
  42.6741546  72.9653291   6.3427803  46.9988025  75.4667154   9.3039343
  47.2174035  76.3984262   9.3227376  47.4113799  75.1075129  10.0894146
  53.9192243  65.9735239   1.2915031  53.1092971  65.6282324   1.6670277
  54.6076660  65.6642783   1.8802643  55.8482791  65.0513286   2.9139328
  56.4013830  65.4708740   3.5729351  56.0852877  64.1249034   2.9562284
  51.8715890  71.0400360  18.6942092  51.7712617  71.9894717  18.6254183
  51.6537432  70.7118599  17.8218162  51.0728962  68.2885285  -4.7217231
  51.9348126  68.6140183  -4.4621414  51.2579306  67.5016781  -5.2344165
  43.0896377  76.3707625   7.5562958  42.3959849  75.9561577   7.0432912
  43.8369368  76.4128161   6.9596377  59.2261598  67.1613811   2.4217992
  58.6460267  67.8198615   2.0396044  58.9597531  66.3391156   2.0105409
  57.6765165  66.5618869   4.6239312  58.1764943  66.6735404   3.8153631
  58.3200772  66.2579922   5.2640121  45.0033120  76.3025878   5.4328973
  44.9803808  76.4013566   4.4810856  45.3133756  77.1491029   5.7546139
  47.6620498  78.3602033   9.5475587  48.6163751  78.3285976   9.4805519
  47.4633021  77.8992657  10.3625813  48.2519880  76.9303149  12.1146385
  49.0712769  77.4247228  12.1381222  48.5256688  76.0135118  12.0863952
  58.0086476  69.3213902   1.4774340  57.1212331  69.6063552   1.2594535
  58.4240465  69.1607665   0.6301617  61.3601012  69.3460423   5.1928679
  62.1361402  69.8356875   5.4653296  60.6349146  69.7718477   5.6500549
  63.7973571  70.0588042   6.2502620  64.3918062  69.8183778   5.5395928
  63.8700155  69.3395173   6.8776156  46.0170727  83.9021653   6.5645785
  45.8825195  83.1422054   5.9983783  45.6002789  84.6262553   6.0974574
  57.9827500  74.8368438   1.6924630  57.9262701  75.2936989   0.8532263
  58.5355842  74.0759122   1.5147473  61.7932306  70.6258170   2.5174750
  61.5369240  70.2254805   3.3482958  61.1685174  71.3401964   2.3924889
  66.1044644  73.3654243   5.0246041  65.5444202  73.4347432   5.7977603
  65.4988147  73.1895227   4.3045537  49.1739852  84.7990970   6.7764228
  49.0572237  85.7436402   6.6742918  48.3532299  84.4964531   7.1650027
  58.7162279  76.0273219  -1.0122840  58.6611083  75.8617490  -1.9534396
  58.0908334  76.7349252  -0.8560651  52.0258405  65.5281328  -1.4337522
  52.0137075  66.4723168  -1.2769251  52.9181827  65.3451473  -1.7278061
  50.1994367  85.4519232   9.9920156  51.1021613  85.4842842  10.3086651
  49.9731737  84.5219683  10.0066492  51.9547969  84.2050218   6.6530235
  51.0043600  84.2052080   6.5394607  52.2580455  83.4582953   6.1366269
  55.8410524  62.1224105   2.8208415  55.0742920  61.5682591   2.9665097
  56.2521229  62.1945973   3.6822566  64.4990368  89.9938185   7.6537522
  64.1608880  89.8779250   6.7658057  65.3680137  89.5929350   7.6338528
  64.9810151  91.1473037  13.6123727  64.9698792  90.7525835  12.7404231
  65.1430791  90.4139109  14.2057499  61.7017413  93.9310148  12.5602911
  61.4107279  94.8355779  12.4449577  62.3374397  93.9726676  13.2746981
  62.6273619  91.3086997   9.1504271  63.2237192  91.0843019   8.4361234
  62.6848591  90.5671742   9.7529719  70.1675778  81.4159018  10.1556792
  69.8359103  82.2854429   9.9318007  69.5721391  81.0995302  10.8350822
  60.1119779  90.0685361   5.5889409  59.1870276  89.9361575   5.7967101
  60.3604192  90.8479580   6.0859352  70.0604441  86.1354104   7.2350142
  69.1521319  86.0669513   6.9408903  70.0092037  86.6126049   8.0631968
  57.4728590  89.7118634   6.4233198  57.6020971  89.9653113   7.3372610
  56.7926041  90.3046342   6.1037853  64.1345307  87.5543750  15.1785039
  63.3578641  88.1137670  15.1687904  64.7735870  88.0400533  15.6999910
  71.9266088  84.3370542   9.0128016  71.2840468  84.6303076   8.3667811
  71.4221016  84.2223463   9.8181213  62.3891680  90.3629203  14.7403006
  63.1306364  90.9014247  14.4637830  61.6828665  90.9895492  14.8974558
  67.8647019  92.5058344  13.3375168  68.2730375  92.0640754  12.5929800
  67.1424281  91.9310971  13.5909361  64.2178089  87.4430950  10.7108725
  65.0639284  87.8670364  10.8543374  64.1576727  86.7864575  11.4047288
  67.3677535  85.1035319  12.3689899  67.1238466  85.8577379  11.8324174
  67.6437465  85.4820666  13.2037146  69.3215997  91.6473931  11.0467164
  69.5332893  92.2905691  10.3701545  69.2745746  90.8136248  10.5789094
  66.9242226  84.2591752   7.9503736  66.0626705  84.5573005   8.2420474
  66.9504661  84.4762151   7.0184769  61.1253043  87.5168851  15.5418316
  60.4951704  88.1985132  15.7753713  61.0189131  87.4051933  14.5971455
  56.4198016  87.1840647   6.4684241  55.6297070  87.4398176   5.9924351
  56.9109263  87.9988985   6.5736281  64.2018429  94.0729930  11.3750232
  64.2662861  94.5350337  12.2108404  63.4929353  93.4427295  11.5032542
  54.7035719  87.4371138   8.8999231  54.9543757  88.3218148   9.1656807
  55.2395267  87.2575739   8.1274323  63.3201747  83.2347496  15.4963824
  64.0611460  83.8354649  15.4168287  63.5519670  82.4925134  14.9381867
  58.4643085  88.4203863  13.7742054  58.3496600  87.5189121  14.0749153
  57.6087603  88.6667560  13.4226870  65.5434923  96.3621604  15.3729554
  65.0998777  95.5757982  15.0550459  66.2052136  96.5500754  14.7073445
  67.6416161  96.6424404  13.4010956  67.6234636  97.4633285  12.9091225
  68.5636081  96.5178479  13.6261097  64.0989215  94.1568533  14.2434464
  64.6317552  93.3956821  14.0133772  63.5703296  93.8642185  14.9858618
  67.2658910  79.2628599   9.7728106  66.9223179  80.1530241   9.6967216
  67.6337873  79.0730257   8.9097691  66.3455450  81.6333254   7.7377339
  65.8420246  81.5963389   6.9245144  66.6386057  82.5425997   7.7973996
  62.5898336  81.7171984   6.7443521  63.4551333  81.5214793   6.3849410
  62.6575845  81.4882336   7.6712877  60.1960655  83.9474192   4.1159888
  60.7704407  83.7249373   3.3833080  60.7831638  84.0162886   4.8688489
  62.4983323  80.8215441   2.8434957  61.8447735  80.5064458   2.2191572
  62.4563797  80.1991181   3.5694780  65.7321063  87.3097374   7.1682605
  64.8143625  87.5312321   7.0104293  66.1481207  87.3843685   6.3094312
  69.0646576  78.5222158   4.8745843  69.3705452  77.6619522   4.5871758
  69.7899180  79.1139778   4.6744837  55.3570932  88.9252845   3.2627441
  55.1595331  88.3322206   2.5378508  54.8017596  88.6205055   3.9803380
  66.8734227  87.8994836  11.9727307  67.2283615  88.1266309  12.8321773
  67.5206358  88.2313212  11.3504563  60.7674090  85.0071367   8.7573648
  61.4073469  84.8660126   8.0596612  59.9351621  84.7205880   8.3812250
  57.7702706  84.9771692   3.5346635  58.0309524  85.8917025   3.4255796
  58.5919879  84.5096134   3.6843248  59.2427632  86.3909449  10.7045460
  59.9150685  86.1826811  10.0558109  58.4157418  86.1931535  10.2650692
  65.1453204  83.0171390  12.7211121  64.4981119  83.7161339  12.6275597
  65.9154219  83.4507534  13.0887369  68.5532002  93.2820242  15.7961674
  68.4017508  93.0530794  14.8791757  68.5436681  94.2390843  15.8093019
  65.3217338  90.8552155  10.7807940  66.2509398  91.0063314  10.6076908
  64.9008368  90.9436175   9.9256587  59.6455129  89.6652052  11.4647897
  59.5074927  88.9332291  12.0659436  60.5560052  89.5760952  11.1832085
  62.2737430  89.3772011  10.9531576  62.9837048  88.7365203  10.9118195
  62.2306738  89.6284906  11.8757757  60.9866364  86.3637229  12.7727216
  60.4503721  85.9127967  13.4248812  60.3983072  86.4983138  12.0297680
  70.2641616  94.2778948  12.1052135  69.3768394  93.9404870  12.2278534
  70.8340167  93.5461980  12.3420901  51.9170763  90.6103040   5.4295187
  52.6041803  90.2964770   4.8416202  51.7618891  91.5144405   5.1562438
  56.7205485  85.4993237   9.8580210  56.6363674  84.8918906   9.1230620
  55.8988191  85.9902255   9.8589707  66.8929199  83.9846800   5.2250405
  67.3897898  83.2316763   4.9051476  66.1216180  84.0211117   4.6593615
  63.4764167  86.1264183   4.9522090  63.1061955  85.5735224   5.6402996
  63.9723260  85.5222317   4.3997090  61.3053366  96.5861678  12.0477108
  62.0062826  97.2198161  12.2006502  60.8348481  96.9276410  11.2872747
  69.3348194  80.9516394   7.3729764  68.4211273  81.1820621   7.5411971
  69.7641295  81.0354838   8.2243797  69.1054652  89.1406286   9.8729658
  68.4526102  89.3882193   9.2182111  69.4835032  88.3270424   9.5392136
  65.1542225  89.8826097  16.3595695  64.4782862  89.7820226  17.0298071
  65.9769859  89.7265310  16.8231693  56.9021084  96.1198033   8.9808211
  57.4874521  95.3741721   9.1136115  56.7045923  96.4301990   9.8644875
  51.4938739  88.6903633   7.7012654  51.5322838  88.1567224   8.4949772
  50.9879032  88.1638839   7.0823631  58.8729501  83.5368174  11.1975196
  58.9370828  84.3983005  10.7852594  58.8096621  82.9242176  10.4647555
  58.3481774  85.6091306  14.8448230  58.9753813  85.2268384  15.4585755
  57.4909693  85.3905508  15.2103923  68.7475882  96.0154282  16.4501966
  69.2915786  96.6284240  15.9556921  68.1662727  96.5733860  16.9668979
  58.6541563  85.4923732   6.7594134  57.9328149  86.1059700   6.6201607
  59.4434819  86.0281497   6.6810780  61.4567877  82.8278159  13.0334786
  61.9802279  83.0740455  13.7961095  61.2380210  83.6598193  12.6137923
  62.6620422  83.7691854  10.7184456  62.3217242  82.9699667  11.1205136
  61.9559428  84.0693565  10.1461289  63.3136894  80.8541166   9.1711779
  64.1362963  80.3801644   9.0490669  63.5574957  81.6331650   9.6710465
  60.8375473  87.5460287   6.9803758  60.6920053  87.8600590   7.8728039
  60.3600676  88.1645187   6.4274656  62.6971855  84.5362835   7.0284647
  62.6833424  83.6403928   6.6916945  63.4144284  84.5433499   7.6622933
  64.5497986  84.9700175   9.0737775  64.2915764  85.8917246   9.0722105
  64.0183027  84.5730610   9.7638239  55.3121135  90.0865631   9.9191419
  54.7674603  90.8625439  10.0511693  56.1900485  90.4336436   9.7610540
  64.9699942  81.1032126   5.4338937  64.9921639  81.1671459   4.4790917
  65.3868001  80.2636634   5.6279443  56.0987157  89.2135528  12.8121576
  55.3568893  89.3618163  13.3986206  55.7779901  89.4743793  11.9488325
  61.5849831  84.9309212  16.5062150  61.6337986  85.8071335  16.1239920
  62.1272345  84.3886606  15.9333793  72.0704677  95.4750336  15.7863287
  71.2800220  95.4574475  15.2467787  71.8338031  96.0138629  16.5412324
  72.1902552  92.3242802  13.0996016  72.2400557  92.1592810  14.0411538
  72.0816475  91.4570061  12.7093896  69.4806314  88.3073730  14.4155322
  70.3816177  88.1680195  14.1239320  69.5554289  88.4728185  15.3553500
  63.8149119  85.6840585  13.2608509  62.9452429  85.9774151  12.9891097
  64.0508600  86.2681030  13.9815772  71.9407937  89.8672358  11.8118095
  72.4162058  90.0600005  11.0036947  71.0173502  89.9231544  11.5661479
  66.5188153  81.9020202  10.7773929  67.0370097  82.6381229  10.4520418
  66.1643286  82.2084195  11.6120688  66.7700747  78.3220484   6.2974826
  67.0502501  77.6543673   6.9235252  67.5551354  78.5149580   5.7849490
  70.6409606  86.7438118  10.0446401  71.5927029  86.8436216  10.0658625
  70.4713056  85.9516387  10.5544485  68.6623985  83.8293702  10.2305802
  68.0673917  84.1098714   9.5352290  68.3773682  84.3187602  11.0022543
  73.2692172  86.7555281   9.2046984  72.7531221  85.9713738   9.0176912
  74.1532121  86.4273998   9.3693503  70.9302899  80.4996297   5.1642796
  70.7327720  80.1911385   6.0486128  71.5402605  81.2257936   5.2940726
  64.8419707  92.8858037  16.6616561  65.7622716  93.0636636  16.8556608
  64.8069290  91.9414082  16.5096261  54.0601872  88.0796631   5.5869836
  53.7404656  87.2261939   5.2944210  53.5135300  88.2945209   6.3427803
  57.8381779  90.7959072   9.3039343  58.0567789  91.7276180   9.3227376
  58.2507553  90.4367046  10.0894146  66.6876546  80.3805204   2.9139328
  67.2407584  80.8000657   3.5729351  66.9246632  79.4540952   2.9562284
  62.7109645  86.3692278  18.6942092  62.6106372  87.3186635  18.6254183
  62.4931187  86.0410516  17.8218162  53.9290132  91.6999542   7.5562958
  53.2353603  91.2853495   7.0432912  54.6763123  91.7420079   6.9596377
  62.5740915  89.7989416  17.5107153  62.0907997  90.5989776  17.7171042
  62.6601854  89.8097361  16.5574597  55.8426874  91.6317796   5.4328973
  55.8197563  91.7305483   4.4810856  56.1527511  92.4782947   5.7546139
  58.5014252  93.6893951   9.5475587  59.4557506  93.6577893   9.4805519
  58.3026776  93.2284575  10.3625813  59.0913634  92.2595067  12.1146385
  59.9106523  92.7539146  12.1381222  59.3650442  91.3427035  12.0863952
  66.8701941  93.6614048  18.3130722  67.7393101  93.8354701  17.9517357
  66.3908692  94.4808465  18.1906452  66.6804279  77.4516022   2.8208415
  65.9136674  76.8974509   2.9665097  67.0914984  77.5237891   3.6822566
  71.2427540  97.1481535  17.9043567  70.8494486  96.5947733  18.5791212
  72.0593681  97.4592113  18.2950085  73.5503399 101.6984195  18.6942092
  73.4500126 102.6478552  18.6254183  73.3324941 101.3702434  17.8218162
  69.5239794  99.0692736  16.9113596  70.3871256  98.7129541  17.1216921
  68.9505205  98.7306631  17.5989000  47.0688375  42.3632569   3.1747272
  47.6128279  42.9762527   2.6802227  46.4875219  42.9212147   3.6914285
  50.3917169  41.8228623   2.5108594  49.6012713  41.8052762   1.9713093
  50.1550523  42.3616917   3.2657630  45.1914433  40.0092336   5.0376029
  46.0605593  40.1832988   4.6762664  44.7121185  40.8286753   4.9151758
  56.8506909  51.7180962  -5.5578696  57.4885319  51.5987709  -6.2615356
  56.7327752  52.6661806  -5.4990744  54.1416398  52.8243242   0.3369034
  54.1305039  52.4296040  -0.5350463  54.3037038  52.0909314   0.9302805
  50.8623659  55.6080353  -0.7151782  50.5713525  56.5125984  -0.8305116
  51.4980644  55.6496881  -0.0007713  51.7879866  52.9857202  -4.1250423
  52.3843438  52.7613224  -4.8393460  51.8454838  52.2441947  -3.5224975
  61.8056605  49.3807649  -7.5792510  62.5381776  48.8106866  -7.3454680
  61.0495960  48.9929249  -7.1386004  59.3282025  43.0929223  -3.1197901
  58.9965350  43.9624634  -3.3436686  58.7327638  42.7765507  -2.4403871
  55.8213544  55.2941769  -3.7201989  55.5214267  56.1966808  -3.8286181
  55.4764604  55.0273952  -2.8680836  50.8034324  62.0586089 -10.7531021
  50.7258354  63.0093914 -10.6742540  50.1995968  61.7131962 -10.0956095
  53.2951554  49.2313955   1.9030346  52.5184888  49.7907875   1.8933211
  53.9342117  49.7170738   2.4245216  61.0872335  46.0140747  -4.2626677
  60.4446715  46.3073281  -4.9086883  60.5827263  45.8993668  -3.4573481
  51.5497926  52.0399408   1.4648313  52.2912611  52.5784452   1.1883137
  50.8434912  52.6665697   1.6219865  57.0253266  54.1828548   0.0620475
  57.4336622  53.7410959  -0.6824893  56.3030527  53.6081176   0.3154667
  53.3784336  49.1201155  -2.5645968  54.2245531  49.5440569  -2.4211319
  53.3182974  48.4634780  -1.8707405  57.3482081  54.7429739  -6.1827237
  56.7190943  54.9075453  -6.8851169  56.9607743  55.1571349  -5.4116273
  61.2271312  55.6784177  -8.8282873  60.5422351  56.0583078  -9.3785839
  61.3115162  56.2879504  -8.0950925  56.5283781  46.7805524  -0.9064795
  56.2844713  47.5347584  -1.4430519  56.8043712  47.1590871  -0.0717548
  58.4822244  53.3244136  -2.2287529  58.6939139  53.9675896  -2.9053148
  58.4351992  52.4906452  -2.6965599  50.2859290  49.1939056   2.2663623
  49.6557951  49.8755337   2.4999020  50.1795378  49.0822138   1.3216761
  59.5968072  56.2016091  -4.0565172  60.4185516  55.7996279  -4.3382490
  59.5930475  56.0984326  -3.1049056  53.3624675  55.7500135  -1.9004461
  53.4269108  56.2120542  -1.0646290  52.6535599  55.1197500  -1.7722152
  67.6874065  52.5454840  -7.7080200  66.9337773  51.9762238  -7.8636196
  67.8221606  52.5117504  -6.7609566  49.5640033  43.4959822   4.6288874
  49.1706978  42.9426021   5.3036518  50.3806173  43.8070400   5.0195392
  52.4807994  44.9117701   2.2209131  53.2217707  45.5124854   2.1413593
  52.7125917  44.1695339   1.6627173  47.6249332  50.0974068   0.4987360
  47.5102847  49.1959326   0.7994459  46.7693850  50.3437765   0.1472177
  54.7041169  58.0391809   2.0974861  54.2605024  57.2528187   1.7795765
  55.3658383  58.2270959   1.4318752  49.4628291  59.5687610  -3.3764461
  50.0135716  59.4404674  -4.1487467  48.6239767  59.8682499  -3.7269568
  56.8022408  58.3194609   0.1256262  56.7840883  59.1403490  -0.3663469
  57.7242328  58.1948684   0.3506403  53.2595462  55.8338738   0.9679771
  53.7923799  55.0727026   0.7379079  52.7309543  55.5412390   1.7103925
  59.6041020  53.1573751  -6.4034371  58.9464695  53.8473012  -6.3154242
  60.4081420  53.5470183  -6.0600385  59.1808275  56.4924125 -10.2251287
  58.7270603  55.6515035 -10.1686096  58.5502242  57.1285524  -9.8876507
  57.6241215  58.3300622  -9.2901469  57.9164189  58.8905679 -10.0089103
  58.1339835  58.6229183  -8.5348309  52.5874840  59.1080973  -8.2008015
  52.5451019  59.3341819  -9.1299483  53.5037539  58.8744348  -8.0522214
  56.0340474  49.5765040  -1.3027386  56.3889861  49.8036514  -0.4432920
  56.6812605  49.9083417  -1.9250131  61.7907590  54.7660003  -5.5866786
  62.2244097  54.6735292  -4.7383732  62.5039171  54.7417504  -6.2246770
  55.5235485  58.3662097  -4.0533685  55.5772507  58.9353034  -3.2855969
  54.6550267  58.5363983  -4.4179648  62.6523140  54.8083704  -3.0533900
  62.8459030  55.7129515  -2.8074625  62.5523758  54.3491123  -2.2195315
  54.3059451  44.6941595  -0.5543573  53.6587366  45.3931544  -0.6479096
  55.0760466  45.1277739  -0.1867325  57.7138248  54.9590447   2.5206980
  57.5623755  54.7300998   1.6037064  57.7042928  55.9161048   2.5338325
  54.4823585  52.5322360  -2.4946753  55.4115645  52.6833519  -2.6677786
  54.0614615  52.6206380  -3.3498107  53.2811917  56.5573024  -4.7248216
  53.1423002  56.1891808  -3.8522277  52.4926513  57.0720663  -4.8964258
  54.8317132  55.9354627  -7.3359378  54.4966964  55.8955397  -6.4401728
  54.3321077  55.2699343  -7.8088968  48.8061376  51.3422257  -1.8106797
  48.6681174  50.6102495  -1.2095258  49.7166299  51.2531157  -2.0922609
  51.4343676  51.0542216  -2.3223117  52.1443295  50.4135408  -2.3636499
  51.3912985  51.3055111  -1.3996936  59.4230455  57.9909569   0.5983462
  59.3643001  57.3068789  -0.0685955  59.8249973  58.7328559   0.1464088
  50.1472610  48.0407434  -0.5027477  49.6109967  47.5898172   0.1494119
  49.5589319  48.1753343  -1.2457013  48.4421154  64.8071483  -6.6082819
  48.6817752  65.4390007  -5.9303800  47.5990350  64.4559523  -6.3217460
  59.4247862  55.9549153  -1.1702558  58.5374641  55.6175075  -1.0476159
  59.9946413  55.2232184  -0.9333793  52.9549016  60.6150606  -4.2041315
  52.8819187  61.4205577  -3.6922010  52.5126409  60.8142571  -5.0293293
  63.9065203  51.3657371  -6.4085996  63.8955079  52.2482086  -6.7792063
  63.0382582  51.0128921  -6.6031459  55.4147699  60.5137440  -2.0483156
  56.1275672  61.1484904  -2.1207255  54.9237728  60.6101306  -2.8643154
  50.4659613  58.2631883  -1.2277585  51.1669072  58.8968366  -1.0748191
  49.9954728  58.6046615  -1.9881946  58.2660899  50.8176491  -3.4025035
  57.6132349  51.0652398  -4.0572582  58.6441279  50.0040629  -3.7362558
  55.2268073  60.8536184  -9.2996865  55.4090467  60.0357840  -8.8369112
  56.0501059  61.0703876  -9.7371975  54.3148472  51.5596302   3.0841002
  53.6389109  51.4590431   3.7543377  55.1376106  51.4035515   3.5476999
  46.0627331  57.7968238  -4.2946483  46.6480768  57.0511926  -4.1618578
  45.8652169  58.1072195  -3.4109819  53.0571255  62.8663229  -2.6801382
  53.6089563  63.0294851  -1.9152297  53.3977448  63.4567667  -3.3521357
  47.5088020  47.2861511   1.5693537  48.1360059  46.9038589   2.1831061
  46.6515939  47.0675713   1.9349230  57.9082129  57.6924487   3.1747272
  58.4522033  58.3054445   2.6802227  57.3268974  58.2504065   3.6914285
  56.1939642  60.8145205  -5.6937700  56.0690781  60.0134944  -6.2026754
  56.8518733  61.3091398  -6.1823730  58.2574550  58.6154225  -4.0658150
  57.3104886  58.4959576  -4.1379823  58.6057323  57.7276723  -3.9831888
  50.6174124  44.5048364  -0.2419908  51.1408526  44.7510660   0.5206402
  50.3986457  45.3368398  -0.6616770  55.2620984  58.4106941  -7.8653797
  55.1145946  57.4823648  -7.6846227  56.0874477  58.4327032  -8.3496722
  58.8655105  59.2335500  -6.7788925  59.7901653  59.0278361  -6.9164474
  58.6970409  58.9851901  -5.8699583  58.6550422  59.7521167 -11.4226833
  58.8287299  59.1867590 -12.1752981  59.1479313  60.5522062 -11.6047343
  64.5089813  52.5157590  -9.8036534  64.9520959  51.7664915 -10.2017410
  63.6316323  52.5067726 -10.1862802  45.2593403  50.8905732  -0.4633118
  44.5175139  51.0388368   0.1231513  44.9386148  51.1513998  -1.3266368
  53.2037066  60.4321711  -0.6652728  53.5124192  60.1870857   0.2069972
  54.0012548  60.6368349  -1.1533857  53.2257678  62.5859620  -8.4347351
  52.7862668  62.0935999  -7.7414494  53.9765795  62.0432588  -8.6755276
  50.6731550  58.1297629  -6.3625049  50.0511560  57.4668334  -6.6622821
  51.3436417  58.1558761  -7.0451402  50.7456078  46.6079417   3.2307457
  50.7944233  47.4841540   2.8485226  51.2878592  46.0656810   2.6579100
  61.2310923  57.1520541   2.5108594  60.4406467  57.1344679   1.9713093
  60.9944278  57.6908834   3.2657630  61.3508798  54.0013007  -0.1758678
  61.4006803  53.8363014   0.7656845  61.2422722  53.1340266  -0.5660797
  58.6412561  49.9843935   1.1400629  59.5422424  49.8450400   0.8484627
  58.7160535  50.1498390   2.0798806  52.9755366  47.3610790  -0.0146185
  52.1058676  47.6544356  -0.2863596  53.2114847  47.9451235   0.7061079
  62.8526995  56.4209949   0.0683344  62.5611804  56.7839929   0.9046805
  62.2399127  55.7076957  -0.1103324  64.0522678  53.9862828  -7.4114086
  64.8869569  54.4252632  -7.2476526  64.1881806  53.5101482  -8.2305840
  61.1014184  51.5442563  -1.4636598  61.5768305  51.7370209  -2.2717747
  60.1779749  51.6001749  -1.7093215  59.8015853  48.4208323  -3.2308293
  60.7533275  48.5206421  -3.2096069  59.6319303  47.6286592  -2.7210208
  57.8230232  45.5063906  -3.0448892  57.2280164  45.7868919  -3.7402403
  57.5379929  45.9957807  -2.2732151  62.2803930  51.6414443  -4.1165993
  62.2480250  50.7030444  -3.9306309  62.8904554  51.7198480  -4.8500168
  62.4298419  48.4325486  -4.0707710  61.9137467  47.6483943  -4.2577781
  63.3138367  48.1044203  -3.9061190  68.0980480  52.7030450  -4.9759956
  68.8283869  52.4415738  -4.4152253  67.4887426  51.9659172  -4.9357888
  66.1795777  50.8438312  -4.3785505  65.4528941  50.7094277  -4.9869013
  65.7643064  51.1515141  -3.5728787  54.0025954  54.5628242   3.3861868
  54.9228963  54.7406841   3.5801915  53.9675537  53.6184287   3.2341567
  51.8715892  48.0462482   5.4187398  51.7712618  48.9956839   5.3499489
  51.6537434  47.7180721   4.5463468  51.7347162  51.4759621   4.2352460
  51.2514243  52.2759981   4.4416349  51.8208101  51.4867566   3.2819904
  47.6620499  55.3664156  -3.7279106  48.6163753  55.3348098  -3.7949175
  47.4633023  54.9054780  -2.9128880  48.2519881  53.9365272  -1.1608309
  49.0712770  54.4309351  -1.1373471  48.5256689  53.0197240  -1.1890741
  46.0170728  60.9083776  -6.7108909  45.8825196  60.1484176  -7.2770910
  45.6002790  61.6324675  -7.1780120  66.1044645  50.3716365  -8.2508652
  65.5444203  50.4409555  -7.4777090  65.4988148  50.1957350  -8.9709156
  49.1739854  61.8053093  -6.4990466  49.0572238  62.7498525  -6.6011776
  48.3532300  61.5026654  -6.1104667  56.0308188  55.3384253   5.0376029
  56.8999347  55.5124906   4.6762664  55.5514939  56.1578670   4.9151758
  50.1994368  62.4581354  -3.2834537  51.1021615  62.4904965  -2.9668042
  49.9731738  61.5281805  -3.2688202  51.9547970  61.2112341  -6.6224459
  51.0043601  61.2114203  -6.7360087  52.2580456  60.4645076  -7.1388424
  47.8452286  45.4171023   3.6358903  48.7083748  45.0607828   3.8462227
  47.2717697  45.0784918   4.3234307  64.4990370  67.0000307  -5.6217172
  64.1608881  66.8841372  -6.5096637  65.3680138  66.5991473  -5.6416166
  64.9810153  68.1535159   0.3369034  64.9698793  67.7587957  -0.5350463
  65.1430792  67.4201232   0.9302805  61.7017414  70.9372271  -0.7151782
  61.4107280  71.8417902  -0.8305116  62.3374398  70.9788799  -0.0007713
  62.6273621  68.3149120  -4.1250423  63.2237193  68.0905142  -4.8393460
  62.6848592  67.5733865  -3.5224975  70.1675779  58.4221141  -3.1197901
  69.8359104  59.2916551  -3.3436686  69.5721393  58.1057425  -2.4403871
  60.1119780  67.0747483  -7.6865284  59.1870277  66.9423697  -7.4787592
  60.3604194  67.8541703  -7.1895342  70.0604443  63.1416227  -6.0404551
  69.1521320  63.0731635  -6.3345790  70.0092038  63.6188172  -5.2122726
  57.4728591  66.7180757  -6.8521495  57.6020973  66.9715236  -5.9382083
  56.7926043  67.3108465  -7.1716840  64.1345308  64.5605872   1.9030346
  63.3578643  65.1199792   1.8933211  64.7735872  65.0462655   2.4245216
  71.9266089  61.3432665  -4.2626677  71.2840469  61.6365198  -4.9086883
  71.4221018  61.2285585  -3.4573481  62.3891681  67.3691326   1.4648313
  63.1306365  67.9076370   1.1883137  61.6828666  67.9957614   1.6219865
  67.8647020  69.5120466   0.0620475  68.2730376  69.0702877  -0.6824893
  67.1424282  68.9373094   0.3154667  64.2178090  64.4493073  -2.5645968
  65.0639286  64.8732486  -2.4211319  64.1576728  63.7926697  -1.8707405
  67.3677536  62.1097441  -0.9064795  67.1238468  62.8639502  -1.4430519
  67.6437466  62.4882789  -0.0717548  69.3215999  68.6536054  -2.2287529
  69.5332894  69.2967813  -2.9053148  69.2745747  67.8198370  -2.6965599
  66.9242228  61.2653874  -5.3250957  66.0626707  61.5635128  -5.0334220
  66.9504662  61.4824273  -6.2569924  61.1253045  64.5230974   2.2663623
  60.4951705  65.2047255   2.4999020  61.0189132  64.4114055   1.3216761
  56.4198017  64.1902770  -6.8070453  55.6297071  64.4460298  -7.2830342
  56.9109264  65.0051108  -6.7018412  64.2018430  71.0792052  -1.9004461
  64.2662862  71.5412460  -1.0646290  63.4929354  70.4489417  -1.7722152
  54.7035720  64.4433260  -4.3755462  54.9543758  65.3280270  -4.1097886
  55.2395268  64.2637862  -5.1480370  60.4033787  58.8251740   4.6288874
  60.0100733  58.2717938   5.3036518  61.2199928  59.1362318   5.0195392
  63.3201748  60.2409619   2.2209131  64.0611462  60.8416772   2.1413593
  63.5519671  59.4987257   1.6627173  58.4643086  65.4265986   0.4987360
  58.3496601  64.5251243   0.7994459  57.6087604  65.6729683   0.1472177
  65.5434924  73.3683726   2.0974861  65.0998778  72.5820105   1.7795765
  66.2052138  73.5562877   1.4318752  67.6416162  73.6486526   0.1256262
  67.6234637  74.4695407  -0.3663469  68.5636082  73.5240601   0.3506403
  64.0989216  71.1630656   0.9679771  64.6317553  70.4018944   0.7379079
  63.5703297  70.8704308   1.7103925  67.2658911  56.2690722  -3.5026588
  66.9223181  57.1592363  -3.5787477  67.6337874  56.0792379  -4.3657003
  66.3455452  58.6395377  -5.5377354  65.8420247  58.6025512  -6.3509549
  66.6386058  59.5488120  -5.4780698  62.5898337  58.7234107  -6.5311173
  63.4551334  58.5276915  -6.8905283  62.6575846  58.4944458  -5.6041816
  60.1960657  60.9536314  -9.1594806  60.7704408  60.7311496  -9.8921613
  60.7831639  61.0225009  -8.4066205  62.4983324  57.8277563 -10.4319736
  61.8447737  57.5126581 -11.0563122  62.4563798  57.2053304  -9.7059913
  65.7321065  64.3159497  -6.1072089  64.8143626  64.5374444  -6.2650401
  66.1481208  64.3905807  -6.9660381  69.0646577  55.5284281  -8.4008850
  69.3705454  54.6681644  -8.6882935  69.7899182  56.1201901  -8.6009856
  55.3570933  65.9314967 -10.0127252  55.1595333  65.3384328 -10.7376185
  54.8017597  65.6267178  -9.2951313  66.8734228  64.9056958  -1.3027386
  67.2283616  65.1328431  -0.4432920  67.5206359  65.2375335  -1.9250131
  60.7674091  62.0133489  -4.5181045  61.4073471  61.8722248  -5.2158082
  59.9351622  61.7268003  -4.8942443  57.7702708  61.9833814  -9.7408058
  58.0309525  62.8979147  -9.8498898  58.5919880  61.5158257  -9.5911445
  59.2427633  63.3971571  -2.5709234  59.9150686  63.1888933  -3.2196585
  58.4157420  63.1993657  -3.0104001  65.1453205  60.0233512  -0.5543573
  64.4981120  60.7223462  -0.6479096  65.9154220  60.4569656  -0.1867325
  68.5532003  70.2882364   2.5206980  68.4017509  70.0592916   1.6037064
  68.5436682  71.2452966   2.5338325  65.3217339  67.8614277  -2.4946753
  66.2509399  68.0125437  -2.6677786  64.9008369  67.9498298  -3.3498107
  59.6455130  66.6714174  -1.8106797  59.5074928  65.9394413  -1.2095258
  60.5560054  66.5823074  -2.0922609  62.2737431  66.3834134  -2.3223117
  62.9837049  65.7427326  -2.3636499  62.2306739  66.6347029  -1.3996936
  60.9866365  63.3699352  -0.5027477  60.4503722  62.9190090   0.1494119
  60.3983073  63.5045260  -1.2457013  70.2641617  71.2841071  -1.1702558
  69.3768396  70.9466993  -1.0476159  70.8340168  70.5524102  -0.9333793
  51.9170764  67.6165163  -7.8459507  52.6041804  67.3026893  -8.4338491
  51.7618893  68.5206527  -8.1192255  56.7205486  62.5055359  -3.4174483
  56.6363675  61.8981029  -4.1524073  55.8988193  62.9964378  -3.4164987
  66.8929200  60.9908923  -8.0504288  67.3897900  60.2378885  -8.3703218
  66.1216182  61.0273239  -8.6161079  63.4764169  63.1326306  -8.3232603
  63.1061956  62.5797346  -7.6351698  63.9723261  62.5284439  -8.8757603
  61.3053367  73.5923801  -1.2277585  62.0062827  74.2260284  -1.0748191
  60.8348482  73.9338532  -1.9881946  69.3348195  57.9578516  -5.9024929
  68.4211275  58.1882743  -5.7342722  69.7641296  58.0416960  -5.0510897
  69.1054653  66.1468408  -3.4025035  68.4526104  66.3944316  -4.0572582
  69.4835033  65.3332546  -3.7362558  65.1542226  66.8888219   3.0841002
  64.4782863  66.7882349   3.7543377  65.9769860  66.7327433   3.5476999
  56.9021085  73.1260156  -4.2946483  57.4874522  72.3803844  -4.1618578
  56.7045924  73.4364113  -3.4109819  51.4938740  65.6965756  -5.5742040
  51.5322840  65.1629347  -4.7804921  50.9879033  65.1700962  -6.1931062
  58.8729502  60.5430297  -2.0779497  58.9370829  61.4045127  -2.4902100
  58.8096623  59.9304298  -2.8107139  58.3481775  62.6153429   1.5693537
  58.9753814  62.2330506   2.1831061  57.4909694  62.3967631   1.9349230
  68.7475884  73.0216404   3.1747272  69.2915787  73.6346363   2.6802227
  68.1662728  73.5795983   3.6914285  58.6541565  62.4985855  -6.5160560
  57.9328150  63.1121822  -6.6553086  59.4434820  63.0343620  -6.5943914
  61.4567878  59.8340281  -0.2419908  61.9802280  60.0802578   0.5206402
  61.2380211  60.6660316  -0.6616770  62.6620423  60.7753976  -2.5570237
  62.3217244  59.9761789  -2.1549557  61.9559430  61.0755687  -3.1293404
  63.3136895  57.8603289  -4.1042914  64.1362964  57.3863767  -4.2264024
  63.5574959  58.6393773  -3.6044228  60.8375474  64.5522409  -6.2950936
  60.6920055  64.8662713  -5.4026654  60.3600677  65.1707310  -6.8480037
  62.6971857  61.5424957  -6.2470046  62.6833425  60.6466051  -6.5837748
  63.4144285  61.5495621  -5.6131760  64.5497987  61.9762298  -4.2016919
  64.2915765  62.8979368  -4.2032588  64.0183028  61.5792732  -3.5116455
  55.3121136  67.0927754  -3.3563274  54.7674604  67.8687562  -3.2243000
  56.1900486  67.4398558  -3.5144153  64.9699943  58.1094248  -7.8415756
  64.9921640  58.1733581  -8.7963777  65.3868002  57.2698757  -7.6475250
  56.0987158  66.2197650  -0.4633118  55.3568894  66.3680285   0.1231513
  55.7779902  66.4805916  -1.3266368  61.5849832  61.9371335   3.2307457
  61.6337988  62.8133458   2.8485226  62.1272346  61.3948728   2.6579100
  72.0704678  72.4812458   2.5108594  71.2800222  72.4636597   1.9713093
  71.8338032  73.0200752   3.2657630  72.1902553  69.3304925  -0.1758678
  72.2400558  69.1654932   0.7656845  72.0816476  68.4632184  -0.5660797
  69.4806315  65.3135853   1.1400629  70.3816178  65.1742318   0.8484627
  69.5554290  65.4790308   2.0798806  63.8149121  62.6902707  -0.0146185
  62.9452430  62.9836274  -0.2863596  64.0508601  63.2743152   0.7061079
  71.9407938  66.8734481  -1.4636598  72.4162060  67.0662127  -2.2717747
  71.0173503  66.9293667  -1.7093215  66.5188154  58.9082324  -2.4980764
  67.0370098  59.6443351  -2.8234276  66.1643287  59.2146318  -1.6634005
  66.7700749  55.3282607  -6.9779868  67.0502502  54.6605796  -6.3519441
  67.5551356  55.5211703  -7.4905204  70.6409607  63.7500241  -3.2308293
  71.5927030  63.8498339  -3.2096069  70.4713057  62.9578509  -2.7210208
  68.6623986  60.8355824  -3.0448892  68.0673919  61.1160837  -3.7402403
  68.3773683  61.3249725  -2.2732151  73.2692173  63.7617404  -4.0707710
  72.7531222  62.9775861  -4.2577781  74.1532122  63.4336121  -3.9061190
  70.9302900  57.5058420  -8.1111897  70.7327721  57.1973508  -7.2268565
  71.5402606  58.2320059  -7.9813967  64.8419708  69.8920160   3.3861868
  65.7622718  70.0698759   3.5801915  64.8069291  68.9476205   3.2341567
  54.0601873  65.0858753  -7.6884857  53.7404658  64.2324062  -7.9810483
  53.5135301  65.3007332  -6.9326890  57.8381781  67.8021194  -3.9715351
  58.0567791  68.7338302  -3.9527317  58.2507555  67.4429169  -3.1860547
  66.6876547  57.3867327 -10.3615366  67.2407585  57.8062780  -9.7025343
  66.9246633  56.4603075 -10.3192410  62.7109646  63.3754400   5.4187398
  62.6106373  64.3248757   5.3499489  62.4931188  63.0472639   4.5463468
  53.9290133  68.7061665  -5.7191736  53.2353605  68.2915618  -6.2321781
  54.6763124  68.7482201  -6.3158317  62.5740916  66.8051539   4.2352460
  62.0907998  67.6051899   4.4416349  62.6601855  66.8159484   3.2819904
  55.8426876  68.6379919  -7.8425721  55.8197564  68.7367606  -8.7943838
  56.1527512  69.4845069  -7.5208555  58.5014254  70.6956074  -3.7279106
  59.4557507  70.6640016  -3.7949175  58.3026777  70.2346697  -2.9128880
  59.0913636  69.2657190  -1.1608309  59.9106525  69.7601268  -1.1373471
  59.3650443  68.3489158  -1.1890741  54.3448550  63.5995324  -0.4616112
  54.9907414  63.0894278   0.0271114  54.1365701  64.3364005   0.1127314
  66.8701942  70.6676171   5.0376029  67.7393102  70.8416823   4.6762664
  66.3908694  71.4870588   4.9151758  66.6804280  54.4578145 -10.4546279
  65.9136676  53.9036632 -10.3089596  67.0914985  54.5300014  -9.5932127
  58.6846041  60.7462941   3.6358903  59.5477503  60.3899746   3.8462227
  58.1111452  60.4076835   4.3234307  71.2427542  74.1543657   4.6288874
  70.8494487  73.6009856   5.3036518  72.0593682  74.4654236   5.0195392
  73.5503401  78.7046318   5.4187398  73.4500127  79.6540675   5.3499489
  73.3324943  78.3764557   4.5463468  69.5239795  76.0754858   3.6358903
  70.3871257  75.7191663   3.8462227  68.9505206  75.7368753   4.3234307
  68.7475885  50.0278527 -10.1007421  69.2915789  50.6408485 -10.5952466
  68.1662730  50.5858105  -9.5840408  72.0704679  49.4874581 -10.7646100
  71.2800223  49.4698720 -11.3041600  71.8338034  50.0262875 -10.0097063
  66.8701943  47.6738294  -8.2378664  67.7393103  47.8478946  -8.5992030
  66.3908695  48.4932711  -8.3602935  71.2427543  51.1605780  -8.6465819
  70.8494489  50.6071978  -7.9718175  72.0593683  51.4716358  -8.2559302
  73.5503402  55.7108440  -7.8567295  73.4500129  56.6602797  -7.9255204
  73.3324944  55.3826679  -8.7291225  69.5239797  53.0816981  -9.6395791
  70.3871258  52.7253786  -9.4292466  68.9505207  52.7430876  -8.9520387
   2.6511533  98.5330596  45.3938570   1.8975241  97.9637994  45.2382574
   2.7859074  98.4993261  46.3409205   3.0617948  98.6906206  48.1258814
   3.7921337  98.4291494  48.6866518   2.4524894  97.9534928  48.1660882
   1.1433245  96.8314069  48.7233265   0.4166409  96.6970034  48.1149757
   0.7280532  97.1390898  49.5289983   1.0682113  96.3592122  44.8510118
   0.5081671  96.4285311  45.6241680   0.4625616  96.1833107  44.1309614
   4.0284045 101.5160037  44.7009920   4.3342922 100.6557401  44.4135835
   4.7536650 102.1077658  44.5008914   1.7338217 101.3158364  46.1238903
   2.0139970 100.6481553  46.7499329   2.5188824 101.5087459  45.6113567
   1.6441748 100.4453901  42.6472492   0.8774144  99.8912388  42.7929174
   2.0552453 100.5175770  43.5086643   2.6511534  75.5392719  32.1183877
   1.8975243  74.9700117  31.9627881   2.7859076  75.5055384  33.0654511
   3.0617949  75.6968329  34.8504121   3.7921338  75.4353617  35.4111824
   2.4524895  74.9597051  34.8906189   1.1433247  73.8376192  35.4478572
   0.4166410  73.7032156  34.8395064   0.7280533  74.1453020  36.2535290
   1.0682114  73.3654245  31.5755425   0.5081672  73.4347434  32.3486987
   0.4625618  73.1895229  30.8554921   2.6538133  90.0410759  34.2685381
   3.2916543  89.9217506  33.5648721   2.5358976  90.9891602  34.3273333
   2.2079401  87.7662212  31.3438589   2.9942490  87.3481636  30.9929006
   2.4718105  88.6708305  31.5120237   7.6087828  87.7037446  32.2471567
   8.3413000  87.1336662  32.4809397   6.8527184  87.3159046  32.6878073
   5.1313249  81.4159020  36.7066176   4.7996573  82.2854431  36.4827391
   4.5358862  81.0995304  37.3860206   1.6244768  93.6171566  36.1062088
   1.3245491  94.5196604  35.9977896   1.2795828  93.3503749  36.9583241
   5.0241912  86.1354106  33.7859526   4.1158789  86.0669514  33.4918287
   4.9729508  86.6126051  34.6141351   6.8903558  84.3370544  35.5637400
   6.2477939  84.6303077  34.9177194   6.3858487  84.2223465  36.3690596
   4.5443722  88.0833717  26.2523259   5.4561578  88.3161104  26.0770957
   4.0353369  88.6670762  25.6898338   2.8284490  92.5058345  39.8884552
   3.2367846  92.0640756  39.1439184   2.1061751  91.9310973  40.1418744
   3.1513304  93.0659536  33.6436840   2.5222167  93.2305250  32.9412908
   2.7638966  93.4801145  34.4147804   7.0302536  94.0013974  30.9981204
   6.3453574  94.3812875  30.4478238   7.1146386  94.6109300  31.7313152
   2.3315005  85.1035320  38.9199282   2.0875937  85.8577381  38.3833558
   2.6074936  85.4820668  39.7546529   4.2853468  91.6473933  37.5976548
   4.4970363  92.2905693  36.9210929   4.2383216  90.8136249  37.1298478
   1.8879697  84.2591753  34.5013120   1.0264176  84.5573007  34.7929857
   1.9142131  84.4762152  33.5694153   5.3999296  94.5245888  35.7698905
   6.2216740  94.1226075  35.4881587   5.3961699  94.4214122  36.7215021
  13.4905289  90.8684637  32.1183877  12.7368997  90.2992035  31.9627881
  13.6252830  90.8347301  33.0654511   2.6053631  96.6424405  39.9520339
   2.5872107  97.4633286  39.4600608   3.5273551  96.5178481  40.1770480
   2.2296380  79.2628601  36.3237489   1.8860650  80.1530243  36.2476600
   2.5975343  79.0730259  35.4607074   1.3092921  81.6333256  34.2886723
   0.8057716  81.5963391  33.4754528   1.6023528  82.5425999  34.3483379
   7.1680937  92.0069567  26.7663098   6.3910380  91.6680726  26.3218260
   7.8472418  92.0122190  26.0918063   1.9832966  87.1264304  26.6569706
   1.6783102  87.4410453  27.5079849   2.9363408  87.2045724  26.6997039
   5.4072244  91.4803548  33.4229706   4.7495919  92.1702809  33.5109835
   6.2112643  91.8699980  33.7663692   4.2177703  89.8347921  31.4733648
   4.7309585  90.4677912  31.9755357   4.8678927  89.2349116  31.1077008
   1.4793582  88.7088792  28.8494668   2.2265401  89.2210189  28.5401791
   1.7485171  88.3872845  29.7099062   4.9839499  94.8153922  29.6012790
   4.5301826  93.9744832  29.6577981   4.3533466  95.4515320  29.9387570
   3.9272419  85.7445908  30.8313458   3.1895176  85.2323294  31.1623700
   4.1799192  85.3046290  30.0196735   4.0284046  78.5222160  31.4255227
   4.3342923  77.6619523  31.1381142   4.7536651  79.1139780  31.2254221
   1.8371697  87.8994837  38.5236691   2.1921085  88.1266310  39.3831157
   2.4843829  88.2313214  37.9013946   7.5669434  91.0213273  29.2286020
   7.4287333  91.2114869  28.3007209   7.2105653  91.7832656  29.6854071
   7.5938814  93.0889800  34.2397291   8.0275321  92.9965089  35.0880345
   8.3070395  93.0647301  33.6017307   1.3266709  96.6891894  35.7730392
   1.3803731  97.2582831  36.5408108   0.4581490  96.8593779  35.4084429
   8.4554364  93.1313501  36.7730177   8.6490254  94.0359311  37.0189452
   8.3554982  92.6720920  37.6068762   3.5169472  93.2820244  42.3471057
   3.3654979  93.0530795  41.4301141   3.5074152  94.2390845  42.3602402
   5.2261679  96.3139366  40.4247539   5.1674225  95.6298586  39.7578122
   5.6281197  97.0558356  39.9728165   5.2279086  94.2778950  38.6561519
   4.3405865  93.9404872  38.7787918   5.7977637  93.5461981  38.8930284
   1.8566669  83.9846802  31.7759789   2.3535369  83.2316764  31.4560859
   1.0853651  84.0211119  31.2102998   9.7096427  89.6887167  33.4178081
   9.6986303  90.5711883  33.0472014   8.8413806  89.3358718  33.2232618
   1.2178923  98.8367236  37.7780921   1.9306895  99.4714701  37.7056822
   0.7268952  98.9331102  36.9620923   2.9396450  92.7418489  29.3498212
   2.0052729  92.8619952  29.1802917   3.1173118  91.8390956  29.0858222
   6.3269001  88.5835808  29.8848247   6.7929454  89.4163800  29.8108549
   6.7776502  88.1180790  30.5893505   4.2985664  80.9516395  33.9239148
   3.3848744  81.1820622  34.0921355   4.7278766  81.0354840  34.7753180
   4.0692123  89.1406287  36.4239042   3.4163573  89.3882195  35.7691495
   4.4472502  88.3270426  36.0901519   3.7113353  96.0154283  43.0011349
   4.2553257  96.6284242  42.5066304   3.1300198  96.5733862  43.5178363
   1.9970866  99.1375001  34.1326377   1.8722005  98.3364741  33.6237323
   2.6549957  99.6321195  33.6440347   4.0605774  96.9384022  35.7605927
   3.1136110  96.8189373  35.6884254   4.4088547  96.0506520  35.8432189
   4.6686329  97.5565296  33.0475152   5.5932877  97.3508158  32.9099603
   4.5001633  97.3081698  33.9564494   1.0613722  84.5874575  26.9542397
   1.2777336  85.4699213  26.6531225   0.5807789  84.1960789  26.2248039
  10.3121037  90.8387387  30.0227543  10.7552183  90.0894712  29.6246667
   9.4347547  90.8297523  29.6401275   7.3448241  94.8417434  27.0321473
   7.8699565  95.1804707  26.3070793   7.2570594  93.9064449  26.8484607
   7.0342147  95.4750338  42.3372671   6.2437691  95.4574476  41.7977170
   6.7975502  96.0138631  43.0921707   7.1540022  92.3242804  39.6505399
   7.2038027  92.1592811  40.5920922   7.0453946  91.4570063  39.2603280
   4.4443785  88.3073732  40.9664706   5.3453647  88.1680197  40.6748704
   4.5191759  88.4728187  41.9062883   8.6558219  94.7439745  39.8947421
   8.3643027  95.1069726  40.7310882   8.0430350  94.0306754  39.7160753
   9.8553901  92.3092625  32.4149991  10.6900793  92.7482429  32.5787551
   9.9913030  91.8331278  31.5958237   6.9045407  89.8672360  38.3627479
   7.3799529  90.0600006  37.5546330   5.9810973  89.9231546  38.1170862
   1.4825624  81.9020204  37.3283313   2.0007568  82.6381231  37.0029801
   1.1280757  82.2084197  38.1630072   1.7338218  78.3220486  32.8484209
   2.0139972  77.6543675  33.4744636   2.5188825  78.5149582  32.3358873
   5.6047076  86.7438120  36.5955784   6.5564499  86.8436218  36.6168008
   5.4350527  85.9516389  37.1053869   3.6261456  83.8293703  36.7815185
   3.0311388  84.1098716  36.0861674   3.3411152  84.3187604  37.5531926
   8.0835154  89.9644240  35.7098084   8.0511474  89.0260241  35.8957768
   8.6935778  90.0428277  34.9763909   8.2329643  86.7555283  35.7556367
   7.7168691  85.9713740  35.5686296   9.1169591  86.4274000  35.9202887
   5.8940369  80.4996299  31.7152180   5.6965191  80.1911387  32.5995512
   6.5040075  81.2257938  31.8450110  13.9011704  91.0260247  34.8504121
  14.6315092  90.7645535  35.4111824  13.2918649  90.2888969  34.8906189
  11.9827001  89.1668109  35.4478572  11.2560165  89.0324074  34.8395064
  11.5674288  89.4744938  36.2535290   1.6514016  80.3805206  29.4648711
   2.2045055  80.8000659  30.1238734   1.8884102  79.4540954  29.5071667
   5.0292823  82.4905731  28.9727376   4.4491492  83.1490535  28.5905428
   4.7628756  81.6683075  28.5614793   3.4796390  81.8910789  31.1748696
   3.9796168  82.0027323  30.3663015   4.1231997  81.5871841  31.8149504
   3.8117701  84.6505821  28.0283724   2.9243556  84.9355472  27.8103919
   4.2271690  84.4899585  27.1811001   7.1632237  84.6752342  31.7438063
   7.9392627  85.1648795  32.0162680   6.4380372  85.1010396  32.2009933
   9.6004796  85.3879961  32.8012004  10.1949287  85.1475697  32.0905312
   9.6731380  84.6687092  33.4285540   3.7858725  90.1660357  28.2434014
   3.7293926  90.6228909  27.4041646   4.3387067  89.4051042  28.0656857
   7.5963531  85.9550089  29.0684133   7.3400465  85.5546725  29.8992341
   6.9716399  86.6693883  28.9434273  11.9075869  88.6946162  31.5755425
  11.3475427  88.7639352  32.3486987  11.3019372  88.5187147  30.8554921
   1.8339411  93.6614050  44.8640106   2.7030571  93.8354703  44.5026741
   1.3546163  94.4808467  44.7415835   1.6441749  77.4516024  29.3717798
   0.8774145  76.8974511  29.5174481   2.0552454  77.5237893  30.2331950
  13.0473156 103.0954130  31.3438589  13.8336245 102.6773553  30.9929006
  13.3111860 104.0000222  31.5120237  18.4481583 103.0329363  32.2471567
  19.1806755 102.4628580  32.4809397  17.6920938 102.6450964  32.6878073
  15.9707003  96.7450937  36.7066176  15.6390328  97.6146348  36.4827391
  15.3752617  96.4287221  37.3860206  15.8635666 101.4646024  33.7859526
  14.9552544 101.3961432  33.4918287  15.8123262 101.9417968  34.6141351
   9.9376532 102.8835669  41.7294423   9.1609866 103.4429589  41.7197288
  10.5767095 103.3692452  42.2509293  17.7297313  99.6662462  35.5637400
  17.0871693  99.9594995  34.9177194  17.2252241  99.5515382  36.3690596
  15.3837477 103.4125635  26.2523259  16.2955333 103.6453022  26.0770957
  14.8747124 103.9962679  25.6898338  10.0209314 102.7722870  37.2618109
  10.8670509 103.1962283  37.4052758   9.9607952 102.1156494  37.9556672
  13.1708760 100.4327238  38.9199282  12.9269691 101.1869299  38.3833558
  13.4468690 100.8112586  39.7546529  12.7273451  99.5883671  34.5013120
  11.8657930  99.8864925  34.7929857  12.7535886  99.8054070  33.5694153
  24.3299043 106.1976554  32.1183877  23.5762752 105.6283952  31.9627881
  24.4646585 106.1639219  33.0654511   6.2065011  97.1481537  44.4552951
   5.8131957  96.5947735  45.1300595   7.0231151  97.4592115  44.8459469
   9.1232972  98.5639416  42.0473208   9.8642685  99.1646569  41.9677670
   9.3550895  97.8217053  41.4891250  13.0690135  94.5920519  36.3237489
  12.7254404  95.4822160  36.2476600  13.4369098  94.4022176  35.4607074
  10.6187529  99.4278830  29.8895163   9.7629125  99.0385681  29.7100802
  11.0314480  99.5070791  29.0294948  12.1486675  96.9625174  34.2886723
  11.6451471  96.9255309  33.4754528  12.4417282  97.8717916  34.3483379
   8.3929561  97.0463903  33.2952904   9.2582558  96.8506712  32.9358794
   8.4607070  96.8174255  34.2222261  18.0074692 107.3361484  26.7663098
  17.2304135 106.9972644  26.3218260  18.6866173 107.3414107  26.0918063
  12.8226721 102.4556222  26.6569706  12.5176856 102.7702371  27.5079849
  13.7757163 102.5337642  26.6997039   5.9991880  99.2766111  30.6669271
   6.5735632  99.0541293  29.9342464   6.5862863  99.3454806  31.4197872
  15.0571458 105.1639838  31.4733648  15.5703339 105.7969830  31.9755357
  15.7072681 104.5641034  31.1077008   8.3014548  96.1507360  29.3944341
   7.6478960  95.8356377  28.7700955   8.2595022  95.5283101  30.1204164
  11.5352288 102.6389294  33.7191988  10.6174850 102.8604241  33.5613676
  11.9512432 102.7135604  32.8603696  12.3187336 104.0380709  28.8494668
  13.0659155 104.5502107  28.5401791  12.5878926 103.7164762  29.7099062
  14.7666173 101.0737826  30.8313458  14.0288930 100.5615212  31.1623700
  15.0192947 100.6338207  30.0196735  14.8677801  93.8514078  31.4255227
  15.1736677  92.9911441  31.1381142  15.5930405  94.4431698  31.2254221
  12.6765452 103.2286755  38.5236691  13.0314840 103.4558228  39.3831157
  13.3237583 103.5605132  37.9013946  18.4063189 106.3505191  29.2286020
  18.2681087 106.5406787  28.3007209  18.0499408 107.1124574  29.6854071
   6.5705315 100.3363286  35.3083032   7.2104694 100.1952045  34.6105995
   5.7382846 100.0497799  34.9321634   5.0458857 101.7201368  37.2554843
   5.7181910 101.5118730  36.6067492   4.2188643 101.5223454  36.8160076
  10.9484429  98.3463309  39.2720504  10.3012344  99.0453259  39.1784981
  11.7185444  98.7799453  39.6396752   6.7897589 101.6929148  39.3236600
   6.2534946 101.2419887  39.9758196   6.2014297 101.8275057  38.5807064
   2.5236710 100.8285156  36.4089594   2.4394899 100.2210826  35.6740004
   1.7019416 101.3194174  36.4099090  12.6960424  99.3138720  31.7759789
  13.1929123  98.5608682  31.4560859  11.9247405  99.3503036  31.2102998
  20.5490181 105.0179085  33.4178081  20.5380057 105.9003801  33.0472014
  19.6807561 104.6650636  33.2232618   9.2795393 101.4556103  31.5031474
   8.9093180 100.9027143  32.1912379   9.7754485 100.8514236  30.9506474
  17.1662756 103.9127726  29.8848247  17.6323208 104.7455718  29.8108549
  17.6170256 103.4472708  30.5893505  15.1379419  96.2808313  33.9239148
  14.2242498  96.5112540  34.0921355  15.5672520  96.3646757  34.7753180
  14.9085877 104.4698205  36.4239042  14.2557327 104.7174113  35.7691495
  15.2866257 103.6562343  36.0901519   4.6760726  98.8660093  37.7484580
   4.7402053  99.7274924  37.3361977   4.6127846  98.2534095  37.0156938
   4.1512999 100.9383226  41.3957614   4.7785038 100.5560303  42.0095138
   3.2940918 100.7197428  41.7613307   4.4572788 100.8215652  33.3103517
   3.7359374 101.4351619  33.1710991   5.2466044 101.3573416  33.2320163
   7.2599102  98.1570078  39.5844169   7.7833504  98.4032375  40.3470479
   7.0411435  98.9890113  39.1647307   8.4651647  99.0983773  37.2693840
   8.1248467  98.2991586  37.6714520   7.7590653  99.3985484  36.6970673
   9.1168119  96.1833086  35.7221163   9.9394188  95.7093564  35.6000053
   9.3606182  96.9623569  36.2219849  11.9007476  99.9166493  26.9542397
  12.1171091 100.7991131  26.6531225  11.4201543  99.5252706  26.2248039
   8.5003081  99.8654754  33.5794031   8.4864649  98.9695848  33.2426329
   9.2175509  99.8725418  34.2132317  10.3529211 100.2992094  35.6247158
  10.0946989 101.2209165  35.6231489   9.8214252  99.9022529  36.3147623
  10.7731167  96.4324045  31.9848321  10.7952864  96.4963378  31.0300300
  11.1899226  95.5928554  32.1788827  21.1514791 106.1679305  30.0227543
  21.5945937 105.4186630  29.6246667  20.2741301 106.1589441  29.6401275
   7.3881056 100.2601132  43.0571534   7.4369211 101.1363255  42.6749303
   7.9303570  99.7178525  42.4843177  15.2837539 103.6365650  40.9664706
  16.1847402 103.4972114  40.6748704  15.3585514 103.8020104  41.9062883
   9.6180344 101.0132504  39.8117892   8.7483654 101.3066070  39.5400481
   9.8539825 101.5972949  40.5325156  20.6947656 107.6384543  32.4149991
  21.5294547 108.0774347  32.5787551  20.8306785 107.1623196  31.5958237
  17.7439162 105.1964278  38.3627479  18.2193283 105.3891924  37.5546330
  16.8204727 105.2523464  38.1170862  12.3219378  97.2312121  37.3283313
  12.8401322  97.9673148  37.0029801  11.9674511  97.5376115  38.1630072
  12.5731972  93.6512404  32.8484209  12.8533726  92.9835593  33.4744636
  13.3582579  93.8441499  32.3358873  16.4440831 102.0730038  36.5955784
  17.3958254 102.1728135  36.6168008  16.2744281 101.2808306  37.1053869
  14.4655210  99.1585621  36.7815185  13.8705142  99.4390634  36.0861674
  14.1804907  99.6479522  37.5531926  18.9228909 105.2936157  35.7098084
  18.8905229 104.3552158  35.8957768  19.5329532 105.3720194  34.9763909
  19.0723397 102.0847201  35.7556367  18.5562446 101.3005658  35.5686296
  19.9563346 101.7565918  35.9202887  16.7334124  95.8288216  31.7152180
  16.5358945  95.5203305  32.5995512  17.3433830  96.5549855  31.8450110
  24.7405458 106.3552164  34.8504121  25.4708847 106.0937452  35.4111824
  24.1312404 105.6180886  34.8906189  22.8220756 104.4960027  35.4478572
  22.0953919 104.3615992  34.8395064  22.4068042 104.8036856  36.2535290
  10.5617222  96.6319077  27.8424415   9.7517951  96.2866162  28.2179661
  11.2501639  96.3226620  28.4312026  12.4907771  95.7097123  29.4648711
  13.0438809  96.1292577  30.1238734  12.7277857  94.7832871  29.5071667
   8.5140870 101.6984197  45.2451475   8.4137597 102.6478554  45.1763566
   8.2962412 101.3702436  44.3727545  15.8686578  97.8197649  28.9727376
  15.2885247  98.4782453  28.5905428  15.6022510  96.9974993  28.5614793
  14.3190144  97.2202706  31.1748696  14.8189922  97.3319241  30.3663015
  14.9625752  96.9163759  31.8149504  14.6511456  99.9797739  28.0283724
  13.7637311 100.2647390  27.8103919  15.0665445  99.8191502  27.1811001
  18.0025992 100.0044260  31.7438063  18.7786382 100.4940712  32.0162680
  17.2774126 100.4302314  32.2009933  20.4398550 100.7171879  32.8012004
  21.0343041 100.4767615  32.0905312  20.5125134  99.9979010  33.4285540
  14.6252479 105.4952275  28.2434014  14.5687681 105.9520826  27.4041646
  15.1780822 104.7342959  28.0656857  18.4357285 101.2842007  29.0684133
  18.1794220 100.8838642  29.8992341  17.8110153 101.9985801  28.9434273
  22.7469623 104.0238080  31.5755425  22.1869181 104.0931269  32.3486987
  22.1413127 103.8479065  30.8554921  12.4835504  92.7807942  29.3717798
  11.7167899  92.2266428  29.5174481  12.8946209  92.8529810  30.2331950
   4.4877265  99.0692738  43.4622980   5.3508726  98.7129542  43.6726304
   3.9142675  98.7306632  44.1498384  25.7071555 109.1805995  31.4255227
  26.0130432 108.3203359  31.1381142  26.4324160 109.7723616  31.2254221
  23.4125727 108.9804321  32.8484209  23.6927481 108.3127511  33.4744636
  24.1976334 109.1733417  32.3358873  23.3229258 108.1099859  29.3717798
  22.5561654 107.5558346  29.5174481  23.7339963 108.1821728  30.2331950
   2.6511536  52.5454842  18.8429183   1.8975244  51.9762240  18.6873188
   2.7859077  52.5117506  19.7899818   3.0617951  52.7030452  21.5749428
   3.7921339  52.4415740  22.1357131   2.4524896  51.9659174  21.6151495
   1.1433248  50.8438314  22.1723879   0.4166411  50.7094279  21.5640370
   0.7280535  51.1515143  22.9780597   1.0682115  50.3716367  18.3000731
   0.5081673  50.4409557  19.0732294   0.4625619  50.1957352  17.5800228
   2.6538134  67.0472881  20.9930687   3.2916544  66.9279628  20.2894027
   2.5358977  67.9953725  21.0518639   2.2079402  64.7724335  18.0683895
   2.9942492  64.3543758  17.7174312   2.4718107  65.6770427  18.2365544
   7.6087830  64.7099568  18.9716874   8.3413001  64.1398785  19.2054703
   6.8527185  64.3221169  19.4123379   5.1313250  58.4221142  23.4311482
   4.7996575  59.2916553  23.2072697   4.5358863  58.1057426  24.1105513
   1.6244769  70.6233688  22.8307395   1.3245493  71.5258727  22.7223202
   1.2795829  70.3565871  23.6828548   5.0241913  63.1416228  20.5104832
   4.1158791  63.0731637  20.2163593   4.9729509  63.6188173  21.3386658
   6.8903560  61.3432667  22.2882706   6.2477940  61.6365200  21.6422501
   6.3858488  61.2285587  23.0935903   4.5443723  65.0895840  12.9768566
   5.4561579  65.3223227  12.8016263   4.0353370  65.6732884  12.4143644
   2.8284491  69.5120468  26.6129858   3.2367847  69.0702878  25.8684491
   2.1061752  68.9373095  26.8664051   3.1513306  70.0721658  20.3682147
   2.5222168  70.2367373  19.6658215   2.7638968  70.4863268  21.1393111
   7.0302537  71.0076096  17.7226511   6.3453576  71.3874998  17.1723544
   7.1146387  71.6171423  18.4558459   2.3315006  62.1097443  25.6444589
   2.0875938  62.8639504  25.1078864   2.6074937  62.4882791  26.4791836
   4.2853469  68.6536055  24.3221854   4.4970364  69.2967815  23.6456235
   4.2383217  67.8198372  23.8543784   1.8879698  61.2653876  21.2258426
   1.0264177  61.5635130  21.5175164   1.9142133  61.4824275  20.2939459
   5.3999297  71.5308011  22.4944212   6.2216741  71.1288198  22.2126893
   5.3961700  71.4276245  23.4460328  13.4905290  67.8746759  18.8429183
  12.7368998  67.3054157  18.6873188  13.6252831  67.8409424  19.7899818
   2.6053633  73.6486528  26.6765646   2.5872108  74.4695409  26.1845915
   3.5273553  73.5240603  26.9015787   2.2296382  56.2690723  23.0482796
   1.8860651  57.1592365  22.9721907   2.5975344  56.0792381  22.1852381
   1.3092922  58.6395379  21.0132029   0.8057718  58.6025514  20.1999835
   1.6023529  59.5488121  21.0728686   7.1680939  69.0131689  13.4908405
   6.3910381  68.6742849  13.0463567   7.8472420  69.0184312  12.8163370
   1.9832968  64.1326427  13.3815012   1.6783103  64.4472576  14.2325155
   2.9363410  64.2107847  13.4242345   5.4072245  68.4865670  20.1475013
   4.7495920  69.1764932  20.2355141   6.2112645  68.8762102  20.4908999
   4.2177704  66.8410043  18.1978954   4.7309586  67.4740035  18.7000664
   4.8678928  66.2411239  17.8322314   1.4793583  65.7150914  15.5739975
   2.2265402  66.2272312  15.2647097   1.7485172  65.3934967  16.4344369
   4.9839500  71.8216045  16.3258097   4.5301828  70.9806954  16.3823287
   4.3533467  72.4577443  16.6632877   3.9272420  62.7508031  17.5558764
   3.1895177  62.2385417  17.8869007   4.1799194  62.3108412  16.7442041
   4.0284047  55.5284283  18.1500534   4.3342924  54.6681646  17.8626449
   4.7536652  56.1201903  17.9499528   1.8371699  64.9056960  25.2481998
   2.1921086  65.1328433  26.1076463   2.4843830  65.2375337  24.6259253
   7.5669436  68.0275396  15.9531327   7.4287334  68.2176992  15.0252516
   7.2105654  68.7894779  16.4099378   7.5938815  70.0951923  20.9642598
   8.0275322  70.0027212  21.8125652   8.3070396  70.0709423  20.3262614
   1.3266710  73.6954017  22.4975699   1.3803732  74.2644953  23.2653415
   0.4581492  73.8655902  22.1329736   8.4554365  70.1375623  23.4975483
   8.6490255  71.0421434  23.7434758   8.3554983  69.6783043  24.3314068
   3.5169473  70.2882366  29.0716364   3.3654980  70.0592918  28.1546448
   3.5074153  71.2452968  29.0847709   5.2261680  73.3201489  27.1492846
   5.1674226  72.6360709  26.4823429   5.6281199  74.0620479  26.6973472
   5.2279087  71.2841073  25.3806826   4.3405866  70.9466995  25.5033224
   5.7977638  70.5524104  25.6175591   1.8566671  60.9908925  18.5005096
   2.3535370  60.2378887  18.1806166   1.0853652  61.0273241  17.9348305
   9.7096428  66.6949290  20.1423387   9.6986304  67.5774006  19.7717320
   8.8413807  66.3420841  19.9477924   1.2178924  75.8429359  24.5026227
   1.9306897  76.4776824  24.4302129   0.7268953  75.9393225  23.6866229
   2.9396451  69.7480612  16.0743519   2.0052730  69.8682074  15.9048223
   3.1173120  68.8453079  15.8103529   6.3269003  65.5897931  16.6093553
   6.7929455  66.4225923  16.5353856   6.7776503  65.1242913  17.3138812
   4.2985665  57.9578518  20.6484455   3.3848745  58.1882745  20.8166662
   4.7278767  58.0416962  21.4998487   4.0692124  66.1468410  23.1484349
   3.4163574  66.3944317  22.4936801   4.4472504  65.3332548  22.8146826
   3.7113354  73.0216406  29.7256656   4.2553258  73.6346364  29.2311611
   3.1300199  73.5795984  30.2423669   1.9970867  76.1437124  20.8571684
   1.8722006  75.3426864  20.3482629   2.6549958  76.6383317  20.3685654
   4.0605775  73.9446144  22.4851234   3.1136111  73.8251495  22.4129561
   4.4088549  73.0568642  22.5677495   4.6686331  74.5627419  19.7720459
   5.5932878  74.3570280  19.6344910   4.5001634  74.3143820  20.6809800
   1.0613723  61.5936698  13.6787703   1.2777337  62.4761336  13.3776532
   0.5807790  61.2022911  12.9493345  10.3121038  67.8449509  16.7472850
  10.7552184  67.0956835  16.3491973   9.4347548  67.8359646  16.3646582
   7.3448242  71.8479556  13.7566779   7.8699566  72.1866829  13.0316099
   7.2570595  70.9126572  13.5729914   7.0342148  72.4812460  29.0617977
   6.2437692  72.4636599  28.5222477   6.7975503  73.0200754  29.8167014
   7.1540023  69.3304926  26.3750706   7.2038028  69.1654934  27.3166229
   7.0453947  68.4632185  25.9848587   4.4443786  65.3135854  27.6910013
   5.3453649  65.1742319  27.3994010   4.5191760  65.4790309  28.6308190
   8.6558220  71.7501868  26.6192727   8.3643029  72.1131849  27.4556188
   8.0430352  71.0368876  26.4406060   9.8553903  69.3154748  19.1395298
  10.6900794  69.7544552  19.3032858   9.9913031  68.8393401  18.3203543
   6.9045409  66.8734483  25.0872785   7.3799530  67.0662129  24.2791637
   5.9810974  66.9293668  24.8416169   1.4825625  58.9082326  24.0528619
   2.0007569  59.6443353  23.7275108   1.1280758  59.2146319  24.8875378
   1.7338219  55.3282609  19.5729516   2.0139973  54.6605798  20.1989942
   2.5188826  55.5211704  19.0604180   5.6047078  63.7500243  23.3201091
   6.5564500  63.8498340  23.3413315   5.4350528  62.9578511  23.8299175
   3.6261457  60.8355826  23.5060492   3.0311389  61.1160839  22.8106981
   3.3411154  61.3249727  24.2777233   8.0835155  66.9706362  22.4343391
   8.0511475  66.0322363  22.6203075   8.6935779  67.0490399  21.7009216
   8.2329644  63.7617406  22.4801674   7.7168692  62.9775862  22.2931603
   9.1169592  63.4336122  22.6448193   5.8940371  57.5058421  18.4397487
   5.6965192  57.1973510  19.3240819   6.5040076  58.2320060  18.5695416
  13.9011705  68.0322369  21.5749428  14.6315094  67.7707657  22.1357131
  13.2918651  67.2951091  21.6151495  11.9827002  66.1730232  22.1723879
  11.2560166  66.0386197  21.5640370  11.5674289  66.4807060  22.9780597
   1.6514017  57.3867328  16.1894018   2.2045056  57.8062782  16.8484041
   1.8884104  56.4603076  16.2316974   5.0292824  59.4967853  15.6972682
   4.4491493  60.1552657  15.3150735   4.7628757  58.6745198  15.2860100
   3.4796391  58.8972911  17.8994003   3.9796169  59.0089446  17.0908321
   4.1231999  58.5933964  18.5394811   3.8117702  61.6567944  14.7529030
   2.9243557  61.9417594  14.5349225   4.2271692  61.4961707  13.9056307
   7.1632239  61.6814465  18.4683370   7.9392629  62.1710917  18.7407987
   6.4380373  62.1072519  18.9255239   9.6004797  62.3942084  19.5257310
  10.1949288  62.1537820  18.8150619   9.6731381  61.6749215  20.1530847
   3.7858726  67.1722480  14.9679321   3.7293928  67.6291031  14.1286953
   4.3387069  66.4113164  14.7902163   7.5963532  62.9612212  15.7929440
   7.3400466  62.5608847  16.6237648   6.9716400  63.6756006  15.6679579
  11.9075870  65.7008285  18.3000731  11.3475428  65.7701474  19.0732294
  11.3019373  65.5249269  17.5800228   1.8339413  70.6676173  31.5885413
   2.7030572  70.8416825  31.2272047   1.3546164  71.4870590  31.4661142
   1.6441750  54.4578147  16.0963105   0.8774146  53.9036633  16.2419787
   2.0552455  54.5300015  16.9577257  13.4931888  82.3764799  20.9930687
  14.1310298  82.2571546  20.2894027  13.3752731  83.3245643  21.0518639
  10.3021595  82.3292227  20.9292212   9.9640106  82.2133292  20.0412747
  11.1711363  81.9283392  20.9093218  10.7841378  83.4827079  26.8878417
  10.7730018  83.0879877  26.0158921  10.9462017  82.7493151  27.4812189
   7.5048639  86.2664190  25.8357601   7.2138505  87.1709821  25.7204268
   8.1405623  86.3080718  26.5501671   8.4304846  83.6441039  22.4258961
   9.0268418  83.4197061  21.7115924   8.4879817  82.9025784  23.0284409
  13.0473157  80.1016253  18.0683895  13.8336246  79.6835676  17.7174312
  13.3111861  81.0062345  18.2365544  18.4481584  80.0391486  18.9716874
  19.1806756  79.4690703  19.2054703  17.6920940  79.6513086  19.4123379
  15.9707004  73.7513060  23.4311482  15.6390329  74.6208471  23.2072697
  15.3752618  73.4349344  24.1105513  12.4638524  85.9525606  22.8307395
  12.1639247  86.8550645  22.7223202  12.1189583  85.6857789  23.6828548
  15.8635668  78.4708146  20.5104832  14.9552545  78.4023555  20.2163593
  15.8123264  78.9480091  21.3386658   9.9376533  79.8897792  28.4539730
   9.1609868  80.4491712  28.4442594  10.5767097  80.3754575  28.9754600
  17.7297314  76.6724585  22.2882706  17.0871694  76.9657118  21.6422501
  17.2252243  76.5577505  23.0935903  15.3837478  80.4187758  12.9768566
  16.2955334  80.6515144  12.8016263  14.8747125  81.0024802  12.4143644
   8.1922906  82.6983245  28.0157697   8.9337590  83.2368289  27.7392520
   7.4859891  83.3249534  28.1729248  13.6678245  84.8412386  26.6129858
  14.0761601  84.3994796  25.8684491  12.9455507  84.2665013  26.8664051
  10.0209315  79.7784992  23.9863415  10.8670511  80.2024406  24.1298064
   9.9607953  79.1218617  24.6801978  13.9907060  85.4013576  20.3682147
  13.3615923  85.5659290  19.6658215  13.6032722  85.8155186  21.1393111
  17.8696292  86.3368014  17.7226511  17.1847330  86.7166915  17.1723544
  17.9540141  86.9463341  18.4558459  13.1708761  77.4389361  25.6444589
  12.9269693  78.1931421  25.1078864  13.4468691  77.8174708  26.4791836
  15.1247224  83.9827973  24.3221854  15.3364119  84.6259733  23.6456235
  15.0776972  83.1490290  23.8543784  12.7273453  76.5945794  21.2258426
  11.8657932  76.8927047  21.5175164  12.7535887  76.8116193  20.2939459
   6.9284270  79.8522893  28.8173007   6.2982930  80.5339174  29.0508404
   6.8220357  79.7405975  27.8726145  16.2393052  86.8599928  22.4944212
  17.0610495  86.4580116  22.2126893  16.2355454  86.7568163  23.4460328
  10.0049655  86.4083972  24.6504922  10.0694087  86.8704379  25.4863094
   9.2960579  85.7781337  24.7787232  24.3299045  83.2038677  18.8429183
  23.5762753  82.6346075  18.6873188  24.4646586  83.1701341  19.7899818
   6.2065012  74.1543659  31.1798258   5.8131958  73.6009858  31.8545902
   7.0231153  74.4654238  31.5704775   9.1232973  75.5701538  28.7718514
   9.8642687  76.1708691  28.6922977   9.3550896  74.8279176  28.2136557
   4.2674311  80.7557905  27.0496744   4.1527826  79.8543163  27.3503843
   3.4118829  81.0021602  26.6981561  11.3466149  88.6975646  28.6484245
  10.9030003  87.9112024  28.3305149  12.0083363  88.8854796  27.9828135
  13.4447387  88.9778446  26.6765646  13.4265862  89.7987327  26.1845915
  14.3667307  88.8532521  26.9015787   9.9020441  86.4922575  27.5189154
  10.4348778  85.7310863  27.2888462   9.3734522  86.1996227  28.2613309
  13.0690136  71.5982641  23.0482796  12.7254406  72.4884283  22.9721907
  13.4369099  71.4084299  22.1852381  10.6187530  76.4340953  16.6140469
   9.7629126  76.0447803  16.4346108  11.0314482  76.5132914  15.7540255
  12.1486677  73.9687296  21.0132029  11.6451472  73.9317431  20.1999835
  12.4417283  74.8780039  21.0728686   8.3929562  74.0526026  20.0198211
   9.2582559  73.8568835  19.6604100   8.4607071  73.8236378  20.9467568
  18.0074693  84.3423607  13.4908405  17.2304136  84.0034766  13.0463567
  18.6866174  84.3476230  12.8163370  12.8226722  79.4618344  13.3815012
  12.5176858  79.7764494  14.2325155  13.7757164  79.5399764  13.4242345
  16.2466000  83.8157588  20.1475013  15.5889674  84.5056850  20.2355141
  17.0506399  84.2054020  20.4908999   5.9991882  76.2828234  17.3914578
   6.5735633  76.0603415  16.6587771   6.5862864  76.3516928  18.1443179
  15.0571459  82.1701961  18.1978954  15.5703341  82.8031953  18.7000664
  15.7072683  81.5703156  17.8322314   8.3014549  73.1569483  16.1189647
   7.6478962  72.8418500  15.4946262   8.2595023  72.5345223  16.8449470
  11.5352290  79.6451416  20.4437295  10.6174851  79.8666363  20.2858983
  11.9512433  79.7197727  19.5849002  12.3187337  81.0442832  15.5739975
  13.0659156  81.5564229  15.2647097  12.5878927  80.7226885  16.4344369
  15.8233255  87.1507962  16.3258097  15.3695582  86.3098872  16.3823287
  15.1927222  87.7869361  16.6632877  14.7666175  78.0799948  17.5558764
  14.0288931  77.5677335  17.8869007  15.0192948  77.6400330  16.7442041
  14.8677802  70.8576200  18.1500534  15.1736679  69.9973564  17.8626449
  15.5930407  71.4493821  17.9499528   9.1398882  81.1529993  18.6576725
   9.1947491  80.2003830  18.5819201   8.3290084  81.3089432  19.1418023
  12.6765453  80.2348878  25.2481998  13.0314841  80.4620351  26.1076463
  13.3237584  80.5667254  24.6259253  18.4063190  83.3567313  15.9531327
  18.2681089  83.5468909  15.0252516  18.0499409  84.1186696  16.4099378
   6.5705316  77.3425409  22.0328339   7.2104696  77.2014168  21.3351302
   5.7382847  77.0559922  21.6566941  18.4332570  85.4243840  20.9642598
  18.8669076  85.3319130  21.8125652  19.1464150  85.4001341  20.3262614
  12.1660465  89.0245935  22.4975699  12.2197487  89.5936871  23.2653415
  11.2975246  89.1947820  22.1329736   5.0458858  78.7263491  23.9800150
   5.7181911  78.5180853  23.3312799   4.2188645  78.5285577  23.5405382
  19.2948119  85.4667541  23.4975483  19.4884009  86.3713352  23.7434758
  19.1948737  85.0074960  24.3314068  10.9484430  75.3525432  25.9965811
  10.3012345  76.0515381  25.9030287  11.7185445  75.7861576  26.3642059
  14.3563228  85.6174284  29.0716364  14.2048734  85.3884836  28.1546448
  14.3467907  86.5744885  29.0847709  11.1248564  83.1906197  24.0562630
  12.0540624  83.3417356  23.8831598  10.7039594  83.2790217  23.2011277
   9.9236896  87.2156861  21.8261168   9.7847982  86.8475645  22.6987106
   9.1351492  87.7304500  21.6545126  11.4742111  86.5938464  19.2150006
  11.1391944  86.5539234  20.1107656  10.9746057  85.9283180  18.7420416
   5.4486355  82.0006094  24.7402587   5.3106153  81.2686333  25.3414126
   6.3591279  81.9114994  24.4586775   8.0768656  81.7126053  24.2286267
   8.7868274  81.0719245  24.1872885   8.0337964  81.9638948  25.1512447
  16.0655435  88.6493406  27.1492846  16.0067981  87.9652627  26.4823429
  16.4674953  89.3912396  26.6973472   6.7897590  78.6991271  26.0481906
   6.2534947  78.2482009  26.7003503   6.2014298  78.8337180  25.3052371
  16.0672842  86.6132990  25.3806826  15.1799621  86.2758912  25.5033224
  16.6371393  85.8816022  25.6175591   2.5236711  77.8347279  23.1334901
   2.4394900  77.2272948  22.3985311   1.7019418  78.3256297  23.1344397
  12.6960425  76.3200842  18.5005096  13.1929125  75.5670805  18.1806166
  11.9247407  76.3565159  17.9348305  20.5490182  82.0241208  20.1423387
  20.5380059  82.9065923  19.7717320  19.6807562  81.6712759  19.9477924
  12.0572679  91.1721277  24.5026227  12.7700651  91.8068742  24.4302129
  11.5662707  91.2685143  23.6866229  13.7790206  85.0772529  16.0743519
  12.8446484  85.1973992  15.9048223  13.9566874  84.1744996  15.8103529
   9.2795394  78.4618225  18.2276780   8.9093181  77.9089266  18.9157686
   9.7754486  77.8576359  17.6751780  17.1662757  80.9189849  16.6093553
  17.6323209  81.7517840  16.5353856  17.6170258  80.4534830  17.3138812
   7.1084592  88.9215720  25.3231798   7.8094052  89.5552203  25.4761192
   6.6379707  89.2630452  24.5627438  15.1379420  73.2870436  20.6484455
  14.2242500  73.5174663  20.8166662  15.5672521  73.3708880  21.4998487
  14.9085878  81.4760328  23.1484349  14.2557329  81.7236235  22.4936801
  15.2866258  80.6624466  22.8146826  10.9573451  82.2180139  29.6350386
  10.2814088  82.1174268  30.3052761  11.7801085  82.0619352  30.0986383
   4.6760727  75.8722216  24.4729886   4.7402054  76.7337047  24.0607284
   4.6127848  75.2596218  23.7402245   4.1513000  77.9445349  28.1202921
   4.7785039  77.5622426  28.7340445   3.2940919  77.7259550  28.4858613
  14.5507109  88.3508324  29.7256656  15.0947013  88.9638282  29.2311611
  13.9693953  88.9087902  30.2423669  12.8364621  91.4729042  20.8571684
  12.7115761  90.6718782  20.3482629  13.4943713  91.9675235  20.3685654
   4.4572790  77.8277774  20.0348824   3.7359375  78.4413742  19.8956297
   5.2466045  78.3635539  19.9565470  14.8999530  89.2738062  22.4851234
  13.9529865  89.1543413  22.4129561  15.2482303  88.3860560  22.5677495
   7.2599103  75.1632201  26.3089476   7.7833505  75.4094497  27.0715785
   7.0411437  75.9952236  25.8892613  15.5080085  89.8919337  19.7720459
  16.4326632  89.6862198  19.6344910  15.3395388  89.6435738  20.6809800
   8.4651648  76.1045896  23.9939146   8.1248469  75.3053709  24.3959826
   7.7590655  76.4047607  23.4215980   9.1168120  73.1895208  22.4466469
   9.9394189  72.7155686  22.3245360   9.3606184  73.9685692  22.9465156
  11.9007477  76.9228616  13.6787703  12.1171092  77.8053254  13.3776532
  11.4201545  76.5314829  12.9493345   6.6406699  79.8814329  20.2558448
   6.4951280  80.1954632  21.1482730   6.1631903  80.4999229  19.7029347
   8.5003082  76.8716877  20.3039338   8.4864651  75.9757970  19.9671636
   9.2175510  76.8787541  20.9377624  10.3529212  77.3054217  22.3492465
  10.0946990  78.2271288  22.3476795   9.8214253  76.9084652  23.0392929
  10.7731168  73.4386168  18.7093628  10.7952865  73.5025501  17.7545607
  11.1899227  72.5990676  18.9034134  21.1514792  83.1741427  16.7472850
  21.5945938  82.4248752  16.3491973  20.2741303  83.1651564  16.3646582
   1.9018383  81.5489570  26.0876266   1.1600119  81.6972205  26.6740896
   1.5811127  81.8097835  25.2243015  18.1841997  87.1771474  13.7566779
  18.7093321  87.5158747  13.0316099  18.0964349  86.2418489  13.5729914
   9.8462046  91.0905548  25.8856656  10.1549172  90.8454695  26.7579356
  10.6437528  91.2952186  25.3975526   7.3881057  77.2663255  29.7816840
   7.4369213  78.1425377  29.3994610   7.9303571  76.7240648  29.2088484
  17.8735903  87.8104378  29.0617977  17.0831447  87.7928517  28.5222477
  17.6369257  88.3492671  29.8167014  17.9933778  84.6596844  26.3750706
  18.0431783  84.4946852  27.3166229  17.8847701  83.7924103  25.9848587
  15.2837540  80.6427772  27.6910013  16.1847403  80.5034237  27.3994010
  15.3585515  80.8082227  28.6308190   9.6180346  78.0194627  26.5363199
   8.7483655  78.3128193  26.2645788   9.8539826  78.6035072  27.2570463
  19.4951975  87.0793786  26.6192727  19.2036783  87.4423766  27.4556188
  18.8824106  86.3660794  26.4406060  20.6947657  84.6446665  19.1395298
  21.5294548  85.0836470  19.3032858  20.8306786  84.1685319  18.3203543
  17.7439163  82.2026400  25.0872785  18.2193285  82.3954047  24.2791637
  16.8204728  82.2585586  24.8416169  12.3219380  74.2374244  24.0528619
  12.8401323  74.9735271  23.7275108  11.9674512  74.5438237  24.8875378
  12.5731974  70.6574526  19.5729516  12.8533727  69.9897715  20.1989942
  13.3582581  70.8503622  19.0604180  16.4440832  79.0792160  23.3201091
  17.3958255  79.1790258  23.3413315  16.2744282  78.2870429  23.8299175
  14.4655211  76.1647744  23.5060492  13.8705144  76.4452756  22.8106981
  14.1804908  76.6541645  24.2777233  18.9228910  82.2998280  22.4343391
  18.8905230  81.3614281  22.6203075  19.5329533  82.3782317  21.7009216
  19.0723398  79.0909323  22.4801674  18.5562447  78.3067780  22.2931603
  19.9563347  78.7628040  22.6448193  16.7334125  72.8350339  18.4397487
  16.5358946  72.5265427  19.3240819  17.3433831  73.5611978  18.5695416
  24.7405460  83.3614287  21.5749428  25.4708848  83.0999575  22.1357131
  24.1312405  82.6243009  21.6151495  22.8220757  81.5022149  22.1723879
  22.0953920  81.3678114  21.5640370  22.4068044  81.8098978  22.9780597
  10.6450933  85.2212079  29.9371252  11.5653943  85.3990678  30.1311298
  10.6100516  84.2768125  29.7850951   3.6413006  83.1313114  22.5794033
   3.8599016  84.0630222  22.5982067   4.0538780  82.7721088  23.3648837
  10.5617224  73.6381199  14.5669721   9.7517952  73.2928284  14.9424967
  11.2501640  73.3288743  15.1557333  12.4907772  72.7159246  16.1894018
  13.0438810  73.1354699  16.8484041  12.7277858  71.7894994  16.2316974
   8.5140871  78.7046320  31.9696782   8.4137598  79.6540677  31.9008873
   8.2962413  78.3764558  31.0972852  15.8686579  74.8259771  15.6972682
  15.2885248  75.4844575  15.3150735  15.6022512  74.0037116  15.2860100
  14.3190145  74.2264829  17.8994003  14.8189924  74.3381363  17.0908321
  14.9625753  73.9225882  18.5394811   8.3772141  82.1343458  30.7861843
   7.8939223  82.9343819  30.9925733   8.4633080  82.1451403  29.8329287
   4.8944861  84.5949109  25.3901075   5.7137750  85.0893188  25.4135912
   5.1681668  83.6781077  25.3618642  14.6511457  76.9859861  14.7529030
  13.7637312  77.2709512  14.5349225  15.0665446  76.8253625  13.9056307
  18.0025993  77.0106382  18.4683370  18.7786383  77.5002835  18.7407987
  17.2774127  77.4364437  18.9255239  20.4398552  77.7234002  19.5257310
  21.0343043  77.4829738  18.8150619  20.5125135  77.0041132  20.1530847
  14.6252481  82.5014397  14.9679321  14.5687682  82.9582949  14.1286953
  15.1780823  81.7405082  14.7902163  18.4357287  78.2904129  15.7929440
  18.1794221  77.8900765  16.6237648  17.8110155  79.0047923  15.6679579
  22.7469624  81.0300203  18.3000731  22.1869182  81.0993392  19.0732294
  22.1413128  80.8541187  17.5800228  12.6733167  85.9968091  31.5885413
  13.5424327  86.1708743  31.2272047  12.1939919  86.8162507  31.4661142
  12.4835505  69.7870064  16.0963105  11.7167901  69.2328551  16.2419787
  12.8946210  69.8591933  16.9577257   4.4877266  76.0754860  30.1868286
   5.3508728  75.7191665  30.3971611   3.9142677  75.7368755  30.8743690
  24.3325643  97.7056716  20.9930687  24.9704053  97.5863464  20.2894027
  24.2146486  98.6537560  21.0518639  21.1415349  97.6584145  20.9292212
  20.8033861  97.5425209  20.0412747  22.0105117  97.2575310  20.9093218
  21.6235132  98.8118996  26.8878417  21.6123773  98.4171795  26.0158921
  21.7855772  98.0785069  27.4812189  18.3442393 101.5956108  25.8357601
  18.0532259 102.5001739  25.7204268  18.9799378 101.6372636  26.5501671
  19.2698600  98.9732957  22.4258961  19.8662172  98.7488979  21.7115924
  19.3273572  98.2317702  23.0284409  23.8866911  95.4308170  18.0683895
  24.6730001  95.0127593  17.7174312  24.1505616  96.3354263  18.2365544
  29.2875339  95.3683404  18.9716874  30.0200510  94.7982620  19.2054703
  28.5314694  94.9805004  19.4123379  26.8100759  89.0804978  23.4311482
  26.4784084  89.9500389  23.2072697  26.2146372  88.7641262  24.1105513
  23.3032278 101.2817524  22.8307395  23.0033002 102.1842562  22.7223202
  22.9583338 101.0149707  23.6828548  26.7029422  93.8000064  20.5104832
  25.7946300  93.7315472  20.2163593  26.6517018  94.2772009  21.3386658
  20.7770288  95.2189709  28.4539730  20.0003622  95.7783630  28.4442594
  21.4160851  95.7046492  28.9754600  28.5691069  92.0016502  22.2882706
  27.9265449  92.2949035  21.6422501  28.0645997  91.8869423  23.0935903
  26.2231232  95.7479675  12.9768566  27.1349088  95.9807062  12.8016263
  25.7140879  96.3316720  12.4143644  19.0316660  98.0275163  28.0157697
  19.7731345  98.5660207  27.7392520  18.3253646  98.6541452  28.1729248
  24.5072000 100.1704303  26.6129858  24.9155356  99.7286714  25.8684491
  23.7849261  99.5956931  26.8664051  20.8603070  95.1076910  23.9863415
  21.7064265  95.5316324  24.1298064  20.8001708  94.4510534  24.6801978
  24.8300815 100.7305494  20.3682147  24.2009677 100.8951208  19.6658215
  24.4426477 101.1447103  21.1393111  28.7090046 101.6659932  17.7226511
  28.0241085 102.0458833  17.1723544  28.7933896 102.2755258  18.4558459
  24.0102515  92.7681278  25.6444589  23.7663447  93.5223339  25.1078864
  24.2862446  93.1466626  26.4791836  25.9640978  99.3119891  24.3221854
  26.1757873  99.9551651  23.6456235  25.9170726  98.4782207  23.8543784
  23.5667207  91.9237711  21.2258426  22.7051686  92.2218965  21.5175164
  23.5929642  92.1408110  20.2939459  17.7678024  95.1814811  28.8173007
  17.1376685  95.8631092  29.0508404  17.6614112  95.0697893  27.8726145
  27.0786806 102.1891846  22.4944212  27.9004250 101.7872033  22.2126893
  27.0749209 102.0860080  23.4460328  20.8443409 101.7375889  24.6504922
  20.9087842 102.1996297  25.4863094  20.1354333 101.1073254  24.7787232
  35.1692799  98.5330595  18.8429183  34.4156507  97.9637993  18.6873188
  35.3040340  98.4993259  19.7899818  17.0458767  89.4835577  31.1798258
  16.6525712  88.9301775  31.8545902  17.8624907  89.7946155  31.5704775
  19.9626728  90.8993456  28.7718514  20.7036441  91.5000609  28.6922977
  20.1944651  90.1571094  28.2136557  15.1068066  96.0849823  27.0496744
  14.9921581  95.1835080  27.3503843  14.2512584  96.3313520  26.6981561
  22.1859904 104.0267563  28.6484245  21.7423758 103.2403942  28.3305149
  22.8477117 104.2146714  27.9828135  24.2841142 104.3070363  26.6765646
  24.2659617 105.1279244  26.1845915  25.2061062 104.1824439  26.9015787
  20.7414196 101.8214493  27.5189154  21.2742533 101.0602781  27.2888462
  20.2128277 101.5288145  28.2613309  23.9083891  86.9274559  23.0482796
  23.5648160  87.8176200  22.9721907  24.2762853  86.7376216  22.1852381
  21.4581284  91.7632871  16.6140469  20.6022881  91.3739721  16.4346108
  21.8708236  91.8424832  15.7540255  22.9880431  89.2979214  21.0132029
  22.4845227  89.2609349  20.1999835  23.2811038  90.2071957  21.0728686
  19.2323317  89.3817944  20.0198211  20.0976314  89.1860752  19.6604100
  19.3000826  89.1528295  20.9467568  28.8468448  99.6715525  13.4908405
  28.0697890  99.3326684  13.0463567  29.5259929  99.6768148  12.8163370
  23.6620477  94.7910262  13.3815012  23.3570612  95.1056411  14.2325155
  24.6150919  94.8691682  13.4242345  27.0859754  99.1449506  20.1475013
  26.4283429  99.8348767  20.2355141  27.8900154  99.5345938  20.4908999
  16.8385636  91.6120152  17.3914578  17.4129388  91.3895333  16.6587771
  17.4256618  91.6808846  18.1443179  25.8965213  97.4993879  18.1978954
  26.4097095  98.1323870  18.7000664  26.5466437  96.8995074  17.8322314
  19.1408304  88.4861401  16.1189647  18.4872716  88.1710418  15.4946262
  19.0988778  87.8637141  16.8449470  22.3746044  94.9743334  20.4437295
  21.4568605  95.1958281  20.2858983  22.7906188  95.0489645  19.5849002
  23.1581092  96.3734750  15.5739975  23.9052911  96.8856147  15.2647097
  23.4272681  96.0518802  16.4344369  26.6627009 102.4799880  16.3258097
  26.2089337 101.6390790  16.3823287  26.0320976 103.1161278  16.6632877
  25.6059929  93.4091866  17.5558764  24.8682686  92.8969252  17.8869007
  25.8586703  92.9692248  16.7442041  25.7071556  86.1868118  18.1500534
  26.0130433  85.3265481  17.8626449  26.4324161  86.7785738  17.9499528
  19.9792636  96.4821911  18.6576725  20.0341246  95.5295747  18.5819201
  19.1683838  96.6381350  19.1418023  23.5159208  95.5640795  25.2481998
  23.8708595  95.7912268  26.1076463  24.1631339  95.8959172  24.6259253
  29.2456945  98.6859231  15.9531327  29.1074843  98.8760827  15.0252516
  28.8893163  99.4478614  16.4099378  17.4099071  92.6717326  22.0328339
  18.0498450  92.5306085  21.3351302  16.5776601  92.3851840  21.6566941
  29.2726324 100.7535758  20.9642598  29.7062831 100.6611047  21.8125652
  29.9857905 100.7293259  20.3262614  23.0054219 104.3537852  22.4975699
  23.0591241 104.9228789  23.2653415  22.1369001 104.5239737  22.1329736
  15.8852613  94.0555408  23.9800150  16.5575666  93.8472771  23.3312799
  15.0582399  93.8577494  23.5405382  30.1341874 100.7959459  23.4975483
  30.3277764 101.7005269  23.7434758  30.0342492 100.3366878  24.3314068
  21.7878185  90.6817349  25.9965811  21.1406100  91.3807299  25.9030287
  22.5579200  91.1153493  26.3642059  25.1956982 100.9466202  29.0716364
  25.0442489 100.7176753  28.1546448  25.1861662 101.9036803  29.0847709
  21.9642319  98.5198114  24.0562630  22.8934379  98.6709274  23.8831598
  21.5433349  98.6082135  23.2011277  20.7630651 102.5448779  21.8261168
  20.6241736 102.1767563  22.6987106  19.9745247 103.0596418  21.6545126
  22.3135866 101.9230381  19.2150006  21.9785698 101.8831151  20.1107656
  21.8139811 101.2575097  18.7420416  16.2880110  97.3298011  24.7402587
  16.1499908  96.5978250  25.3414126  17.1985033  97.2406912  24.4586775
  18.9162410  97.0417971  24.2286267  19.6262029  96.4011163  24.1872885
  18.8731719  97.2930866  25.1512447  26.9049189 103.9785324  27.1492846
  26.8461735 103.2944544  26.4823429  27.3068708 104.7204314  26.6973472
  17.6291344  94.0283189  26.0481906  17.0928701  93.5773927  26.7003503
  17.0408053  94.1629098  25.3052371  26.9066596 101.9424908  25.3806826
  26.0193375 101.6050830  25.5033224  27.4765147 101.2107939  25.6175591
  13.3630466  93.1639196  23.1334901  13.2788654  92.5564866  22.3985311
  12.5413172  93.6548215  23.1344397  23.5354180  91.6492760  18.5005096
  24.0322879  90.8962722  18.1806166  22.7641161  91.6857077  17.9348305
  31.3883937  97.3533125  20.1423387  31.3773813  98.2357841  19.7717320
  30.5201316  97.0004676  19.9477924  22.8966433 106.5013194  24.5026227
  23.6094406 107.1360659  24.4302129  22.4056462 106.5977060  23.6866229
  24.6183960 100.4064447  16.0743519  23.6840239 100.5265910  15.9048223
  24.7960629  99.5036914  15.8103529  20.1189148  93.7910143  18.2276780
  19.7486936  93.2381183  18.9157686  20.6148241  93.1868276  17.6751780
  28.0056512  96.2481766  16.6093553  28.4716964  97.0809758  16.5353856
  28.4564012  95.7826748  17.3138812  17.9478347 104.2507638  25.3231798
  18.6487806 104.8844121  25.4761192  17.4773462 104.5922369  24.5627438
  25.9773174  88.6162353  20.6484455  25.0636254  88.8466580  20.8166662
  26.4066276  88.7000797  21.4998487  25.7479633  96.8052245  23.1484349
  25.0951083  97.0528153  22.4936801  26.1260013  95.9916384  22.8146826
  21.7967206  97.5472056  29.6350386  21.1207843  97.4466186  30.3052761
  22.6194840  97.3911270  30.0986383  15.5154482  91.2014134  24.4729886
  15.5795808  92.0628965  24.0607284  15.4521602  90.5888135  23.7402245
  14.9906754  93.2737266  28.1202921  15.6178793  92.8914344  28.7340445
  14.1334673  93.0551468  28.4858613  25.3900863 103.6800241  29.7256656
  25.9340767 104.2930200  29.2311611  24.8087708 104.2379820  30.2423669
  23.6758376 106.8020959  20.8571684  23.5509515 106.0010699  20.3482629
  24.3337467 107.2967153  20.3685654  15.2966544  93.1569692  20.0348824
  14.5753130  93.7705660  19.8956297  16.0859800  93.6927457  19.9565470
  25.7393284 104.6029979  22.4851234  24.7923620 104.4835331  22.4129561
  26.0876057 103.7152478  22.5677495  18.0992858  90.4924118  26.3089476
  18.6227260  90.7386415  27.0715785  17.8805191  91.3244153  25.8892613
  26.3473840 105.2211254  19.7720459  27.2720387 105.0154116  19.6344910
  26.1789143 104.9727656  20.6809800  19.3045403  91.4337814  23.9939146
  18.9642223  90.6345627  24.3959826  18.5984409  91.7339524  23.4215980
  19.9561875  88.5187126  22.4466469  20.7787944  88.0447604  22.3245360
  20.1999938  89.2977610  22.9465156  22.7401232  92.2520533  13.6787703
  22.9564846  93.1345171  13.3776532  22.2595299  91.8606747  12.9493345
  17.4800453  95.2106247  20.2558448  17.3345034  95.5246550  21.1482730
  17.0025657  95.8291147  19.7029347  19.3396836  92.2008795  20.3039338
  19.3258405  91.3049888  19.9671636  20.0569264  92.2079458  20.9377624
  21.1922967  92.6346135  22.3492465  20.9340745  93.5563205  22.3476795
  20.6608007  92.2376569  23.0392929  21.6124923  88.7678085  18.7093628
  21.6346619  88.8317418  17.7545607  22.0292982  87.9282594  18.9034134
  31.9908547  98.5033345  16.7472850  32.4339693  97.7540670  16.3491973
  31.1135057  98.4943481  16.3646582  12.7412137  96.8781487  26.0876266
  11.9993873  97.0264123  26.6740896  12.4204882  97.1389753  25.2243015
  29.0235751 102.5063392  13.7566779  29.5487075 102.8450665  13.0316099
  28.9358104 101.5710407  13.5729914  20.6855800 106.4197465  25.8856656
  20.9942926 106.1746612  26.7579356  21.4831282 106.6244104  25.3975526
  18.2274812  92.5955172  29.7816840  18.2762967  93.4717295  29.3994610
  18.7697326  92.0532565  29.2088484  28.7129657 103.1396295  29.0617977
  27.9225201 103.1220434  28.5222477  28.4763012 103.6784589  29.8167014
  28.8327532  99.9888762  26.3750706  28.8825537  99.8238769  27.3166229
  28.7241456  99.1216021  25.9848587  26.1231295  95.9719690  27.6910013
  27.0241158  95.8326155  27.3994010  26.1979269  96.1374145  28.6308190
  20.4574100  93.3486545  26.5363199  19.5877410  93.6420111  26.2645788
  20.6933581  93.9326990  27.2570463  30.3345729 102.4085703  26.6192727
  30.0430538 102.7715684  27.4556188  29.7217861 101.6952712  26.4406060
  31.5341412  99.9738583  19.1395298  32.3688303 100.4128387  19.3032858
  31.6700540  99.4977236  18.3203543  28.5832918  97.5318318  25.0872785
  29.0587039  97.7245964  24.2791637  27.6598483  97.5877504  24.8416169
  23.1613134  89.5666162  24.0528619  23.6795078  90.3027188  23.7275108
  22.8068267  89.8730155  24.8875378  23.4125728  85.9866444  19.5729516
  23.6927482  85.3189633  20.1989942  24.1976335  86.1795540  19.0604180
  27.2834587  94.4084078  23.3201091  28.2352009  94.5082176  23.3413315
  27.1138037  93.6162347  23.8299175  25.3048966  91.4939661  23.5060492
  24.7098898  91.7744674  22.8106981  25.0198663  91.9833562  24.2777233
  29.7622664  97.6290198  22.4343391  29.7298984  96.6906198  22.6203075
  30.3723288  97.7074234  21.7009216  29.9117153  94.4201241  22.4801674
  29.3956201  93.6359698  22.2931603  30.7957101  94.0919958  22.6448193
  27.5727880  88.1642257  18.4397487  27.3752701  87.8557345  19.3240819
  28.1827585  88.8903896  18.5695416  35.5799214  98.6906205  21.5749428
  36.3102603  98.4291493  22.1357131  34.9706160  97.9534927  21.6151495
  33.6614511  96.8314067  22.1723879  32.9347675  96.6970032  21.5640370
  33.2461798  97.1390896  22.9780597  21.4844688 100.5503997  29.9371252
  22.4047697 100.7282596  30.1311298  21.4494271  99.6060042  29.7850951
  14.4806760  98.4605032  22.5794033  14.6992770  99.3922139  22.5982067
  14.8932534  98.1013006  23.3648837  21.4010978  88.9673117  14.5669721
  20.5911706  88.6220202  14.9424967  22.0895395  88.6580661  15.1557333
  23.3301526  88.0451164  16.1894018  23.8832565  88.4646617  16.8484041
  23.5671613  87.1186912  16.2316974  19.3534626  94.0338237  31.9696782
  19.2531352  94.9832594  31.9008873  19.1356168  93.7056476  31.0972852
  26.7080333  90.1551689  15.6972682  26.1279002  90.8136493  15.3150735
  26.4416266  89.3329033  15.2860100  25.1583900  89.5556747  17.8994003
  25.6583678  89.6673281  17.0908321  25.8019508  89.2517799  18.5394811
  19.2165896  97.4635376  30.7861843  18.7332977  98.2635736  30.9925733
  19.3026835  97.4743321  29.8329287  15.7338615  99.9241027  25.3901075
  16.5531504 100.4185106  25.4135912  16.0075423  99.0072995  25.3618642
  25.4905211  92.3151779  14.7529030  24.6031066  92.6001430  14.5349225
  25.9059201  92.1545543  13.9056307  28.8419748  92.3398300  18.4683370
  29.6180138  92.8294753  18.7407987  28.1167882  92.7656354  18.9255239
  31.2792306  93.0525919  19.5257310  31.8736797  92.8121655  18.8150619
  31.3518890  92.3333050  20.1530847  25.4646235  97.8306315  14.9679321
  25.4081437  98.2874867  14.1286953  26.0174578  97.0697000  14.7902163
  29.2751041  93.6196047  15.7929440  29.0187975  93.2192683  16.6237648
  28.6503909  94.3339841  15.6679579  33.5863379  96.3592120  18.3000731
  33.0262937  96.4285310  19.0732294  32.9806882  96.1833105  17.5800228
  10.9873529  94.2579161  26.0893272  11.6332393  93.7478115  26.5780497
  10.7790681  94.9947842  26.6636697  23.5126922 101.3260008  31.5885413
  24.3818081 101.5000661  31.2272047  23.0333673 102.1454425  31.4661142
  23.3229259  85.1161982  16.0963105  22.5561655  84.5620469  16.2419787
  23.7339964  85.1883851  16.9577257  15.3271020  91.4046778  30.1868286
  16.1902482  91.0483583  30.3971611  14.7536431  91.0660673  30.8743690
  34.7260666 110.7600088  18.0683895  35.5123755 110.3419511  17.7174312
  34.9899370 111.6646180  18.2365544  40.1269093 110.6975321  18.9716874
  40.8594265 110.1274538  19.2054703  39.3708449 110.3096922  19.4123379
  37.6494513 104.4096895  23.4311482  37.3177838 105.2792306  23.2072697
  37.0540127 104.0933179  24.1105513  37.5423177 109.1291981  20.5104832
  36.6340054 109.0607390  20.2163593  37.4910772 109.6063926  21.3386658
  31.6164042 110.5481627  28.4539730  30.8397377 111.1075547  28.4442594
  32.2554606 111.0338410  28.9754600  39.4084823 107.3308420  22.2882706
  38.7659203 107.6240953  21.6422501  38.9039752 107.2161340  23.0935903
  37.0624987 111.0771593  12.9768566  37.9742843 111.3098980  12.8016263
  36.5534634 111.6608637  12.4143644  31.6996824 110.4368828  23.9863415
  32.5458020 110.8608241  24.1298064  31.6395462 109.7802452  24.6801978
  34.8496270 108.0973196  25.6444589  34.6057202 108.8515257  25.1078864
  35.1256200 108.4758544  26.4791836  34.4060962 107.2529629  21.2258426
  33.5445441 107.5510883  21.5175164  34.4323396 107.4700028  20.2939459
  46.0086554 113.8622512  18.8429183  45.2550262 113.2929910  18.6873188
  46.1434095 113.8285177  19.7899818  27.8852521 104.8127494  31.1798258
  27.4919467 104.2593693  31.8545902  28.7018662 105.1238073  31.5704775
  30.8020482 106.2285374  28.7718514  31.5430196 106.8292527  28.6922977
  31.0338405 105.4863011  28.2136557  34.7477645 102.2566476  23.0482796
  34.4041915 103.1468118  22.9721907  35.1156608 102.0668134  22.1852381
  32.2975039 107.0924788  16.6140469  31.4416635 106.7031639  16.4346108
  32.7101991 107.1716749  15.7540255  33.8274186 104.6271132  21.0132029
  33.3238981 104.5901267  20.1999835  34.1204792 105.5363874  21.0728686
  30.0717071 104.7109861  20.0198211  30.9370068 104.5152670  19.6604100
  30.1394580 104.4820213  20.9467568  39.6862202 115.0007442  13.4908405
  38.9091645 114.6618602  13.0463567  40.3653683 115.0060065  12.8163370
  34.5014231 110.1202180  13.3815012  34.1964367 110.4348329  14.2325155
  35.4544673 110.1983600  13.4242345  27.6779391 106.9412069  17.3914578
  28.2523142 106.7187251  16.6587771  28.2650373 107.0100764  18.1443179
  36.7358968 112.8285796  18.1978954  37.2490849 113.4615788  18.7000664
  37.3860192 112.2286992  17.8322314  29.9802058 103.8153318  16.1189647
  29.3266471 103.5002335  15.4946262  29.9382532 103.1929059  16.8449470
  33.2139799 110.3035252  20.4437295  32.2962360 110.5250199  20.2858983
  33.6299942 110.3781562  19.5849002  33.9974846 111.7026667  15.5739975
  34.7446665 112.2148065  15.2647097  34.2666436 111.3810720  16.4344369
  36.4453684 108.7383784  17.5558764  35.7076440 108.2261170  17.8869007
  36.6980457 108.2984165  16.7442041  36.5465311 101.5160036  18.1500534
  36.8524188 100.6557399  17.8626449  37.2717916 102.1077656  17.9499528
  34.3552962 110.8932713  25.2481998  34.7102350 111.1204186  26.1076463
  35.0025093 111.2251090  24.6259253  40.0850699 114.0151149  15.9531327
  39.9468598 114.2052745  15.0252516  39.7286918 114.7770532  16.4099378
  28.2492825 108.0009244  22.0328339  28.8892205 107.8598003  21.3351302
  27.4170356 107.7143757  21.6566941  26.7246367 109.3847326  23.9800150
  27.3969420 109.1764688  23.3312799  25.8976154 109.1869412  23.5405382
  32.6271939 106.0109267  25.9965811  31.9799854 106.7099217  25.9030287
  33.3972954 106.4445411  26.3642059  28.4685099 109.3575106  26.0481906
  27.9322456 108.9065845  26.7003503  27.8801807 109.4921015  25.3052371
  24.2024220 108.4931114  23.1334901  24.1182409 107.8856784  22.3985311
  23.3806927 108.9840132  23.1344397  34.3747934 106.9784678  18.5005096
  34.8716634 106.2254640  18.1806166  33.6034916 107.0148994  17.9348305
  42.2277691 112.6825043  20.1423387  42.2167568 113.5649759  19.7717320
  41.3595071 112.3296594  19.9477924  30.9582903 109.1202061  18.2276780
  30.5880690 108.5673101  18.9157686  31.4541995 108.5160194  17.6751780
  38.8450266 111.5773684  16.6093553  39.3110718 112.4101676  16.5353856
  39.2957767 111.1118666  17.3138812  36.8166929 103.9454271  20.6484455
  35.9030009 104.1758498  20.8166662  37.2460030 104.0292715  21.4998487
  36.5873387 112.1344163  23.1484349  35.9344838 112.3820070  22.4936801
  36.9653767 111.3208301  22.8146826  26.3548236 106.5306051  24.4729886
  26.4189563 107.3920882  24.0607284  26.2915357 105.9180053  23.7402245
  25.8300509 108.6029184  28.1202921  26.4572548 108.2206261  28.7340445
  24.9728428 108.3843386  28.4858613  26.1360299 108.4861610  20.0348824
  25.4146884 109.0997577  19.8956297  26.9253554 109.0219374  19.9565470
  28.9386612 105.8216036  26.3089476  29.4621014 106.0678333  27.0715785
  28.7198946 106.6536071  25.8892613  30.1439157 106.7629731  23.9939146
  29.8035978 105.9637544  24.3959826  29.4378164 107.0631442  23.4215980
  30.7955629 103.8479044  22.4466469  31.6181698 103.3739522  22.3245360
  31.0393693 104.6269527  22.9465156  33.5794986 107.5812451  13.6787703
  33.7958601 108.4637089  13.3776532  33.0989054 107.1898664  12.9493345
  30.1790591 107.5300712  20.3039338  30.1652160 106.6341806  19.9671636
  30.8963019 107.5371376  20.9377624  32.0316721 107.9638052  22.3492465
  31.7734499 108.8855123  22.3476795  31.5001762 107.5668487  23.0392929
  32.4518677 104.0970003  18.7093628  32.4740374 104.1609336  17.7545607
  32.8686736 103.2574512  18.9034134  42.8302301 113.8325262  16.7472850
  43.2733447 113.0832588  16.3491973  41.9528812 113.8235399  16.3646582
  29.0668566 107.9247090  29.7816840  29.1156722 108.8009213  29.3994610
  29.6091080 107.3824483  29.2088484  36.9625049 111.3011608  27.6910013
  37.8634912 111.1618072  27.3994010  37.0373024 111.4666062  28.6308190
  31.2967855 108.6778462  26.5363199  30.4271164 108.9712028  26.2645788
  31.5327335 109.2618907  27.2570463  42.3735166 115.3030501  19.1395298
  43.2082057 115.7420305  19.3032858  42.5094295 114.8269154  18.3203543
  39.4226672 112.8610236  25.0872785  39.8980794 113.0537882  24.2791637
  38.4992237 112.9169421  24.8416169  34.0006888 104.8958079  24.0528619
  34.5188832 105.6319106  23.7275108  33.6462021 105.2022073  24.8875378
  34.2519483 101.3158362  19.5729516  34.5321236 100.6481551  20.1989942
  35.0370090 101.5087457  19.0604180  38.1228341 109.7375996  23.3201091
  39.0745764 109.8374093  23.3413315  37.9531791 108.9454264  23.8299175
  36.1442720 106.8231579  23.5060492  35.5492653 107.1036592  22.8106981
  35.8592417 107.3125480  24.2777233  40.6016419 112.9582115  22.4343391
  40.5692739 112.0198116  22.6203075  41.2117042 113.0366152  21.7009216
  40.7510907 109.7493159  22.4801674  40.2349956 108.9651615  22.2931603
  41.6350856 109.4211875  22.6448193  38.4121634 103.4934174  18.4397487
  38.2146455 103.1849263  19.3240819  39.0221340 104.2195813  18.5695416
  46.4192969 114.0198122  21.5749428  47.1496357 113.7583410  22.1357131
  45.8099914 113.2826844  21.6151495  44.5008266 112.1605985  22.1723879
  43.7741429 112.0261950  21.5640370  44.0855553 112.4682813  22.9780597
  32.2404733 104.2965034  14.5669721  31.4305461 103.9512119  14.9424967
  32.9289149 103.9872578  15.1557333  34.1695281 103.3743081  16.1894018
  34.7226319 103.7938535  16.8484041  34.4065367 102.4478829  16.2316974
  30.1928380 109.3630155  31.9696782  30.0925107 110.3124512  31.9008873
  29.9749922 109.0348394  31.0972852  37.5474088 105.4843606  15.6972682
  36.9672757 106.1428410  15.3150735  37.2810021 104.6620951  15.2860100
  35.9977654 104.8848664  17.8994003  36.4977433 104.9965199  17.0908321
  36.6413262 104.5809717  18.5394811  36.3298966 107.6443697  14.7529030
  35.4424821 107.9293347  14.5349225  36.7452955 107.4837460  13.9056307
  39.6813502 107.6690218  18.4683370  40.4573892 108.1586670  18.7407987
  38.9561636 108.0948272  18.9255239  42.1186061 108.3817837  19.5257310
  42.7130551 108.1413573  18.8150619  42.1912644 107.6624968  20.1530847
  36.3039990 113.1598233  14.9679321  36.2475191 113.6166784  14.1286953
  36.8568332 112.3988917  14.7902163  40.1144796 108.9487965  15.7929440
  39.8581730 108.5484600  16.6237648  39.4897664 109.6631759  15.6679579
  44.4257133 111.6884038  18.3000731  43.8656691 111.7577227  19.0732294
  43.8200637 111.5125023  17.5800228  34.1623014 100.4453900  16.0963105
  33.3955410  99.8912386  16.2419787  34.5733719 100.5175768  16.9577257
  26.1664775 106.7338695  30.1868286  27.0296237 106.3775500  30.3971611
  25.5930186 106.3952590  30.8743690  47.3859065 116.8451953  18.1500534
  47.6917942 115.9849317  17.8626449  48.1111670 117.4369574  17.9499528
  45.0913237 116.6450279  19.5729516  45.3714991 115.9773468  20.1989942
  45.8763844 116.8379375  19.0604180  45.0016768 115.7745817  16.0963105
  44.2349164 115.2204304  16.2419787  45.4127473 115.8467686  16.9577257
   3.7113355  50.0278529  16.4501963   4.2553259  50.6408487  15.9556918
   3.1300200  50.5858107  16.9668976   7.0342150  49.4874583  15.7863284
   6.2437693  49.4698722  15.2467783   6.7975504  50.0262876  16.5412321
   1.8339414  47.6738295  18.3130719   2.7030574  47.8478948  17.9517354
   1.3546165  48.4932712  18.1906449  13.4931890  59.3826921   7.7175994
  14.1310300  59.2633669   7.0139334  13.3752733  60.3307765   7.7763946
  10.7841379  60.4889201  13.6123724  10.7730020  60.0942000  12.7404228
  10.9462018  59.7555274  14.2057496   7.5048640  63.2726313  12.5602908
   7.2138506  64.1771944  12.4449574   8.1405624  63.3142841  13.2746978
   8.4304847  60.6503162   9.1504268   9.0268419  60.4259184   8.4361231
   8.4879818  59.9087907   9.7529716  18.4481585  57.0453608   5.6962180
  19.1806757  56.4752825   5.9300010  17.6920941  56.6575209   6.1368686
  15.9707006  50.7575183  10.1556789  15.6390330  51.6270594   9.9318004
  15.3752619  50.4411467  10.8350819  12.4638525  62.9587729   9.5552702
  12.1639248  63.8612767   9.4468509  12.1189585  62.6919912  10.4073855
   9.9376535  56.8959914  15.1785036   9.1609869  57.4553834  15.1687901
  10.5767098  57.3816697  15.6999906  17.7297315  53.6786707   9.0128013
  17.0871696  53.9719240   8.3667808  17.2252244  53.5639627   9.8181210
   8.1922907  59.7045368  14.7403003   8.9337591  60.2430412  14.4637827
   7.4859893  60.3311656  14.8974555  13.6678247  61.8474508  13.3375165
  14.0761603  61.4056919  12.5929797  12.9455508  61.2727136  13.5909358
  10.0209317  56.7847115  10.7108722  10.8670512  57.2086528  10.8543371
   9.9607954  56.1280739  11.4047285  13.9907061  62.4075699   7.0927454
  13.3615924  62.5721413   6.3903522  13.6032723  62.8217308   7.8638418
  17.8696293  63.3430137   4.4471817  17.1847331  63.7229038   3.8968851
  17.9540143  63.9525463   5.1803765  13.1708762  54.4451483  12.3689895
  12.9269694  55.1993544  11.8324171  13.4468693  54.8236831  13.2037142
  15.1247225  60.9890096  11.0467161  15.3364120  61.6321856  10.3701542
  15.0776973  60.1552412  10.5789091   6.9284271  56.8585016  15.5418313
   6.2982931  57.5401297  15.7753710   6.8220359  56.7468097  14.5971452
  16.2393053  63.8662051   9.2189518  17.0610497  63.4642238   8.9372200
  16.2355456  63.7630285  10.1705634  10.0049656  63.4146094  11.3750229
  10.0694089  63.8766502  12.2108401   9.2960580  62.7843459  11.5032539
  24.3299046  60.2100800   5.5674490  23.5762754  59.6408198   5.4118494
  24.4646587  60.1763464   6.5145125   6.2065014  51.1605782  17.9043564
   5.8131959  50.6071980  18.5791209   7.0231154  51.4716360  18.2950082
   9.1232975  52.5763661  15.4963821   9.8642688  53.1770814  15.4168283
   9.3550897  51.8341299  14.9381864   4.2674313  57.7620028  13.7742051
   4.1527828  56.8605285  14.0749150   3.4118830  58.0083725  13.4226867
  11.3466150  65.7037768  15.3729551  10.9030004  64.9174147  15.0550456
  12.0083364  65.8916919  14.7073442  13.4447388  65.9840568  13.4010953
  13.4265864  66.8049449  12.9091222  14.3667308  65.8594644  13.6261094
   9.9020443  63.4984698  14.2434461  10.4348779  62.7372986  14.0133769
   9.3734524  63.2058350  14.9858615  16.2466001  60.8219711   6.8720319
  15.5889676  61.5118972   6.9600448  17.0506400  61.2116143   7.2154306
  15.8233256  64.1570085   3.0503404  15.3695583  63.3160995   3.1068594
  15.1927223  64.7931483   3.3878184  12.6765454  57.2411000  11.9727304
  13.0314842  57.4682473  12.8321770  13.3237586  57.5729377  11.3504559
  18.4332571  62.4305963   7.6887905  18.8669078  62.3381252   8.5370959
  19.1464152  62.4063464   7.0507921  12.1660466  66.0308057   9.2221005
  12.2197488  66.5998994   9.9898721  11.2975247  66.2009942   8.8575042
  19.2948121  62.4729664  10.2220790  19.4884011  63.3775474  10.4680065
  19.1948739  62.0137083  11.0559375  10.9484431  52.3587554  12.7211117
  10.3012346  53.0577504  12.6275594  11.7185447  52.7923698  13.0887366
  14.3563229  62.6236407  15.7961671  14.2048736  62.3946958  14.8791754
  14.3467909  63.5807008  15.8093016  11.1248566  60.1968319  10.7807937
  12.0540626  60.3479479  10.6076904  10.7039596  60.2852340   9.9256584
   9.9236897  64.2218984   8.5506475   9.7847983  63.8537768   9.4232413
   9.1351494  64.7366623   8.3790433  11.4742113  63.6000586   5.9395313
  11.1391945  63.5601356   6.8352962  10.9746058  62.9345302   5.4665723
   5.4486357  59.0068216  11.4647894   5.3106154  58.2748455  12.0659433
   6.3591280  58.9177116  11.1832081   8.0768657  58.7188176  10.9531573
   8.7868276  58.0781368  10.9118192   8.0337965  58.9701071  11.8757754
  16.0655436  65.6555529  13.8738153  16.0067982  64.9714749  13.2068736
  16.4674954  66.3974519  13.4218779   6.7897591  55.7053394  12.7727213
   6.2534948  55.2544132  13.4248809   6.2014300  55.8399302  12.0297677
  16.0672843  63.6195113  12.1052132  15.1799622  63.2821035  12.2278531
  16.6371394  62.8878144  12.3420898  20.5490184  59.0303330   6.8668694
  20.5380060  59.9128046   6.4962627  19.6807563  58.6774881   6.6723231
  12.0572680  68.1783399  11.2271534  12.7700652  68.8130864  11.1547436
  11.5662709  68.2747265  10.4111536   7.1084594  65.9277843  12.0477105
   7.8094053  66.5614326  12.2006499   6.6379709  66.2692574  11.2872744
  14.9085880  58.4822450   9.8729655  14.2557330  58.7298358   9.2182108
  15.2866259  57.6686588   9.5392133  10.9573453  59.2242261  16.3595692
  10.2814090  59.1236391  17.0298068  11.7801086  59.0681475  16.8231690
   4.1513001  54.9507471  14.8448227   4.7785040  54.5684548  15.4585752
   3.2940920  54.7321673  15.2103920  14.5507110  65.3570446  16.4501963
  15.0947014  65.9700405  15.9556918  13.9693955  65.9150025  16.9668976
  12.8364623  68.4791164   7.5816991  12.7115762  67.6780904   7.0727936
  13.4943714  68.9737358   7.0930960  14.8999531  66.2800184   9.2096541
  13.9529867  66.1605536   9.1374867  15.2482304  65.3922682   9.2922802
   7.2599105  52.1694323  13.0334783   7.7833506  52.4156620  13.7961092
   7.0411438  53.0014358  12.6137920  15.5080086  66.8981459   6.4965766
  16.4326634  66.6924321   6.3590217  15.3395390  66.6497861   7.4055107
  21.1514794  60.1803550   3.4718157  21.5945940  59.4310875   3.0737280
  20.2741304  60.1713686   3.0891889   1.9018384  58.5551692  12.8121573
   1.1600120  58.7034328  13.3986203   1.5811128  58.8159958  11.9488322
   9.8462047  68.0967670  12.6101963  10.1549173  67.8516817  13.4824662
  10.6437529  68.3014309  12.1220833   7.3881058  54.2725377  16.5062147
   7.4369214  55.1487500  16.1239917   7.9303573  53.7302770  15.9333790
  17.8735904  64.8166500  15.7863284  17.0831448  64.7990639  15.2467783
  17.6369259  65.3554794  16.5412321  17.9933779  61.6658967  13.0996013
  18.0431784  61.5008974  14.0411535  17.8847703  60.7986226  12.7093893
  15.2837542  57.6489895  14.4155319  16.1847404  57.5096360  14.1239317
  15.3585516  57.8144350  15.3553497   9.6180347  55.0256750  13.2608506
   8.7483656  55.3190316  12.9891094   9.8539827  55.6097195  13.9815769
  19.4951976  64.0855908  13.3438034  19.2036784  64.4485889  14.1801495
  18.8824107  63.3722917  13.1651366  20.6947658  61.6508788   5.8640604
  21.5294550  62.0898592   6.0278165  20.8306787  61.1747441   5.0448850
  17.7439164  59.2088523  11.8118092  18.2193286  59.4016169  11.0036943
  16.8204730  59.2647709  11.5661476  16.4440833  56.0854283  10.0446398
  17.3958256  56.1852381  10.0658622  16.2744284  55.2932552  10.5544482
  14.4655213  53.1709866  10.2305799  13.8705145  53.4514879   9.5352287
  14.1804909  53.6603767  11.0022540  18.9228911  59.3060403   9.1588697
  18.8905231  58.3676403   9.3448381  19.5329535  59.3844439   8.4254522
  19.0723400  56.0971446   9.2046981  18.5562448  55.3129903   9.0176909
  19.9563348  55.7690163   9.3693500  24.7405461  60.3676410   8.2994734
  25.4708849  60.1061698   8.8602437  24.1312406  59.6305131   8.3396802
  22.8220758  58.5084272   8.8969185  22.0953922  58.3740237   8.2885677
  22.4068045  58.8161101   9.7025903  10.6450934  62.2274202  16.6616558
  11.5653944  62.4052801  16.8556605  10.6100518  61.2830247  16.5096258
   8.5140872  55.7108442  18.6942088   8.4137599  56.6602799  18.6254180
   8.2962414  55.3826681  17.8218159   8.3772142  59.1405581  17.5107150
   7.8939224  59.9405941  17.7171039   8.4633081  59.1513526  16.5574594
   4.8944862  61.6011232  12.1146382   5.7137751  62.0955310  12.1381219
   5.1681670  60.6843200  12.0863949  22.7469626  58.0362325   5.0246038
  22.1869184  58.1055514   5.7977600  22.1413129  57.8603310   4.3045534
  12.6733168  63.0030213  18.3130719  13.5424328  63.1770865  17.9517354
  12.1939920  63.8224630  18.1906449   4.4877267  53.0816983  16.9113593
   5.3508729  52.7253788  17.1216917   3.9142678  52.7430878  17.5988997
  24.3325644  74.7118839   7.7175994  24.9704054  74.5925586   7.0139334
  24.2146487  75.6599683   7.7763946  21.1415350  74.6646267   7.6537519
  20.8033862  74.5487332   6.7658053  22.0105119  74.2637432   7.6338525
  21.6235133  75.8181119  13.6123724  21.6123774  75.4233917  12.7404228
  21.7855773  75.0847192  14.2057496  18.3442395  78.6018231  12.5602908
  18.0532261  79.5063862  12.4449574  18.9799379  78.6434758  13.2746978
  19.2698601  75.9795079   9.1504268  19.8662174  75.7551102   8.4361231
  19.3273573  75.2379825   9.7529716  23.8866913  72.4370293   4.7929202
  24.6730002  72.0189716   4.4419619  24.1505617  73.3416385   4.9610850
  29.2875340  72.3745526   5.6962180  30.0200512  71.8044743   5.9300010
  28.5314695  71.9867127   6.1368686  26.8100760  66.0867100  10.1556789
  26.4784085  66.9562511   9.9318004  26.2146374  65.7703384  10.8350819
  23.3032280  78.2879646   9.5552702  23.0033003  79.1904685   9.4468509
  22.9583339  78.0211829  10.4073855  26.7029423  70.8062186   7.2350139
  25.7946301  70.7377595   6.9408900  26.6517019  71.2834131   8.0631965
  20.7770289  72.2251832  15.1785036  20.0003623  72.7845752  15.1687901
  21.4160852  72.7108615  15.6999906  28.5691070  69.0078625   9.0128013
  27.9265450  69.3011158   8.3667808  28.0645998  68.8931545   9.8181210
  26.2231234  72.7541798  -0.2986128  27.1349090  72.9869185  -0.4738430
  25.7140881  73.3378842  -0.8611049  19.0316662  75.0337285  14.7403003
  19.7731346  75.5722329  14.4637827  18.3253647  75.6603574  14.8974555
  24.5072001  77.1766426  13.3375165  24.9155357  76.7348836  12.5929797
  23.7849263  76.6019053  13.5909358  20.8603071  72.1139033  10.7108722
  21.7064266  72.5378446  10.8543371  20.8001709  71.4572657  11.4047285
  24.8300816  77.7367616   7.0927454  24.2009678  77.9013331   6.3903522
  24.4426478  78.1509226   7.8638418  28.7090048  78.6722054   4.4471817
  28.0241086  79.0520956   3.8968851  28.7933897  79.2817381   5.1803765
  24.0102517  69.7743401  12.3689895  23.7663448  70.5285461  11.8324171
  24.2862447  70.1528749  13.2037142  25.9640979  76.3182013  11.0467161
  26.1757875  76.9613773  10.3701542  25.9170728  75.4844330  10.5789091
  23.5667208  68.9299834   7.9503733  22.7051687  69.2281088   8.2420471
  23.5929643  69.1470233   7.0184766  17.7678025  72.1876934  15.5418313
  17.1376686  72.8693214  15.7753710  17.6614113  72.0760015  14.5971452
  27.0786807  79.1953969   9.2189518  27.9004251  78.7934156   8.9372200
  27.0749210  79.0922203  10.1705634  20.8443411  78.7438012  11.3750229
  20.9087843  79.2058419  12.2108401  20.1354335  78.1135377  11.5032539
  35.1692800  75.5392717   5.5674490  34.4156509  74.9700115   5.4118494
  35.3040342  75.5055382   6.5145125  17.0458768  66.4897699  17.9043564
  16.6525714  65.9363898  18.5791209  17.8624908  66.8008278  18.2950082
  19.9626729  67.9055578  15.4963821  20.7036442  68.5062732  15.4168283
  20.1944652  67.1633216  14.9381864  15.1068067  73.0911946  13.7742051
  14.9921582  72.1897203  14.0749150  14.2512585  73.3375642  13.4226867
  22.1859905  81.0329686  15.3729551  21.7423759  80.2466065  15.0550456
  22.8477118  81.2208837  14.7073442  24.2841143  81.3132486  13.4010953
  24.2659618  82.1341367  12.9091222  25.2061063  81.1886561  13.6261094
  20.7414197  78.8276615  14.2434461  21.2742534  78.0664904  14.0133769
  20.2128278  78.5350267  14.9858615  23.9083892  63.9336681   9.7728103
  23.5648161  64.8238323   9.6967213  24.2762855  63.7438339   8.9097688
  21.4581286  68.7694993   3.3385776  20.6022882  68.3801844   3.1591415
  21.8708237  68.8486954   2.4785562  22.9880432  66.3041337   7.7377336
  22.4845228  66.2671472   6.9245141  23.2811039  67.2134079   7.7973993
  19.2323318  66.3880066   6.7443518  20.0976315  66.1922875   6.3849407
  19.3000827  66.1590418   7.6712874  28.8468449  76.6777647   0.2153711
  28.0697892  76.3388807  -0.2291127  29.5259930  76.6830270  -0.4591324
  23.6620478  71.7972385   0.1060319  23.3570613  72.1118534   0.9570462
  24.6150920  71.8753805   0.1487652  27.0859756  76.1511628   6.8720319
  26.4283430  76.8410890   6.9600448  27.8900155  76.5408060   7.2154306
  16.8385637  68.6182274   4.1159884  17.4129389  68.3957456   3.3833077
  17.4256620  68.6870969   4.8688486  25.8965215  74.5056001   4.9224261
  26.4097096  75.1385993   5.4245971  26.5466438  73.9057197   4.5567621
  19.1408305  65.4923523   2.8434954  18.4872717  65.1772540   2.2191569
  19.0988779  64.8699264   3.5694777  22.3746045  71.9805457   7.1682601
  21.4568607  72.2020404   7.0104290  22.7906189  72.0551767   6.3094309
  23.1581093  73.3796872   2.2985282  23.9052912  73.8918270   1.9892404
  23.4272683  73.0580925   3.1589675  26.6627011  79.4862003   3.0503404
  26.2089338  78.6452912   3.1068594  26.0320977  80.1223401   3.3878184
  25.6059930  70.4153989   4.2804071  24.8682687  69.9031375   4.6114314
  25.8586704  69.9754370   3.4687348  25.7071558  63.1930241   4.8745840
  26.0130434  62.3327604   4.5871755  26.4324162  63.7847861   4.6744834
  19.9792637  73.4884034   5.3822031  20.0341247  72.5357870   5.3064508
  19.1683839  73.6443473   5.8663330  23.5159209  72.5702918  11.9727304
  23.8708597  72.7974391  12.8321770  24.1631340  72.9021295  11.3504559
  29.2456946  75.6921354   2.6776633  29.1074844  75.8822950   1.7497822
  28.8893165  76.4540737   3.1344684  17.4099072  69.6779449   8.7573645
  18.0498451  69.5368208   8.0596609  16.5776603  69.3913962   8.3812247
  29.2726326  77.7597881   7.6887905  29.7062832  77.6673170   8.5370959
  29.9857906  77.7355381   7.0507921  23.0054220  81.3599975   9.2221005
  23.0591243  81.9290911   9.9898721  22.1369002  81.5301860   8.8575042
  15.8852614  71.0617531  10.7045457  16.5575667  70.8534893  10.0558105
  15.0582400  70.8639617  10.2650689  30.1341875  77.8021581  10.2220790
  30.3277765  78.7067392  10.4680065  30.0342493  77.3429001  11.0559375
  21.7878186  67.6879472  12.7211117  21.1406101  68.3869422  12.6275594
  22.5579201  68.1215616  13.0887366  25.1956984  77.9528324  15.7961671
  25.0442490  77.7238876  14.8791754  25.1861663  78.9098926  15.8093016
  21.9642320  75.5260237  10.7807937  22.8934380  75.6771397  10.6076904
  21.5433350  75.6144258   9.9256584  20.7630652  79.5510901   8.5506475
  20.6241738  79.1829686   9.4232413  19.9745248  80.0658541   8.3790433
  22.3135867  78.9292504   5.9395313  21.9785700  78.8893274   6.8352962
  21.8139813  78.2637220   5.4665723  16.2880111  74.3360134  11.4647894
  16.1499909  73.6040373  12.0659433  17.1985035  74.2469034  11.1832081
  18.9162412  74.0480093  10.9531573  19.6262030  73.4073286  10.9118192
  18.8731720  74.2992988  11.8757754  26.9049190  80.9847447  13.8738153
  26.8461737  80.3006667  13.2068736  27.3068709  81.7266437  13.4218779
  17.6291346  71.0345311  12.7727213  17.0928703  70.5836050  13.4248809
  17.0408054  71.1691220  12.0297677  26.9066598  78.9487031  12.1052132
  26.0193376  78.6112952  12.2278531  27.4765149  78.2170062  12.3420898
  13.3630467  70.1701319   9.8580207  13.2788656  69.5626989   9.1230617
  12.5413173  70.6610337   9.8589704  23.5354181  68.6554883   5.2250402
  24.0322880  67.9024845   4.9051473  22.7641162  68.6919199   4.6593612
  31.3883938  74.3595248   6.8668694  31.3773814  75.2419963   6.4962627
  30.5201318  74.0066799   6.6723231  22.8966435  83.5075317  11.2271534
  23.6094407  84.1422782  11.1547436  22.4056463  83.6039183  10.4111536
  24.6183961  77.4126570   2.7988826  23.6840240  77.5328032   2.6293530
  24.7960630  76.5099036   2.5348836  20.1189150  70.7972265   4.9522087
  19.7486937  70.2443306   5.6402993  20.6148242  70.1930399   4.3997087
  28.0056513  73.2543889   3.3338860  28.4716965  74.0871881   3.2599163
  28.4564013  72.7888871   4.0384118  17.9478348  81.2569761  12.0477105
  18.6487808  81.8906243  12.2006499  17.4773463  81.5984492  11.2872744
  25.9773176  65.6224476   7.3729761  25.0636255  65.8528703   7.5411968
  26.4066277  65.7062920   8.2243794  25.7479634  73.8114368   9.8729655
  25.0951084  74.0590275   9.2182108  26.1260014  72.9978506   9.5392133
  21.7967207  74.5534179  16.3595692  21.1207844  74.4528308  17.0298068
  22.6194841  74.3973393  16.8231690  15.5154483  68.2076256  11.1975193
  15.5795810  69.0691087  10.7852591  15.4521603  67.5950258  10.4647552
  14.9906756  70.2799389  14.8448227  15.6178795  69.8976466  15.4585752
  14.1334675  70.0613591  15.2103920  25.3900864  80.6862364  16.4501963
  25.9340768  81.2992322  15.9556918  24.8087709  81.2441942  16.9668976
  23.6758377  83.8083082   7.5816991  23.5509517  83.0072822   7.0727936
  24.3337468  84.3029275   7.0930960  15.2966545  70.1631814   6.7594131
  14.5753131  70.7767782   6.6201604  16.0859801  70.6989579   6.6810777
  25.7393286  81.6092102   9.2096541  24.7923621  81.4897453   9.1374867
  26.0876059  80.7214600   9.2922802  18.0992859  67.4986241  13.0334783
  18.6227261  67.7448538  13.7961092  17.8805192  68.3306276  12.6137920
  26.3473841  82.2273377   6.4965766  27.2720388  82.0216238   6.3590217
  26.1789144  81.9789778   7.4055107  19.3045404  68.4399936  10.7184453
  18.9642224  67.6407749  11.1205133  18.5984410  68.7401647  10.1461286
  19.9561876  65.5249249   9.1711776  20.7787945  65.0509727   9.0490666
  20.1999939  66.3039732   9.6710462  22.7401233  69.2582656   0.4033010
  22.9564848  70.1407294   0.1021838  22.2595300  68.8668869  -0.3261348
  17.4800455  72.2168369   6.9803755  17.3345035  72.5308672   7.8728036
  17.0025658  72.8353269   6.4274653  19.3396838  69.2070917   7.0284644
  19.3258406  68.3112010   6.6916942  20.0569266  69.2141581   7.6622930
  21.1922968  69.6408257   9.0737772  20.9340746  70.5625328   9.0722102
  20.6608009  69.2438692   9.7638236  21.6124924  65.7740208   5.4338934
  21.6346621  65.8379541   4.4790914  22.0292983  64.9344717   5.6279440
  31.9908548  75.5095467   3.4718157  32.4339694  74.7602793   3.0737280
  31.1135058  75.5005604   3.0891889  12.7412139  73.8843610  12.8121573
  11.9993875  74.0326245  13.3986203  12.4204883  74.1451875  11.9488322
  29.0235753  79.5125514   0.4812086  29.5487077  79.8512787  -0.2438594
  28.9358105  78.5772530   0.2975221  20.6855801  83.4259588  12.6101963
  20.9942928  83.1808735  13.4824662  21.4831283  83.6306227  12.1220833
  18.2274813  69.6017295  16.5062147  18.2762968  70.4779418  16.1239917
  18.7697327  69.0594688  15.9333790  28.7129659  80.1458418  15.7863284
  27.9225202  80.1282557  15.2467783  28.4763013  80.6846712  16.5412321
  28.8327534  76.9950884  13.0996013  28.8825539  76.8300892  14.0411535
  28.7241457  76.1278143  12.7093893  26.1231296  72.9781812  14.4155319
  27.0241159  72.8388277  14.1239317  26.1979271  73.1436267  15.3553497
  20.4574101  70.3548667  13.2608506  19.5877411  70.6482233  12.9891094
  20.6933582  70.9389112  13.9815769  30.3345731  79.4147826  13.3438034
  30.0430539  79.7777806  14.1801495  29.7217862  78.7014834  13.1651366
  31.5341413  76.9800706   5.8640604  32.3688304  77.4190510   6.0278165
  31.6700542  76.5039359   5.0448850  28.5832919  74.5380441  11.8118092
  29.0587040  74.7308087  11.0036943  27.6598484  74.5939626  11.5661476
  23.1613135  66.5728284  10.7773926  23.6795079  67.3089311  10.4520415
  22.8068268  66.8792277  11.6120685  23.4125729  62.9928567   6.2974823
  23.6927483  62.3251756   6.9235249  24.1976336  63.1857662   5.7849486
  27.2834588  71.4146201  10.0446398  28.2352011  71.5144298  10.0658622
  27.1138038  70.6224469  10.5544482  25.3048967  68.5001784  10.2305799
  24.7098899  68.7806797   9.5352287  25.0198664  68.9895685  11.0022540
  29.7622666  74.6352320   9.1588697  29.7298986  73.6968321   9.3448381
  30.3723289  74.7136357   8.4254522  29.9117154  71.4263364   9.2046981
  29.3956203  70.6421820   9.0176909  30.7957103  71.0982080   9.3693500
  27.5727881  65.1704379   5.1642793  27.3752702  64.8619468   6.0486125
  28.1827587  65.8966018   5.2940723  35.5799215  75.6968327   8.2994734
  36.3102604  75.4353615   8.8602437  34.9706161  74.9597049   8.3396802
  33.6614513  73.8376190   8.8969185  32.9347676  73.7032155   8.2885677
  33.2461799  74.1453018   9.7025903  21.4844689  77.5566119  16.6616558
  22.4047698  77.7344718  16.8556605  21.4494272  76.6122165  16.5096258
  14.4806762  75.4667154   9.3039340  14.6992771  76.3984262   9.3227373
  14.8932535  75.1075129  10.0894143  21.4010979  65.9735239   1.2915028
  20.5911708  65.6282324   1.6670274  22.0895396  65.6642783   1.8802639
  23.3301528  65.0513286   2.9139325  23.8832566  65.4708740   3.5729348
  23.5671614  64.1249034   2.9562281  19.3534627  71.0400360  18.6942088
  19.2531354  71.9894717  18.6254180  19.1356169  70.7118599  17.8218159
  26.7080335  67.1613811   2.4217989  26.1279004  67.8198615   2.0396041
  26.4416267  66.3391156   2.0105406  25.1583901  66.5618869   4.6239309
  25.6583679  66.6735404   3.8153628  25.8019509  66.2579922   5.2640118
  19.2165897  74.4697499  17.5107150  18.7332979  75.2697859  17.7171039
  19.3026836  74.4805444  16.5574594  15.7338616  76.9303149  12.1146382
  16.5531505  77.4247228  12.1381219  16.0075424  76.0135118  12.0863949
  25.4905213  69.3213902   1.4774337  24.6031068  69.6063552   1.2594532
  25.9059202  69.1607665   0.6301614  28.8419749  69.3460423   5.1928676
  29.6180139  69.8356875   5.4653293  28.1167883  69.7718477   5.6500546
  31.2792307  70.0588042   6.2502617  31.8736798  69.8183778   5.5395925
  31.3518891  69.3395173   6.8776153  25.4646236  74.8368438   1.6924627
  25.4081438  75.2936989   0.8532260  26.0174579  74.0759122   1.5147470
  29.2751042  70.6258170   2.5174747  29.0187977  70.2254805   3.3482954
  28.6503910  71.3401964   2.3924886  33.5863380  73.3654243   5.0246038
  33.0262938  73.4347432   5.7977600  32.9806884  73.1895227   4.3045534
  10.9873531  71.2641283  12.8138579  11.6332394  70.7540237  13.3025804
  10.7790682  72.0009965  13.3882004  23.5126923  78.3322131  18.3130719
  24.3818083  78.5062783  17.9517354  23.0333674  79.1516548  18.1906449
  23.3229261  62.1224105   2.8208412  22.5561656  61.5682591   2.9665094
  23.7339966  62.1945973   3.6822563  15.3271022  68.4108900  16.9113593
  16.1902483  68.0545705  17.1216917  14.7536432  68.0722795  17.5988997
  35.1719399  90.0410757   7.7175994  35.8097809  89.9217504   7.0139334
  35.0540242  90.9891601   7.7763946  31.9809105  89.9938185   7.6537519
  31.6427616  89.8779250   6.7658053  32.8498873  89.5929350   7.6338525
  32.4628888  91.1473037  13.6123724  32.4517529  90.7525835  12.7404228
  32.6249527  90.4139109  14.2057496  29.1836149  93.9310148  12.5602908
  28.8926015  94.8355779  12.4449574  29.8193133  93.9726676  13.2746978
  30.1092356  91.3086997   9.1504268  30.7055928  91.0843019   8.4361231
  30.1667327  90.5671742   9.7529716  34.7260667  87.7662211   4.7929202
  35.5123756  87.3481634   4.4419619  34.9899371  88.6708303   4.9610850
  40.1269094  87.7037444   5.6962180  40.8594266  87.1336661   5.9300010
  39.3708450  87.3159044   6.1368686  37.6494515  81.4159018  10.1556789
  37.3177839  82.2854429   9.9318004  37.0540128  81.0995302  10.8350819
  34.1426034  93.6171564   9.5552702  33.8426757  94.5196603   9.4468509
  33.7977094  93.3503747  10.4073855  37.5423178  86.1354104   7.2350139
  36.6340055  86.0669513   6.9408900  37.4910774  86.6126049   8.0631965
  31.6164044  87.5543750  15.1785036  30.8397378  88.1137670  15.1687901
  32.2554607  88.0400533  15.6999906  39.4084824  84.3370542   9.0128013
  38.7659205  84.6303076   8.3667808  38.9039753  84.2223463   9.8181210
  37.0624988  88.0833716  -0.2986128  37.9742844  88.3161102  -0.4738430
  36.5534635  88.6670760  -0.8611049  29.8710416  90.3629203  14.7403003
  30.6125100  90.9014247  14.4637827  29.1647402  90.9895492  14.8974555
  35.3465756  92.5058344  13.3375165  35.7549112  92.0640754  12.5929797
  34.6243017  91.9310971  13.5909358  31.6996826  87.4430950  10.7108722
  32.5458021  87.8670364  10.8543371  31.6395463  86.7864575  11.4047285
  35.6694570  93.0659534   7.0927454  35.0403433  93.2305248   6.3903522
  35.2820232  93.4801144   7.8638418  39.5483802  94.0013972   4.4471817
  38.8634840  94.3812873   3.8968851  39.6327652  94.6109299   5.1803765
  34.8496271  85.1035319  12.3689895  34.6057203  85.8577379  11.8324171
  35.1256202  85.4820666  13.2037142  36.8034734  91.6473931  11.0467161
  37.0151629  92.2905691  10.3701542  36.7564482  90.8136248  10.5789091
  34.4060963  84.2591752   7.9503733  33.5445442  84.5573005   8.2420471
  34.4323397  84.4762151   7.0184766  28.6071780  87.5168851  15.5418313
  27.9770440  88.1985132  15.7753710  28.5007868  87.4051933  14.5971452
  37.9180562  94.5245886   9.2189518  38.7398006  94.1226074   8.9372200
  37.9142965  94.4214121  10.1705634  31.6837165  94.0729930  11.3750229
  31.7481598  94.5350337  12.2108401  30.9748089  93.4427295  11.5032539
  46.0086555  90.8684635   5.5674490  45.2550263  90.2992033   5.4118494
  46.1434096  90.8347299   6.5145125  27.8852523  81.8189617  17.9043564
  27.4919468  81.2655816  18.5791209  28.7018663  82.1300196  18.2950082
  30.8020484  83.2347496  15.4963821  31.5430197  83.8354649  15.4168283
  31.0338406  82.4925134  14.9381864  25.9461822  88.4203863  13.7742051
  25.8315337  87.5189121  14.0749150  25.0906339  88.6667560  13.4226867
  33.0253659  96.3621604  15.3729551  32.5817513  95.5757982  15.0550456
  33.6870873  96.5500754  14.7073442  35.1234897  96.6424404  13.4010953
  35.1053373  97.4633285  12.9091222  36.0454817  96.5178479  13.6261094
  31.5807951  94.1568533  14.2434461  32.1136288  93.3956821  14.0133769
  31.0522033  93.8642185  14.9858615  34.7477646  79.2628599   9.7728103
  34.4041916  80.1530241   9.6967213  35.1156609  79.0730257   8.9097688
  32.2975040  84.0986911   3.3385776  31.4416637  83.7093761   3.1591415
  32.7101992  84.1778872   2.4785562  33.8274187  81.6333254   7.7377336
  33.3238982  81.5963389   6.9245141  34.1204794  82.5425997   7.7973993
  30.0717073  81.7171984   6.7443518  30.9370069  81.5214793   6.3849407
  30.1394582  81.4882336   7.6712874  39.6862203  92.0069565   0.2153711
  38.9091646  91.6680724  -0.2291127  40.3653684  92.0122188  -0.4591324
  34.5014232  87.1264302   0.1060319  34.1964368  87.4410451   0.9570462
  35.4544674  87.2045722   0.1487652  37.9253510  91.4803546   6.8720319
  37.2677185  92.1702807   6.9600448  38.7293909  91.8699978   7.2154306
  27.6779392  83.9474192   4.1159884  28.2523144  83.7249373   3.3833077
  28.2650374  84.0162886   4.8688486  36.7358969  89.8347919   4.9224261
  37.2490851  90.4677911   5.4245971  37.3860193  89.2349114   4.5567621
  29.9802060  80.8215441   2.8434954  29.3266472  80.5064458   2.2191569
  29.9382534  80.1991181   3.5694777  33.2139800  87.3097374   7.1682601
  32.2962361  87.5312321   7.0104290  33.6299943  87.3843685   6.3094309
  33.9974848  88.7088790   2.2985282  34.7446667  89.2210187   1.9892404
  34.2666437  88.3872843   3.1589675  37.5020765  94.8153920   3.0503404
  37.0483092  93.9744830   3.1068594  36.8714732  95.4515319   3.3878184
  36.4453685  85.7445906   4.2804071  35.7076442  85.2323292   4.6114314
  36.6980458  85.3046288   3.4687348  36.5465312  78.5222158   4.8745840
  36.8524189  77.6619522   4.5871755  37.2717917  79.1139778   4.6744834
  30.8186392  88.8175951   5.3822031  30.8735002  87.8649788   5.3064508
  30.0077594  88.9735390   5.8663330  34.3552963  87.8994836  11.9727304
  34.7102351  88.1266309  12.8321770  35.0025095  88.2313212  11.3504559
  40.0850700  91.0213271   2.6776633  39.9468599  91.2114867   1.7497822
  39.7286919  91.7832654   3.1344684  28.2492827  85.0071367   8.7573645
  28.8892206  84.8660126   8.0596609  27.4170357  84.7205880   8.3812247
  40.1120080  93.0889798   7.6887905  40.5456587  92.9965088   8.5370959
  40.8251661  93.0647299   7.0507921  33.8447975  96.6891893   9.2221005
  33.8984997  97.2582829   9.9898721  32.9762756  96.8593778   8.8575042
  26.7246368  86.3909449  10.7045457  27.3969422  86.1826811  10.0558105
  25.8976155  86.1931535  10.2650689  40.9735630  93.1313499  10.2220790
  41.1671520  94.0359310  10.4680065  40.8736248  92.6720918  11.0559375
  32.6271940  83.0171390  12.7211117  31.9799855  83.7161339  12.6275594
  33.3972956  83.4507534  13.0887366  36.0350738  93.2820242  15.7961671
  35.8836245  93.0530794  14.8791754  36.0255418  94.2390843  15.8093016
  32.8036075  90.8552155  10.7807937  33.7328135  91.0063314  10.6076904
  32.3827105  90.9436175   9.9256584  31.6024406  94.8802819   8.5506475
  31.4635492  94.5121603   9.4232413  30.8139003  95.3950458   8.3790433
  33.1529622  94.2584422   5.9395313  32.8179454  94.2185192   6.8352962
  32.6533567  93.5929138   5.4665723  27.1273866  89.6652052  11.4647894
  26.9893663  88.9332291  12.0659433  28.0378789  89.5760952  11.1832081
  29.7556166  89.3772011  10.9531573  30.4655785  88.7365203  10.9118192
  29.7125474  89.6284906  11.8757754  37.7442945  96.3139364  13.8738153
  37.6855491  95.6298585  13.2068736  38.1462463  97.0558354  13.4218779
  28.4685100  86.3637229  12.7727213  27.9322457  85.9127967  13.4248809
  27.8801809  86.4983138  12.0297677  37.7460352  94.2778948  12.1052132
  36.8587131  93.9404870  12.2278531  38.3158903  93.5461980  12.3420898
  24.2024221  85.4993237   9.8580207  24.1182410  84.8918906   9.1230617
  23.3806928  85.9902255   9.8589704  34.3747935  83.9846800   5.2250402
  34.8716635  83.2316763   4.9051473  33.6034917  84.0211117   4.6593612
  42.2277693  89.6887166   6.8668694  42.2167569  90.5711881   6.4962627
  41.3595072  89.3358717   6.6723231  33.7360189  98.8367235  11.2271534
  34.4488161  99.4714700  11.1547436  33.2450218  98.9331101  10.4111536
  35.4577716  92.7418487   2.7988826  34.5233995  92.8619950   2.6293530
  35.6354384  91.8390954   2.5348836  30.9582904  86.1264183   4.9522087
  30.5880692  85.5735224   5.6402993  31.4541996  85.5222317   4.3997087
  38.8450267  88.5835807   3.3338860  39.3110720  89.4163798   3.2599163
  39.2957768  88.1180788   4.0384118  28.7872103  96.5861678  12.0477105
  29.4881562  97.2198161  12.2006499  28.3167218  96.9276410  11.2872744
  36.8166930  80.9516394   7.3729761  35.9030010  81.1820621   7.5411968
  37.2460032  81.0354838   8.2243794  36.5873389  89.1406286   9.8729655
  35.9344839  89.3882193   9.2182108  36.9653768  88.3270424   9.5392133
  32.6360962  89.8826097  16.3595692  31.9601599  89.7820226  17.0298068
  33.4588595  89.7265310  16.8231690  26.3548238  83.5368174  11.1975193
  26.4189564  84.3983005  10.7852591  26.2915358  82.9242176  10.4647552
  25.8300510  85.6091306  14.8448227  26.4572549  85.2268384  15.4585752
  24.9728429  85.3905508  15.2103920  36.2294619  96.0154282  16.4501963
  36.7734523  96.6284240  15.9556918  35.6481464  96.5733860  16.9668976
  34.5152132  99.1375000   7.5816991  34.3903271  98.3364740   7.0727936
  35.1731223  99.6321193   7.0930960  26.1360300  85.4923732   6.7594131
  25.4146886  86.1059700   6.6201604  26.9253556  86.0281497   6.6810777
  36.5787040  96.9384020   9.2096541  35.6317376  96.8189371   9.1374867
  36.9269813  96.0506518   9.2922802  28.9386613  82.8278159  13.0334783
  29.4621015  83.0740455  13.7961092  28.7198947  83.6598193  12.6137920
  37.1867595  97.5565295   6.4965766  38.1114143  97.3508156   6.3590217
  37.0182899  97.3081696   7.4055107  30.1439159  83.7691854  10.7184453
  29.8035979  82.9699667  11.1205133  29.4378165  84.0693565  10.1461286
  30.7955630  80.8541166   9.1711776  31.6181700  80.3801644   9.0490666
  31.0393694  81.6331650   9.6710462  33.5794988  84.5874574   0.4033010
  33.7958602  85.4699211   0.1021838  33.0989055  84.1960787  -0.3261348
  28.3194209  87.5460287   6.9803755  28.1738790  87.8600590   7.8728036
  27.8419413  88.1645187   6.4274653  30.1790592  84.5362835   7.0284644
  30.1652161  83.6403928   6.6916942  30.8963020  84.5433499   7.6622930
  32.0316723  84.9700175   9.0737772  31.7734501  85.8917246   9.0722102
  31.5001763  84.5730610   9.7638236  32.4518678  81.1032126   5.4338934
  32.4740375  81.1671459   4.4790914  32.8686737  80.2636634   5.6279440
  42.8302303  90.8387385   3.4718157  43.2733449  90.0894710   3.0737280
  41.9528813  90.8297521   3.0891889  23.5805893  89.2135528  12.8121573
  22.8387629  89.3618163  13.3986203  23.2598637  89.4743793  11.9488322
  31.5249556  98.7551506  12.6101963  31.8336682  98.5100653  13.4824662
  32.3225038  98.9598144  12.1220833  29.0668567  84.9309212  16.5062147
  29.1156723  85.8071335  16.1239917  29.6091082  84.3886606  15.9333790
  39.5523413  95.4750336  15.7863284  38.7618957  95.4574475  15.2467783
  39.3156768  96.0138629  16.5412321  39.6721288  92.3242802  13.0996013
  39.7219293  92.1592810  14.0411535  39.5635212  91.4570061  12.7093893
  36.9625051  88.3073730  14.4155319  37.8634913  88.1680195  14.1239317
  37.0373025  88.4728185  15.3553497  31.2967856  85.6840585  13.2608506
  30.4271165  85.9774151  12.9891094  31.5327336  86.2681030  13.9815769
  41.1739485  94.7439744  13.3438034  40.8824293  95.1069724  14.1801495
  40.5611616  94.0306752  13.1651366  42.3735167  92.3092623   5.8640604
  43.2082059  92.7482427   6.0278165  42.5094296  91.8331277   5.0448850
  39.4226673  89.8672358  11.8118092  39.8980795  90.0600005  11.0036943
  38.4992239  89.9231544  11.5661476  34.0006890  81.9020202  10.7773926
  34.5188834  82.6381229  10.4520415  33.6462023  82.2084195  11.6120685
  34.2519484  78.3220484   6.2974823  34.5321238  77.6543673   6.9235249
  35.0370091  78.5149580   5.7849486  38.1228342  86.7438118  10.0446398
  39.0745765  86.8436216  10.0658622  37.9531793  85.9516387  10.5544482
  36.1442722  83.8293702  10.2305799  35.5492654  84.1098714   9.5352287
  35.8592418  84.3187602  11.0022540  40.6016420  89.9644238   9.1588697
  40.5692740  89.0260239   9.3448381  41.2117044  90.0428275   8.4254522
  40.7510909  86.7555281   9.2046981  40.2349957  85.9713738   9.0176909
  41.6350857  86.4273998   9.3693500  38.4121635  80.4996297   5.1642793
  38.2146457  80.1911385   6.0486125  39.0221341  81.2257936   5.2940723
  46.4192970  91.0260245   8.2994734  47.1496358  90.7645533   8.8602437
  45.8099915  90.2888967   8.3396802  44.5008267  89.1668107   8.8969185
  43.7741431  89.0324072   8.2885677  44.0855554  89.4744936   9.7025903
  32.3238443  92.8858037  16.6616558  33.2441453  93.0636636  16.8556605
  32.2888026  91.9414082  16.5096258  25.3200516  90.7959072   9.3039340
  25.5386526  91.7276180   9.3227373  25.7326290  90.4367046  10.0894143
  32.2404734  81.3027157   1.2915028  31.4305462  80.9574242   1.6670274
  32.9289151  80.9934701   1.8802639  34.1695282  80.3805204   2.9139325
  34.7226321  80.8000657   3.5729348  34.4065368  79.4540952   2.9562281
  30.1928381  86.3692278  18.6942088  30.0925108  87.3186635  18.6254180
  29.9749923  86.0410516  17.8218159  37.5474089  82.4905729   2.4217989
  36.9672758  83.1490533   2.0396041  37.2810022  81.6683074   2.0105406
  35.9977656  81.8910787   4.6239309  36.4977434  82.0027321   3.8153628
  36.6413263  81.5871840   5.2640118  30.0559651  89.7989416  17.5107150
  29.5726733  90.5989776  17.7171039  30.1420590  89.8097361  16.5574594
  26.5732371  92.2595067  12.1146382  27.3925260  92.7539146  12.1381219
  26.8469179  91.3427035  12.0863949  36.3298967  84.6505819   1.4774337
  35.4424822  84.9355470   1.2594532  36.7452956  84.4899583   0.6301614
  39.6813503  84.6752340   5.1928676  40.4573893  85.1648793   5.4653293
  38.9561637  85.1010395   5.6500546  42.1186062  85.3879960   6.2502617
  42.7130553  85.1475696   5.5395925  42.1912646  84.6687090   6.8776153
  36.3039991  90.1660355   1.6924627  36.2475192  90.6228907   0.8532260
  36.8568333  89.4051040   1.5147470  40.1144797  85.9550087   2.5174747
  39.8581731  85.5546723   3.3482954  39.4897665  86.6693881   2.3924886
  44.4257135  88.6946160   5.0246038  43.8656693  88.7639350   5.7977600
  43.8200638  88.5187145   4.3045534  21.8267285  86.5933201  12.8138579
  22.4726149  86.0832155  13.3025804  21.6184436  87.3301883  13.3882004
  34.3520677  93.6614048  18.3130719  35.2211837  93.8354701  17.9517354
  33.8727429  94.4808465  18.1906449  34.1623015  77.4516022   2.8208412
  33.3955411  76.8974509   2.9665094  34.5733720  77.5237891   3.6822563
  26.1664776  83.7400818  16.9113593  27.0296238  83.3837623  17.1216917
  25.5930187  83.4014713  17.5988997  42.8202859 105.3230103   7.6537519
  42.4821371 105.2071167   6.7658053  43.6892628 104.9221268   7.6338525
  43.3022642 106.4764954  13.6123724  43.2911283 106.0817753  12.7404228
  43.4643282 105.7431027  14.2057496  40.0229904 109.2602066  12.5602908
  39.7319770 110.1647697  12.4449574  40.6586888 109.3018594  13.2746978
  40.9486110 106.6378915   9.1504268  41.5449683 106.4134937   8.4361231
  41.0061082 105.8963660   9.7529716  48.4888269  96.7450936  10.1556789
  48.1571594  97.6146347   9.9318004  47.8933883  96.4287220  10.8350819
  48.3816932 101.4646022   7.2350139  47.4733810 101.3961430   6.9408900
  48.3304528 101.9417967   8.0631965  42.4557798 102.8835667  15.1785036
  41.6791132 103.4429587  15.1687901  43.0948361 103.3692450  15.6999906
  50.2478579  99.6662460   9.0128013  49.6052959  99.9594993   8.3667808
  49.7433507  99.5515380   9.8181210  40.7104171 105.6921121  14.7403003
  41.4518855 106.2306165  14.4637827  40.0041156 106.3187409  14.8974555
  46.1859510 107.8350261  13.3375165  46.5942866 107.3932672  12.5929797
  45.4636772 107.2602889  13.5909358  42.5390580 102.7722868  10.7108722
  43.3851775 103.1962282  10.8543371  42.4789218 102.1156492  11.4047285
  45.6890026 100.4327236  12.3689895  45.4450957 101.1869297  11.8324171
  45.9649956 100.8112584  13.2037142  47.6428488 106.9765849  11.0467161
  47.8545384 107.6197609  10.3701542  47.5958237 106.1428165  10.5789091
  45.2454717  99.5883669   7.9503733  44.3839196  99.8864923   8.2420471
  45.2717152  99.8054068   7.0184766  39.4465534 102.8460769  15.5418313
  38.8164195 103.5277050  15.7753710  39.3401622 102.7343850  14.5971452
  42.5230920 109.4021847  11.3750229  42.5875352 109.8642255  12.2108401
  41.8141844 108.7719212  11.5032539  38.7246277  97.1481535  17.9043564
  38.3313223  96.5947733  18.5791209  39.5412417  97.4592113  18.2950082
  41.6414238  98.5639414  15.4963821  42.3823951  99.1646567  15.4168283
  41.8732161  97.8217052  14.9381864  36.7855576 103.7495781  13.7742051
  36.6709091 102.8481038  14.0749150  35.9300094 103.9959478  13.4226867
  43.8647414 111.6913521  15.3729551  43.4211268 110.9049900  15.0550456
  44.5264627 111.8792672  14.7073442  45.9628652 111.9716321  13.4010953
  45.9447127 112.7925202  12.9091222  46.8848572 111.8470397  13.6261094
  42.4201706 109.4860451  14.2434461  42.9530043 108.7248739  14.0133769
  41.8915787 109.1934103  14.9858615  45.5871401  94.5920517   9.7728103
  45.2435670  95.4822158   9.6967213  45.9550364  94.4022174   8.9097688
  44.6667941  96.9625172   7.7377336  44.1632737  96.9255307   6.9245141
  44.9598548  97.8717915   7.7973993  40.9110827  97.0463902   6.7443518
  41.7763824  96.8506710   6.3849407  40.9788336  96.8174253   7.6712874
  38.5173146  99.2766110   4.1159884  39.0916898  99.0541291   3.3833077
  39.1044129  99.3454804   4.8688486  40.8195814  96.1507358   2.8434954
  40.1660226  95.8356376   2.2191569  40.7776288  95.5283099   3.5694777
  44.0533554 102.6389292   7.1682601  43.1356116 102.8604239   7.0104290
  44.4693698 102.7135602   6.3094309  47.3859067  93.8514076   4.8745840
  47.6917943  92.9911439   4.5871755  48.1111671  94.4431696   4.6744834
  45.1946718 103.2286753  11.9727304  45.5496106 103.4558226  12.8321770
  45.8418849 103.5605130  11.3504559  39.0886581 100.3363284   8.7573645
  39.7285960 100.1952043   8.0596609  38.2564112 100.0497798   8.3812247
  37.5640123 101.7201366  10.7045457  38.2363176 101.5118729  10.0558105
  36.7369909 101.5223452  10.2650689  43.4665695  98.3463307  12.7211117
  42.8193610  99.0453257  12.6275594  44.2366710  98.7799451  13.0887366
  46.8744493 108.6112160  15.7961671  46.7229999 108.3822711  14.8791754
  46.8649172 109.5682761  15.8093016  43.6429829 106.1844072  10.7807937
  44.5721889 106.3355232  10.6076904  43.2220859 106.2728093   9.9256584
  37.9667620 104.9943969  11.4647894  37.8287418 104.2624208  12.0659433
  38.8772543 104.9052870  11.1832081  40.5949921 104.7063929  10.9531573
  41.3049539 104.0657121  10.9118192  40.5519229 104.9576824  11.8757754
  39.3078855 101.6929147  12.7727213  38.7716212 101.2419885  13.4248809
  38.7195563 101.8275055  12.0297677  48.5854107 109.6070866  12.1052132
  47.6980885 109.2696788  12.2278531  49.1552658 108.8753897  12.3420898
  35.0417976 100.8285154   9.8580207  34.9576165 100.2210824   9.1230617
  34.2200682 101.3194173   9.8589704  45.2141690  99.3138718   5.2250402
  45.7110389  98.5608680   4.9051473  44.4428671  99.3503035   4.6593612
  41.7976659 101.4556101   4.9522087  41.4274446 100.9027141   5.6402993
  42.2935751 100.8514234   4.3997087  39.6265857 111.9153596  12.0477105
  40.3275317 112.5490079  12.2006499  39.1560972 112.2568327  11.2872744
  47.6560685  96.2808311   7.3729761  46.7423764  96.5112538   7.5411968
  48.0853786  96.3646755   8.2243794  47.4267143 104.4698203   9.8729655
  46.7738593 104.7174111   9.2182108  47.8047523 103.6562342   9.5392133
  43.4754716 105.2118014  16.3595692  42.7995353 105.1112144  17.0298068
  44.2982350 105.0557228  16.8231690  37.1941992  98.8660092  11.1975193
  37.2583319  99.7274923  10.7852591  37.1309112  98.2534093  10.4647552
  36.6694265 100.9383224  14.8448227  37.2966304 100.5560301  15.4585752
  35.8122184 100.7197426  15.2103920  47.0688373 111.3446199  16.4501963
  47.6128277 111.9576158  15.9556918  46.4875218 111.9025778  16.9668976
  36.9754054 100.8215650   6.7594131  36.2540640 101.4351618   6.6201604
  37.7647310 101.3573415   6.6810777  39.7780368  98.1570076  13.0334783
  40.3014770  98.4032373  13.7961092  39.5592701  98.9890111  12.6137920
  40.9832913  99.0983771  10.7184453  40.6429733  98.2991585  11.1205133
  40.2771919  99.3985482  10.1461286  41.6349385  96.1833084   9.1711776
  42.4575454  95.7093562   9.0490666  41.8787448  96.9623568   9.6710462
  39.1587964 102.8752205   6.9803755  39.0132544 103.1892508   7.8728036
  38.6813167 103.4937105   6.4274653  41.0184346  99.8654753   7.0284644
  41.0045915  98.9695846   6.6916942  41.7356775  99.8725416   7.6622930
  42.8710477 100.2992093   9.0737772  42.6128255 101.2209163   9.0722102
  42.3395518  99.9022527   9.7638236  43.2912433  96.4324043   5.4338934
  43.3134130  96.4963376   4.4790914  43.7080492  95.5928552   5.6279440
  34.4199648 104.5427445  12.8121573  33.6781384 104.6910081  13.3986203
  34.0992392 104.8035711  11.9488322  39.9062322 100.2601130  16.5062147
  39.9550477 101.1363253  16.1239917  40.4484836  99.7178523  15.9333790
  50.3917168 110.8042253  15.7863284  49.6012711 110.7866392  15.2467783
  50.1550522 111.3430547  16.5412321  50.5115043 107.6534720  13.0996013
  50.5613048 107.4884727  14.0411535  50.4028966 106.7861979  12.7093893
  47.8018805 103.6365648  14.4155319  48.7028668 103.4972113  14.1239317
  47.8766780 103.8020103  15.3553497  42.1361610 101.0132503  13.2608506
  41.2664920 101.3066069  12.9891094  42.3721091 101.5972948  13.9815769
  50.2620428 105.1964276  11.8118092  50.7374549 105.3891922  11.0036943
  49.3385993 105.2523462  11.5661476  44.8400644  97.2312119  10.7773926
  45.3582588  97.9673146  10.4520415  44.4855777  97.5376113  11.6120685
  45.0913238  93.6512402   6.2974823  45.3714992  92.9835591   6.9235249
  45.8763845  93.8441498   5.7849486  48.9622097 102.0730036  10.0446398
  49.9139520 102.1728134  10.0658622  48.7925547 101.2808305  10.5544482
  46.9836476  99.1585619  10.2305799  46.3886408  99.4390632   9.5352287
  46.6986173  99.6479520  11.0022540  51.5904663 102.0847199   9.2046981
  51.0743712 101.3005656   9.0176909  52.4744612 101.7565916   9.3693500
  49.2515390  95.8288215   5.1642793  49.0540211  95.5203303   6.0486125
  49.8615096  96.5549854   5.2940723  43.1632198 108.2149955  16.6616558
  44.0835207 108.3928554  16.8556605  43.1281781 107.2706000  16.5096258
  36.1594270 106.1250989   9.3039340  36.3780280 107.0568097   9.3227373
  36.5720044 105.7658964  10.0894143  45.0089037  95.7097122   2.9139325
  45.5620075  96.1292575   3.5729348  45.2459123  94.7832870   2.9562281
  41.0322136 101.6984195  18.6942088  40.9318863 102.6478552  18.6254180
  40.8143678 101.3702434  17.8218159  40.8953406 105.1281334  17.5107150
  40.4120488 105.9281694  17.7171039  40.9814345 105.1389279  16.5574594
  37.4126125 107.5886985  12.1146382  38.2319014 108.0831063  12.1381219
  37.6862933 106.6718953  12.0863949  32.6661040 101.9225119  12.8138579
  33.3119903 101.4124073  13.3025804  32.4578191 102.6593800  13.3882004
  45.1914432 108.9905966  18.3130719  46.0605592 109.1646618  17.9517354
  44.7121183 109.8100383  18.1906449  45.0016770  92.7807940   2.8208412
  44.2349165  92.2266427   2.9665094  45.4127475  92.8529809   3.6822563
  37.0058531  99.0692736  16.9113593  37.8689992  98.7129541  17.1216917
  36.4323941  98.7306631  17.5988997  49.5640031 112.4773452  17.9043564
  49.1706977 111.9239651  18.5791209  50.3806172 112.7884031  18.2950082
  51.8715890 117.0276113  18.6942088  51.7712617 117.9770470  18.6254180
  51.6537432 116.6994352  17.8218159  47.8452285 114.3984653  16.9113593
  48.7083747 114.0421458  17.1216917  47.2717696 114.0598548  17.5988997
  25.3900866  57.6924487   3.1747269  25.9340770  58.3054445   2.6802224
  24.8087710  58.2504065   3.6914282  28.7129660  57.1520541   2.5108591
  27.9225204  57.1344679   1.9713090  28.4763014  57.6908834   3.2657627
  23.5126924  55.3384253   5.0376026  24.3818084  55.5124906   4.6762661
  23.0333676  56.1578670   4.9151755  35.1719400  67.0472879  -5.5578699
  35.8097810  66.9279627  -6.2615359  35.0540243  67.9953723  -5.4990747
  32.4628889  68.1535159   0.3369031  32.4517530  67.7587957  -0.5350466
  32.6249529  67.4201232   0.9302802  29.1836150  70.9372271  -0.7151785
  28.8926016  71.8417902  -0.8305119  29.8193135  70.9788799  -0.0007716
  30.1092357  68.3149120  -4.1250426  30.7055929  68.0905142  -4.8393463
  30.1667329  67.5733865  -3.5224978  40.1269096  64.7099566  -7.5792513
  40.8594267  64.1398783  -7.3454683  39.3708451  64.3221167  -7.1386007
  37.6494516  58.4221141  -3.1197904  37.3177841  59.2916551  -3.3436689
  37.0540129  58.1057425  -2.4403874  34.1426035  70.6233686  -3.7201992
  33.8426759  71.5258725  -3.8286184  33.7977095  70.3565870  -2.8680839
  31.6164045  64.5605872   1.9030343  30.8397379  65.1199792   1.8933208
  32.2554608  65.0462655   2.4245213  39.4084826  61.3432665  -4.2626680
  38.7659206  61.6365198  -4.9086886  38.9039754  61.2285585  -3.4573484
  29.8710417  67.3691326   1.4648310  30.6125102  67.9076370   1.1883134
  29.1647403  67.9957614   1.6219862  35.3465757  69.5120466   0.0620471
  35.7549113  69.0702877  -0.6824896  34.6243018  68.9373094   0.3154664
  31.6996827  64.4493073  -2.5645972  32.5458022  64.8732486  -2.4211323
  31.6395465  63.7926697  -1.8707408  35.6694572  70.0721657  -6.1827240
  35.0403434  70.2367371  -6.8851172  35.2820234  70.4863266  -5.4116276
  39.5483803  71.0076095  -8.8282876  38.8634842  71.3874996  -9.3785843
  39.6327653  71.6171421  -8.0950928  34.8496272  62.1097441  -0.9064798
  34.6057204  62.8639502  -1.4430522  35.1256203  62.4882789  -0.0717551
  36.8034735  68.6536054  -2.2287532  37.0151630  69.2967813  -2.9053151
  36.7564483  67.8198370  -2.6965602  28.6071781  64.5230974   2.2663620
  27.9770442  65.2047255   2.4999017  28.5007869  64.4114055   1.3216758
  37.9180563  71.5308009  -4.0565175  38.7398007  71.1288196  -4.3382493
  37.9142966  71.4276243  -3.1049059  31.6837166  71.0792052  -1.9004465
  31.7481599  71.5412460  -1.0646293  30.9748090  70.4489417  -1.7722155
  46.0086556  67.8746757  -7.7080204  45.2550264  67.3054156  -7.8636199
  46.1434097  67.8409422  -6.7609569  27.8852524  58.8251740   4.6288871
  27.4919469  58.2717938   5.3036515  28.7018664  59.1362318   5.0195389
  30.8020485  60.2409619   2.2209128  31.5430198  60.8416772   2.1413590
  31.0338408  59.4987257   1.6627170  25.9461823  65.4265986   0.4987357
  25.8315338  64.5251243   0.7994456  25.0906341  65.6729683   0.1472174
  33.0253661  73.3683726   2.0974858  32.5817515  72.5820105   1.7795762
  33.6870874  73.5562877   1.4318749  35.1234899  73.6486526   0.1256259
  35.1053374  74.4695407  -0.3663472  36.0454819  73.5240601   0.3506400
  31.5807953  71.1630656   0.9679768  32.1136290  70.4018944   0.7379076
  31.0522034  70.8704308   1.7103922  37.9253511  68.4865669  -6.4034374
  37.2677186  69.1764930  -6.3154246  38.7293911  68.8762101  -6.0600388
  37.5020766  71.8216043 -10.2251290  37.0483094  70.9806953 -10.1686099
  36.8714733  72.4577441  -9.8876510  34.3552965  64.9056958  -1.3027389
  34.7102352  65.1328431  -0.4432923  35.0025096  65.2375335  -1.9250134
  40.1120081  70.0951921  -5.5866789  40.5456588  70.0027210  -4.7383735
  40.8251662  70.0709422  -6.2246773  33.8447976  73.6954015  -4.0533688
  33.8984998  74.2644951  -3.2855972  32.9762758  73.8655900  -4.4179651
  40.9735631  70.1375622  -3.0533903  41.1671521  71.0421432  -2.8074628
  40.8736249  69.6783041  -2.2195318  32.6271942  60.0233512  -0.5543576
  31.9799857  60.7223462  -0.6479100  33.3972957  60.4569656  -0.1867328
  36.0350739  70.2882364   2.5206977  35.8836246  70.0592916   1.6037061
  36.0255419  71.2452966   2.5338322  32.8036076  67.8614277  -2.4946756
  33.7328136  68.0125437  -2.6677789  32.3827106  67.9498298  -3.3498110
  31.6024408  71.8864942  -4.7248219  31.4635493  71.5183726  -3.8522280
  30.8139004  72.4012581  -4.8964261  33.1529623  71.2646544  -7.3359381
  32.8179455  71.2247314  -6.4401731  32.6533569  70.5991260  -7.8088971
  27.1273867  66.6714174  -1.8106800  26.9893665  65.9394413  -1.2095261
  28.0378790  66.5823074  -2.0922612  29.7556167  66.3834134  -2.3223120
  30.4655786  65.7427326  -2.3636502  29.7125476  66.6347029  -1.3996939
  37.7442946  73.3201487   0.5983459  37.6855492  72.6360707  -0.0685958
  38.1462465  74.0620477   0.1464085  28.4685101  63.3699352  -0.5027481
  27.9322458  62.9190090   0.1494116  27.8801810  63.5045260  -1.2457016
  37.7460353  71.2841071  -1.1702561  36.8587132  70.9466993  -1.0476162
  38.3158904  70.5524102  -0.9333796  42.2277694  66.6949288  -6.4085999
  42.2167570  67.5774004  -6.7792066  41.3595073  66.3420839  -6.6031462
  33.7360190  75.8429357  -2.0483159  34.4488163  76.4776822  -2.1207258
  33.2450219  75.9393223  -2.8643157  28.7872104  73.5923801  -1.2277588
  29.4881563  74.2260284  -1.0748194  28.3167219  73.9338532  -1.9881949
  36.5873390  66.1468408  -3.4025038  35.9344840  66.3944316  -4.0572585
  36.9653770  65.3332546  -3.7362561  32.6360963  66.8888219   3.0840999
  31.9601600  66.7882349   3.7543374  33.4588597  66.7327433   3.5476996
  25.8300511  62.6153429   1.5693534  26.4572550  62.2330506   2.1831058
  24.9728430  62.3967631   1.9349226  36.2294620  73.0216404   3.1747269
  36.7734524  73.6346363   2.6802224  35.6481465  73.5795983   3.6914282
  34.5152133  76.1437122  -5.6937703  34.3903272  75.3426862  -6.2026757
  35.1731224  76.6383316  -6.1823733  36.5787041  73.9446142  -4.0658153
  35.6317377  73.8251494  -4.1379826  36.9269814  73.0568640  -3.9831891
  28.9386615  59.8340281  -0.2419911  29.4621017  60.0802578   0.5206398
  28.7198948  60.6660316  -0.6616774  37.1867597  74.5627417  -6.7788928
  38.1114144  74.3570279  -6.9164477  37.0182900  74.3143818  -5.8699586
  42.8302304  67.8449508  -9.8036537  43.2733450  67.0956833 -10.2017413
  41.9528814  67.8359644 -10.1862805  23.5805894  66.2197650  -0.4633121
  22.8387630  66.3680285   0.1231510  23.2598639  66.4805916  -1.3266371
  31.5249557  75.7613628  -0.6652731  31.8336683  75.5162775   0.2069969
  32.3225039  75.9660267  -1.1533860  29.0668569  61.9371335   3.2307454
  29.1156724  62.8133458   2.8485223  29.6091083  61.3948728   2.6579097
  39.5523414  72.4812458   2.5108591  38.7618958  72.4636597   1.9713090
  39.3156769  73.0200752   3.2657627  39.6721289  69.3304925  -0.1758681
  39.7219294  69.1654932   0.7656842  39.5635213  68.4632184  -0.5660800
  36.9625052  65.3135853   1.1400626  37.8634915  65.1742318   0.8484624
  37.0373026  65.4790308   2.0798803  31.2967857  62.6902707  -0.0146188
  30.4271167  62.9836274  -0.2863599  31.5327338  63.2743152   0.7061076
  41.1739486  71.7501866   0.0683341  40.8824295  72.1131847   0.9046802
  40.5611618  71.0368874  -0.1103327  42.3735169  69.3154746  -7.4114089
  43.2082060  69.7544550  -7.2476529  42.5094297  68.8393399  -8.2305843
  39.4226675  66.8734481  -1.4636601  39.8980796  67.0662127  -2.2717750
  38.4992240  66.9293667  -1.7093218  38.1228344  63.7500241  -3.2308296
  39.0745766  63.8498339  -3.2096072  37.9531794  62.9578509  -2.7210211
  36.1442723  60.8355824  -3.0448895  35.5492655  61.1160837  -3.7402406
  35.8592420  61.3249725  -2.2732154  40.6016421  66.9706361  -4.1165996
  40.5692741  66.0322361  -3.9306312  41.2117045  67.0490397  -4.8500171
  40.7510910  63.7617404  -4.0707713  40.2349958  62.9775861  -4.2577784
  41.6350858  63.4336121  -3.9061193  46.4192971  68.0322367  -4.9759959
  47.1496360  67.7707656  -4.4152256  45.8099917  67.2951089  -4.9357891
  44.5008268  66.1730230  -4.3785508  43.7741432  66.0386195  -4.9869016
  44.0855555  66.4807059  -3.5728790  32.3238445  69.8920160   3.3861865
  33.2441454  70.0698759   3.5801912  32.2888028  68.9476205   3.2341564
  30.1928383  63.3754400   5.4187395  30.0925109  64.3248757   5.3499486
  29.9749925  63.0472639   4.5463465  30.0559653  66.8051539   4.2352457
  29.5726734  67.6051899   4.4416346  30.1420592  66.8159484   3.2819901
  26.5732372  69.2657190  -1.1608312  27.3925261  69.7601268  -1.1373475
  26.8469180  68.3489158  -1.1890744  44.4257136  65.7008283  -8.2508655
  43.8656694  65.7701472  -7.4777093  43.8200639  65.5249268  -8.9709159
  34.3520679  70.6676171   5.0376026  35.2211838  70.8416823   4.6762661
  33.8727430  71.4870588   4.9151755  26.1664777  60.7462941   3.6358899
  27.0296239  60.3899746   3.8462224  25.5930188  60.4076835   4.3234304
  42.8202861  82.3292225  -5.6217175  42.4821372  82.2133290  -6.5096640
  43.6892629  81.9283390  -5.6416169  43.3022644  83.4827077   0.3369031
  43.2911284  83.0879875  -0.5350466  43.4643283  82.7493149   0.9302802
  40.0229905  86.2664189  -0.7151785  39.7319771  87.1709820  -0.8305119
  40.6586889  86.3080716  -0.0007716  40.9486112  83.6441037  -4.1250426
  41.5449684  83.4197060  -4.8393463  41.0061083  82.9025783  -3.5224978
  48.4888270  73.7513058  -3.1197904  48.1571595  74.6208469  -3.3436689
  47.8933884  73.4349342  -2.4403874  48.3816934  78.4708144  -6.0404554
  47.4733811  78.4023553  -6.3345793  48.3304529  78.9480089  -5.2122729
  42.4557799  79.8897790   1.9030343  41.6791134  80.4491710   1.8933208
  43.0948363  80.3754573   2.4245213  50.2478580  76.6724583  -4.2626680
  49.6052960  76.9657116  -4.9086886  49.7433509  76.5577503  -3.4573484
  40.7104172  82.6983243   1.4648310  41.4518856  83.2368287   1.1883134
  40.0041157  83.3249532   1.6219862  46.1859511  84.8412384   0.0620471
  46.5942867  84.3994794  -0.6824896  45.4636773  84.2665011   0.3154664
  42.5390581  79.7784991  -2.5645972  43.3851777  80.2024404  -2.4211323
  42.4789219  79.1218615  -1.8707408  45.6890027  77.4389359  -0.9064798
  45.4450959  78.1931419  -1.4430522  45.9649957  77.8174707  -0.0717551
  47.6428490  83.9827971  -2.2287532  47.8545385  84.6259731  -2.9053151
  47.5958238  83.1490288  -2.6965602  45.2454719  76.5945792  -5.3250960
  44.3839198  76.8927045  -5.0334223  45.2717153  76.8116191  -6.2569928
  39.4465536  79.8522891   2.2663620  38.8164196  80.5339172   2.4999017
  39.3401623  79.7405973   1.3216758  42.5230921  86.4083970  -1.9004465
  42.5875353  86.8704377  -1.0646293  41.8141845  85.7781335  -1.7722155
  38.7246278  74.1543657   4.6288871  38.3313224  73.6009856   5.3036515
  39.5412419  74.4654236   5.0195389  41.6414239  75.5701536   2.2209128
  42.3823953  76.1708690   2.1413590  41.8732162  74.8279174   1.6627170
  36.7855577  80.7557904   0.4987357  36.6709092  79.8543161   0.7994456
  35.9300095  81.0021600   0.1472174  43.8647415  88.6975644   2.0974858
  43.4211269  87.9112023   1.7795762  44.5264629  88.8854794   1.4318749
  45.9628653  88.9778444   0.1256259  45.9447128  89.7987325  -0.3663472
  46.8848573  88.8532519   0.3506400  42.4201707  86.4922573   0.9679768
  42.9530044  85.7310862   0.7379076  41.8915788  86.1996225   1.7103922
  45.5871402  71.5982639  -3.5026591  45.2435672  72.4884281  -3.5787480
  45.9550365  71.4084297  -4.3657006  44.6667943  73.9687295  -5.5377357
  44.1632738  73.9317430  -6.3509552  44.9598549  74.8780037  -5.4780701
  40.9110828  74.0526024  -6.5311176  41.7763825  73.8568833  -6.8905286
  40.9788337  73.8236376  -5.6041819  38.5173148  76.2828232  -9.1594809
  39.0916899  76.0603414  -9.8921616  39.1044130  76.3516927  -8.4066208
  40.8195815  73.1569481 -10.4319740  40.1660228  72.8418498 -11.0563125
  40.7776289  72.5345222  -9.7059917  44.0533556  79.6451415  -6.1072092
  43.1356117  79.8666362  -6.2650404  44.4693699  79.7197725  -6.9660385
  47.3859068  70.8576199  -8.4008853  47.6917945  69.9973562  -8.6882938
  48.1111673  71.4493819  -8.6009859  45.1946719  80.2348876  -1.3027389
  45.5496107  80.4620349  -0.4432923  45.8418850  80.5667253  -1.9250134
  39.0886582  77.3425407  -4.5181048  39.7285962  77.2014166  -5.2158085
  38.2564113  77.0559920  -4.8942446  37.5640124  78.7263489  -2.5709237
  38.2363177  78.5180851  -3.2196588  36.7369911  78.5285575  -3.0104005
  43.4665696  75.3525430  -0.5543576  42.8193611  76.0515380  -0.6479100
  44.2366711  75.7861574  -0.1867328  46.8744494  85.6174282   2.5206977
  46.7230000  85.3884834   1.6037061  46.8649173  86.5744884   2.5338322
  43.6429830  83.1906195  -2.4946756  44.5721890  83.3417354  -2.6677789
  43.2220860  83.2790216  -3.3498110  37.9667621  82.0006092  -1.8106800
  37.8287419  81.2686331  -1.2095261  38.8772545  81.9114992  -2.0922612
  40.5949922  81.7126051  -2.3223120  41.3049540  81.0719244  -2.3636502
  40.5519230  81.9638946  -1.3996939  39.3078856  78.6991269  -0.5027481
  38.7716213  78.2482008   0.1494116  38.7195564  78.8337178  -1.2457016
  48.5854108  86.6132989  -1.1702561  47.6980887  86.2758910  -1.0476162
  49.1552659  85.8816020  -0.9333796  35.0417977  77.8347277  -3.4174486
  34.9576166  77.2272946  -4.1524076  34.2200684  78.3256295  -3.4164990
  45.2141691  76.3200840  -8.0504291  45.7110391  75.5670803  -8.3703221
  44.4428673  76.3565157  -8.6161082  41.7976660  78.4618223  -8.3232606
  41.4274447  77.9089264  -7.6351701  42.2935752  77.8576357  -8.8757606
  39.6265858  88.9215718  -1.2277588  40.3275318  89.5552201  -1.0748194
  39.1560973  89.2630450  -1.9881949  47.6560686  73.2870434  -5.9024932
  46.7423766  73.5174661  -5.7342725  48.0853787  73.3708878  -5.0510900
  47.4267144  81.4760326  -3.4025038  46.7738595  81.7236233  -4.0572585
  47.8047524  80.6624464  -3.7362561  43.4754717  82.2180137   3.0840999
  42.7995354  82.1174266   3.7543374  44.2982351  82.0619351   3.5476996
  37.1941993  75.8722214  -2.0779500  37.2583320  76.7337045  -2.4902103
  37.1309114  75.2596216  -2.8107142  36.6694266  77.9445347   1.5693534
  37.2966305  77.5622424   2.1831058  35.8122185  77.7259549   1.9349226
  47.0688375  88.3508322   3.1747269  47.6128279  88.9638280   2.6802224
  46.4875219  88.9087900   3.6914282  36.9754056  77.8277772  -6.5160563
  36.2540641  78.4413740  -6.6553089  37.7647311  78.3635537  -6.5943917
  39.7780369  75.1632199  -0.2419911  40.3014771  75.4094495   0.5206398
  39.5592703  75.9952234  -0.6616774  40.9832914  76.1045894  -2.5570240
  40.6429735  75.3053707  -2.1549560  40.2771921  76.4047605  -3.1293407
  41.6349386  73.1895206  -4.1042917  42.4575455  72.7155685  -4.2264027
  41.8787450  73.9685690  -3.6044231  39.1587965  79.8814327  -6.2950939
  39.0132546  80.1954630  -5.4026657  38.6813168  80.4999227  -6.8480040
  41.0184348  76.8716875  -6.2470049  41.0045917  75.9757968  -6.5837751
  41.7356776  76.8787539  -5.6131763  42.8710478  77.3054215  -4.2016922
  42.6128256  78.2271286  -4.2032591  42.3395519  76.9084650  -3.5116458
  43.2912434  73.4386166  -7.8415759  43.3134131  73.5025499  -8.7963780
  43.7080493  72.5990674  -7.6475253  34.4199649  81.5489568  -0.4633121
  33.6781385  81.6972203   0.1231510  34.0992393  81.8097833  -1.3266371
  39.9062323  77.2663253   3.2307454  39.9550479  78.1425376   2.8485223
  40.4484837  76.7240646   2.6579097  50.3917169  87.8104376   2.5108591
  49.6012713  87.7928515   1.9713090  50.1550523  88.3492670   3.2657627
  50.5115044  84.6596842  -0.1758681  50.5613049  84.4946850   0.7656842
  50.4028967  83.7924101  -0.5660800  47.8018806  80.6427770   1.1400626
  48.7028669  80.5034235   0.8484624  47.8766781  80.8082225   2.0798803
  42.1361612  78.0194625  -0.0146188  41.2664921  78.3128191  -0.2863599
  42.3721092  78.6035070   0.7061076  50.2620429  82.2026399  -1.4636601
  50.7374551  82.3954045  -2.2717750  49.3385994  82.2585584  -1.7093218
  44.8400646  74.2374242  -2.4980767  45.3582589  74.9735269  -2.8234279
  44.4855778  74.5438235  -1.6634008  45.0913240  70.6574525  -6.9779871
  45.3714993  69.9897714  -6.3519444  45.8763847  70.8503620  -7.4905207
  48.9622098  79.0792159  -3.2308296  49.9139521  79.1790256  -3.2096072
  48.7925548  78.2870427  -2.7210211  46.9836477  76.1647742  -3.0448895
  46.3886410  76.4452755  -3.7402406  46.6986174  76.6541643  -2.2732154
  51.5904664  79.0909322  -4.0707713  51.0743713  78.3067778  -4.2577784
  52.4744613  78.7628038  -3.9061193  49.2515391  72.8350337  -8.1111900
  49.0540212  72.5265425  -7.2268568  49.8615097  73.5611976  -7.9813970
  43.1632199  85.2212077   3.3861865  44.0835209  85.3990676   3.5801912
  43.1281782  84.2768123   3.2341564  36.1594272  83.1313112  -3.9715354
  36.3780282  84.0630220  -3.9527320  36.5720046  82.7721086  -3.1860550
  45.0089038  72.7159244 -10.3615369  45.5620076  73.1354698  -9.7025346
  45.2459124  71.7894992 -10.3192413  41.0322137  78.7046318   5.4187395
  40.9318864  79.6540675   5.3499486  40.8143679  78.3764557   4.5463465
  40.8953407  82.1343457   4.2352457  40.4120489  82.9343817   4.4416346
  40.9814346  82.1451402   3.2819901  37.4126127  84.5949107  -1.1608312
  38.2319016  85.0893186  -1.1373475  37.6862934  83.6781076  -1.1890744
  32.6661041  78.9287241  -0.4616115  33.3119905  78.4186195   0.0271110
  32.4578192  79.6655923   0.1127311  45.1914433  85.9968089   5.0376026
  46.0605593  86.1708741   4.6762661  44.7121185  86.8162506   4.9151755
  45.0016771  69.7870063 -10.4546282  44.2349167  69.2328549 -10.3089599
  45.4127476  69.8591931  -9.5932130  37.0058532  76.0754858   3.6358899
  37.8689994  75.7191663   3.8462224  36.4323943  75.7368753   4.3234304
  49.5640033  89.4835575   4.6288871  49.1706978  88.9301774   5.3036515
  50.3806173  89.7946153   5.0195389  51.8715892  94.0338235   5.4187395
  51.7712618  94.9832592   5.3499486  51.6537434  93.7056474   4.5463465
  47.8452286  91.4046776   3.6358899  48.7083748  91.0483581   3.8462224
  47.2717697  91.0660671   4.3234304  47.0688376  65.3570445 -10.1007424
  47.6128280  65.9700403 -10.5952469  46.4875221  65.9150023  -9.5840411
  50.3917170  64.8166499 -10.7646103  49.6012714  64.7990637 -11.3041603
  50.1550525  65.3554792 -10.0097066  45.1914434  63.0030211  -8.2378668
  46.0605594  63.1770864  -8.5992033  44.7121186  63.8224628  -8.3602938
  49.5640034  66.4897698  -8.6465822  49.1706980  65.9363896  -7.9718178
  50.3806174  66.8008276  -8.2559305  51.8715893  71.0400358  -7.8567298
  51.7712620  71.9894715  -7.9255207  51.6537435  70.7118597  -8.7291228
  47.8452288  68.4108899  -9.6395794  48.7083749  68.0545703  -9.4292469
  47.2717698  68.0722793  -8.9520390
 118.8659161 118.8659161 118.8659161 109.4712190 109.4712190 109.4712190
