default_name
    35
 180.0540000  14.1770000  44.7420000 180.3670000  15.6240000  44.4660000
 179.8940000  16.6080000  45.3540000 180.1660000  17.9700000  45.1540000
 179.6280000  18.9740000  46.0960000 178.2400000  18.9630000  46.1640000
 177.6100000  19.8460000  47.0030000 176.2150000  19.8110000  47.0300000
 175.5110000  20.6820000  47.8630000 176.2020000  21.5880000  48.6710000
 177.5940000  21.6210000  48.6440000 178.2060000  22.5310000  49.4610000
 178.2970000  20.7490000  47.8080000 179.7590000  20.7510000  47.7490000
 180.4380000  21.5130000  48.4350000 180.4090000  19.7930000  46.8250000
 181.7910000  19.7930000  46.7870000 180.9130000  18.3420000  44.0310000
 181.3920000  17.3770000  43.1420000 181.1320000  16.0110000  43.3440000
 181.6690000  14.9950000  42.3590000 181.5460000  15.3970000  41.0640000
 181.0420000  13.7850000  42.4280000 182.9930000  14.7300000  42.5460000
 180.0180000  14.0110000  45.8290000 179.0800000  13.9220000  44.2990000
 180.8350000  13.5420000  44.2990000 179.2970000  16.3020000  46.2260000
 175.6700000  19.0970000  46.3950000 174.4110000  20.6550000  47.8830000
 175.6470000  22.2740000  49.3280000 178.9850000  22.9670000  49.1760000
 182.2780000  19.3550000  47.4570000 181.1250000  19.4050000  43.8460000
 181.9830000  17.6920000  42.2690000
