default_name
 40185
  51.0470023  59.4100924  53.4674571  50.1995787  59.8522292  53.7937842
  51.8111229  60.0638608  53.5613019  51.1143864  58.4916327  53.8821749
  50.9134605  59.1770437  52.0355954  51.7145761  59.7021138  51.5153893
  51.0232841  57.6923316  51.7244789  51.9869055  57.3183867  52.0704531
  50.2221509  57.1541818  52.2311152  50.9059866  57.4781292  50.2171343
  51.9730334  57.5007378  49.5474317  49.7504571  57.2939377  49.7497747
  49.5924107  59.7408517  51.5192458  49.1659038  59.4143363  50.4093910
  48.9552171  60.6017527  52.3178719  49.2762076  60.7454063  53.2646707
  47.7506207  61.3051778  51.8801520  47.1757712  60.6105934  51.2676165
  46.8932530  61.7652995  53.0776054  47.5558710  62.1630711  53.8462506
  45.8868119  62.8461883  52.6609934  45.2235067  62.4489818  51.8926486
  45.2984278  63.1487640  53.5272226  46.4225966  63.7096788  52.2667624
  46.0755098  60.6025447  53.6449286  46.7705547  59.7902150  53.8573758
  45.6243432  60.9467364  54.5755629  44.9848019  60.1044564  52.7062687
  45.4352764  59.7596428  51.7755291  44.4482218  59.2805231  53.1767099
  44.2890658  60.9161655  52.4937143  48.2221501  62.4737351  51.0183812
  48.5252906  63.5633346  51.5210718  48.3274121  62.2399621  49.7075246
  48.0029634  61.3616067  49.3289429  48.9488998  63.1960415  48.7999750
  49.7032125  63.7735539  49.3343821  49.6204573  62.4756676  47.6375835
  48.7950937  62.0696238  47.0527737  50.1693601  63.2002197  47.0360604
  50.5621948  61.3370864  48.0517384  50.0376389  60.6945848  48.7589397
  51.0034594  60.5141555  46.8500886  51.5285316  61.1559252  46.1426074
  51.6693608  59.7167335  47.1799283  50.1289922  60.0795416  46.3658176
  51.7726437  61.8977582  48.7855779  51.4428300  62.4303129  49.6776025
  52.4336440  61.0806195  49.0744799  52.3092735  62.5843094  48.1307688
  47.9162435  64.1885877  48.2803614  46.8584808  63.7751123  47.7868636
  48.1862039  65.4874829  48.3753016  49.4193621  66.1020429  48.9014554
  50.2831898  65.6785989  48.3890130  49.4973452  65.9018450  49.9700706
  49.2301068  67.5716556  48.6027682  49.7187265  67.8151873  47.6593478
  49.6724127  68.1638218  49.4038962  47.7480930  67.7959922  48.5263002
  47.5425970  68.6141655  47.8360374  47.2856791  68.0095152  49.4899812
  47.1937910  66.4848952  47.9596197  46.2349882  66.2134798  48.4013539
  47.0515869  66.5594967  46.4493847  47.8822102  66.0665110  45.6839287
  45.9576986  67.1858696  46.0255459  45.2185162  67.4464735  46.6625658
  45.7826381  67.4743875  44.6120024  45.8029550  66.5509427  44.0332658
  44.4452725  68.1743035  44.3684500  44.4135340  69.1053892  44.9342877
  44.3365260  68.3915999  43.3058792  43.6309955  67.5256014  44.6913087
  46.9333913  68.3428599  44.1239965  47.3834392  69.2584283  44.8219674
  47.4243647  68.0268277  42.9286481  47.0137439  67.2187790  42.4830619
  48.5486591  68.6852115  42.2682801  48.6032656  68.3406078  41.2356303
  48.4083014  70.2154157  42.2685138  48.3895644  70.5703134  43.2989485
  49.2675925  70.6440101  41.7527370  47.1378312  70.6829632  41.5693510
  46.8674027  70.3033246  40.4261126  46.3509161  71.5037079  42.2520807
  45.4963665  71.8431187  41.8341751  46.6098260  71.7855421  43.1867657
  49.8917479  68.2853540  42.8694092  50.9057961  68.9068013  42.5404359
  49.9404403  67.2708282  43.7292844  49.0993468  66.8912525  44.1398736
  51.2227517  66.6950216  44.1218061  51.9139527  67.4912323  44.3981918
  51.0516504  65.7626956  45.3150565  50.5398378  66.3364860  46.0876570
  50.4254155  64.9238364  45.0113378  52.3588225  65.2428568  45.8583713
  53.2498528  66.0857113  46.5196664  52.9906980  67.1374479  46.6412743
  54.4486924  65.6060535  47.0187708  55.1278929  66.2726742  47.5501891
  54.7777992  64.2796175  46.8497968  55.9681172  63.8056852  47.3440429
  56.4870040  64.4821954  47.7852798  53.9240543  63.4283342  46.1802705
  54.1883543  62.3811221  46.0333257  52.7214970  63.9144307  45.6925995
  52.0378817  63.2485357  45.1659554  51.8308692  65.9202691  42.9557647
  51.1185024  65.2616754  42.1924732  53.1552805  65.9902924  42.8161779
  53.7124950  66.4666437  43.5109446  53.8330109  65.4371411  41.6436630
  53.1433397  64.8579152  41.0297002  54.4749324  66.5238785  40.7686238
  55.1820588  67.1019714  41.3635021  55.2071836  65.8665703  39.6084704
  54.5005749  65.2886326  39.0128252  55.6643822  66.6347033  38.9847384
  55.9820108  65.2047299  39.9953964  53.4293576  67.5163080  40.2635049
  52.9433726  67.9965789  41.1127755  53.9141570  68.2733793  39.6471347
  52.6833773  66.9881495  39.6696507  54.8887436  64.4446447  42.0981576
  55.7891897  64.7987304  42.8778815  54.7929164  63.2161916  41.5844280
  54.0306403  63.0349403  40.9471036  55.6847724  62.1127097  41.9283984
  56.2272142  62.3113885  42.8527266  54.9038892  60.7991904  42.0899575
  54.2497410  60.6692167  41.2278112  55.8463025  59.6283999  42.1856488
  56.5005094  59.7574422  43.0478914  55.2731150  58.7083052  42.2995885
  56.4483463  59.5708646  41.2788221  54.0177626  60.8747672  43.3196013
  53.3144631  61.7004146  43.2110736  53.4666664  59.9407202  43.4289119
  54.6347810  61.0375318  44.2032850  56.7560082  61.9758266  40.8553085
  56.4400181  61.7844605  39.6771182  58.0211914  62.0590653  41.2748508
  58.1751060  62.2986252  42.2438815  59.1901229  61.9173431  40.3991111
  60.0731863  62.2814613  40.9241980  59.4293435  60.4647440  39.9906746
  59.0793804  59.8270862  40.8024735  58.8403088  60.2678364  39.0949259
  60.9156663  60.1639015  39.7049226  61.3000191  60.9700883  39.0800733
  61.4405576  60.1635368  40.6602189  61.1361118  58.8311269  39.0050300
  62.2030242  58.6079986  39.0017742  60.6045364  58.0537109  39.5538027
  60.6231805  58.8809442  37.5697761  59.5391955  58.9889892  37.6072379
  61.0588573  59.7578092  37.0908266  60.9743454  57.6603533  36.7859776
  60.5703712  56.8477645  37.2293781  60.6115345  57.7470488  35.8473871
  61.9787593  57.5602879  36.7507817  59.0931304  62.7997991  39.1605875
  59.4366333  62.3840994  38.0510811  58.6139569  64.0295671  39.3539196
  58.2497662  64.2746626  40.2635309  58.5240855  65.0152895  38.2857378
  58.0172969  65.9080414  38.6521509  59.9210136  65.4121933  37.7930539
  60.5940692  65.4018953  38.6503692  60.2452743  64.6654771  37.0682298
  59.9441990  66.7762994  37.1530087  59.2398138  67.6781323  37.6521287
  60.6697404  66.9403701  36.1498918  57.6787962  64.5326702  37.1143217
  57.8110153  65.0535091  36.0026644  56.8477635  63.5239466  37.3208432
  56.7372106  63.0700512  38.2163075  56.1158388  62.9873370  36.1782110
  56.1237345  63.7030407  35.3561374  56.7834609  61.6809789  35.7009509
  57.8103734  61.9134305  35.4189649  56.7862415  60.9815893  36.5369811
  56.0560311  61.0473463  34.5064888  55.1670131  60.5423441  34.8842724
  55.7582708  61.8492453  33.8309158  56.9099360  60.0672583  33.7697956
  57.6451010  60.5934268  33.1608801  57.4236766  59.4132216  34.4743565
  56.0826397  59.2545346  32.9000704  55.1631233  59.6040864  32.6711543
  56.4662844  58.0945067  32.3817943  57.6894293  57.6124541  32.6283724
  58.3262301  58.1345600  33.2131717  57.9705955  56.7285709  32.2286278
  55.6333864  57.4048739  31.6301125  54.7056899  57.7618622  31.4511191
  55.9261739  56.5221871  31.2361099  54.6372908  62.7439417  36.4433287
  53.8099174  62.9257452  35.5379416  54.2668906  62.2910168  37.6372201
  54.9307822  62.1932222  38.3920601  52.8932569  61.8412867  37.8594437
  52.3331890  61.9095274  36.9268311  52.8589404  60.3903854  38.3455062
  53.4364015  60.2002777  39.2502144  51.8171905  60.1189153  38.5162728
  53.3729700  59.4660362  37.3139316  52.7751466  59.1718295  36.1291251
  51.8067475  59.6316633  35.9320059  53.5620688  58.3222263  35.4140196
  53.3265269  57.9491375  34.5054910  54.7045273  58.0503181  36.1111197
  55.7857941  57.2353144  35.7821258  55.7650563  56.7104375  34.8270484
  56.8164227  57.1437789  36.6874655  57.6757645  56.5098751  36.4688386
  56.7857184  57.8528788  37.8937779  57.6107605  57.7905328  38.6033680
  55.6916872  58.6653630  38.2257251  55.7010095  59.1834533  39.1846810
  54.6324476  58.7635029  37.3168087  52.2138205  62.7810277  38.8407220
  52.5336552  62.7804236  40.0329352  51.2751576  63.5753171  38.3293267
  51.0483533  63.4893665  37.3488821  50.5981568  64.6051823  39.1074949
  51.2208369  64.9032492  39.9510142  50.3319891  65.8335558  38.2390980
  51.3048422  66.2088633  37.9216071  49.7752914  65.4864996  37.3686155
  49.5546261  66.9532518  38.9266083  48.5544419  66.5910806  39.1644410
  50.0708197  67.2244113  39.8475419  49.4490944  68.1897326  38.0144810
  49.5947060  69.0824631  38.6226984  50.2342723  68.1322773  37.2606282
  48.0688868  68.2603815  37.3171131  47.8595531  67.2567969  36.9468459
  47.3462085  68.5197353  38.0907868  47.9644532  69.2475175  36.1804262
  48.6337255  69.0071191  35.4632213  47.0317728  69.2184751  35.7939502
  48.1579718  70.1775816  36.5233991  49.3046825  64.0182864  39.6698803
  48.3563505  63.7222365  38.9260424  49.2670273  63.8347116  40.9869924
  50.0751269  64.0465709  41.5546101  48.0943185  63.2634472  41.6394074
  47.8013982  62.2931773  41.2383172  48.3568649  63.1129352  43.1475584
  48.7269183  64.0621258  43.5351108  47.0774338  62.7236307  43.8897672
  46.7070108  61.7742411  43.5030539  47.2903247  62.6235932  44.9540841
  46.3218787  63.4952256  43.7418503  49.4841780  62.1025542  43.4051968
  50.3985616  62.4464982  42.9217640  49.6531426  62.0116841  44.4781801
  49.2021567  61.1312717  42.9987793  46.8804800  64.1409223  41.3627066
  46.9207441  65.3630035  41.5458637  45.7910163  63.5240256  40.9152066
  45.8452053  62.5486299  40.6587572  44.5210007  64.2208980  40.7244814
  44.6999853  65.2952313  40.6812172  43.8390051  63.7858662  39.4248171
  43.7256759  62.7082959  39.5435526  42.8544663  64.2501930  39.3683898
  44.6130915  64.0774762  38.1416679  45.6197325  63.6694257  38.2326055
  43.9214351  63.4492099  36.9580904  42.9148281  63.8571337  36.8662236
  44.4848338  63.6655886  36.0504215  43.8639828  62.3701321  37.1008870
  44.7918138  65.5788832  37.9354610  45.3427773  65.9986972  38.7770636
  45.3464822  65.7561167  37.0140315  43.8140219  66.0557925  37.8677888
  43.5658164  64.0011132  41.8895769  43.0279424  64.9655376  42.4371562
  43.3459498  62.7461981  42.2758667  43.7572299  61.9859955  41.7533345
  42.4878151  62.4225262  43.4027152  42.7056260  63.1003676  44.2280566
  41.0083591  62.5571347  43.0369388  40.4207112  62.4357655  43.9469052
  40.8477769  63.5562635  42.6319019  40.5773714  61.5231368  42.0159119
  41.3527253  61.4661455  41.2519229  40.4997616  60.5631940  42.5263907
  39.2533479  61.8565094  41.3659744  38.4494823  61.6042464  42.0575397
  39.2263184  62.9250559  41.1524864  39.0714171  61.0723522  40.0654404
  39.5119245  61.6410776  39.2465354  39.5822682  60.1138885  40.1575140
  37.6260757  60.8397671  39.7871342  37.1526078  61.7277815  39.7013535
  37.5282485  60.3214683  38.9258003  37.2178000  60.3124193  40.5456290
  42.7914558  61.0077704  43.8751974  43.3289902  60.1799055  43.1365517
  42.4738468  60.7684136  45.1415235  42.2469823  61.5475075  45.7428924
  42.4596493  59.4284785  45.7123663  43.3784866  58.8961796  45.4664087
  42.3532453  59.5424868  47.2333875  43.2720939  60.0490804  47.5286492
  41.5047278  60.2077719  47.3931178  42.1791776  58.3070012  48.0566601
  41.2037237  57.8580535  47.8694797  42.9615279  57.5831244  47.8285539
  42.2783204  58.7203698  49.5380338  43.2432434  59.2051536  49.6863824
  41.4791228  59.4333036  49.7407849  42.1549506  57.5410854  50.4831102
  41.7760318  57.8959158  51.4415550  41.4537891  56.8220446  50.0594924
  43.4749990  56.8864322  50.6839965  44.1247382  57.5524245  51.0769253
  43.3706614  56.1050863  51.3154331  43.8260924  56.5571871  49.7960606
  41.2745738  58.6664524  45.1351557  40.1765596  59.2176744  45.0204597
  41.4985289  57.4163350  44.7230920  42.4241205  57.0130402  44.7501623
  40.4137242  56.6252526  44.1403601  39.4502553  57.1052967  44.3117792
  40.6223363  56.4199297  42.6307036  39.8565964  55.7378341  42.2612603
  40.5280984  57.7389346  41.8835012  41.2938818  58.4214383  42.2521000
  40.6793275  57.5651939  40.8181164  39.5433620  58.1780890  42.0433033
  41.9658838  55.7559051  42.3542756  42.7485860  56.4704685  42.6089858
  42.0455556  54.8838416  43.0033188  42.1284033  55.3175788  40.8803806
  42.0493061  56.1892353  40.2307203  43.1043546  54.8514638  40.7448998
  41.3462738  54.6026096  40.6250527  40.2850765  55.2867118  44.8637847
  39.3409924  54.5292080  44.6239947  41.2284472  54.9839717  45.7556088
  42.0278797  55.5917026  45.8636370  41.1481723  53.7949328  46.5901335
  40.1167117  53.6349247  46.9041171  41.4952533  52.9274779  46.0287458
  42.0166289  53.9662996  47.8192919  42.8267250  54.8889873  47.9124310
  41.8414243  53.0709974  48.7815826  41.1598344  52.3276736  48.7267719
  42.6662642  53.1609003  49.9704520  43.7122694  53.0609985  49.6806382
  42.5096102  54.1349840  50.4338306  42.3279439  52.0804708  50.9708367
  41.2937136  51.4054296  50.8797262  43.2232755  51.9433711  51.9432929
  44.0219716  52.5613132  51.9614965  43.1055222  50.9442597  52.9823755
  42.1739501  51.1036910  53.5253803  43.0941527  49.9548991  52.5250617
  44.2650667  51.0241634  53.9572873  44.2984206  50.2845231  54.9383060
  45.1784183  51.8262293  53.7758457  46.9357728  48.5838911  53.8627686
  47.0594160  49.5849240  53.9151753  47.4018512  48.1575475  54.6508691
  45.9614737  48.3860368  53.6847389  47.6484298  48.1003634  52.6859301
  48.3992200  47.3753782  53.0002703  46.6815903  47.4144857  51.7164512
  46.1924805  46.5803900  52.2195963  45.9291022  48.1303540  51.3857031
  47.3204651  46.8520274  50.4692218  46.5328157  46.2027114  49.5111007
  45.4583994  46.1031841  49.6654503  47.1251500  45.6812257  48.3547297
  46.5119088  45.1756880  47.6087622  48.5051337  45.8090560  48.1564781
  48.9663084  45.4030429  47.2561609  49.2927863  46.4583716  49.1145979
  50.3672023  46.5578977  48.9602448  48.7004551  46.9798590  50.2709701
  49.3136988  47.4853979  51.0169342  48.3762435  49.2435184  51.9739296
  49.5806149  49.1598603  51.6818256  47.6283157  50.3049260  51.6973938
  46.6712347  50.3452463  52.0175027  48.1475438  51.4269318  50.9387482
  48.7906468  52.0319757  51.5778410  48.7234733  51.0572955  50.0903535
  47.0060494  52.2922693  50.4232819  45.9203762  52.3200306  50.9968610
  47.2914618  53.0104109  49.3429517  48.1895339  52.9151070  48.8907536
  46.3351268  53.9496097  48.7836502  45.3233226  53.6454380  49.0516632
  46.5788824  55.3533608  49.3190079  47.5917340  55.6498985  49.0464345
  45.8640019  56.0264555  48.8457326  46.4217246  55.4243451  50.8050721
  45.3588486  55.3458707  51.0336266  46.9498329  54.5753911  51.2392126
  46.9604366  56.6896347  51.3780481  46.2420324  57.2788305  52.2026945
  48.0838568  57.0917329  51.0116356  46.4971942  53.9421266  47.2771536
  47.5747514  53.6284803  46.7693077  45.4264116  54.2972179  46.5643003
  44.5597612  54.4950856  47.0437425  45.4381205  54.3505591  45.1069027
  46.4616210  54.2647453  44.7419618  44.5736966  53.2289786  44.4850141
  43.5448771  53.3371226  44.8284317  44.6134593  53.3203517  42.9676536
  45.6419712  53.2118242  42.6234360  44.0017764  52.5264029  42.5391795
  44.2251748  54.2884185  42.6511397  45.0820852  51.8621221  44.9545057
  45.0586796  51.1996613  44.0892319  46.1138158  52.0003622  45.2778028
  44.2716250  51.2433328  46.0908363  43.2398162  51.1043518  45.7681064
  44.7006714  50.2781938  46.3601411  44.2949506  51.9050543  46.9566771
  44.9539301  55.7245981  44.6536549  43.9606242  56.2537666  45.1670591
  45.6480884  56.2911344  43.6706524  46.3846358  55.7557601  43.2336493
  45.3976853  57.6369597  43.1896642  44.5031359  58.0365980  43.6673354
  46.5818174  58.5608568  43.5138652  47.4844935  58.1110336  43.1004234
  46.3756426  59.4993196  42.9992007  46.7810479  58.8267627  44.9783211
  47.6706261  58.0599993  45.7212569  48.2146256  57.2576235  45.2229026
  47.8737481  58.3012456  47.0802531  48.5690332  57.6929240  47.6587211
  47.1837505  59.3292575  47.6902825  47.3634465  59.5782979  49.0301875
  47.9894846  58.9785847  49.4425224  46.3018610  60.1163714  46.9634011
  45.7642853  60.9322921  47.4465018  46.1063080  59.8597709  45.6142009
  45.4144130  60.4735089  45.0373931  45.2083869  57.5763775  41.6815562
  45.8857710  56.8017843  41.0043042  44.3029694  58.4005657  41.1534634
  43.5589648  58.7791079  41.7220248  44.3291311  58.7373560  39.7375842
  44.7343237  57.8964250  39.1747759  42.9207356  59.0509507  39.2065677
  42.3282770  58.1428190  39.3178724  42.5072264  59.8340807  39.8420342
  42.8848308  59.5058166  37.7511547  43.2991646  60.5135415  37.7208432
  43.5311400  58.8307717  37.1901752  41.4771069  59.5101416  37.1220730
  40.5172961  58.9951246  37.7312246  41.3426895  60.0413026  35.9997656
  45.2660623  59.9276384  39.5808915  45.1758127  60.8997404  40.3397610
  46.2189224  59.8131848  38.6593309  46.2865075  58.9630424  38.1182306
  47.2083405  60.8551806  38.4330092  46.8572443  61.7875892  38.8751007
  48.5781449  60.4995009  39.0535444  48.9470309  59.5727194  38.6141138
  49.2873914  61.3028972  38.8544865  48.4676020  60.3716436  40.1303601
  47.3500829  61.0843353  36.9403143  47.0207145  60.2204842  36.1189911
  47.8211177  62.2702639  36.5957427  47.9582292  62.9962210  37.2844270
  48.1371961  62.5672764  35.2104734  47.5445178  61.9249838  34.5590965
  47.8320440  64.0201572  34.8699654  46.7686665  64.1978468  35.0304459
  48.4113415  64.6610298  35.5346433  48.1904847  64.3406220  33.4077713
  49.2661295  64.2288209  33.2714275  47.6673538  63.6450476  32.7515608
  47.7143675  66.0177997  32.9886517  48.1241652  65.9955224  31.2088552
  47.5384870  65.2231924  30.7102708  47.8929693  66.9661516  30.7700750
  49.1859448  65.7839092  31.0825808  49.6093777  62.2937852  34.9597348
  50.4842841  62.7825716  35.6992912  49.8793167  61.5351388  33.9060851
  49.1238896  61.0613539  33.4317887  51.2341314  61.3175349  33.4314233
  51.9162847  61.2076149  34.2744439  51.2838457  60.0467160  32.5970415
  50.7294570  59.2792383  33.1371623  50.7956143  60.2428648  31.6424443
  52.6818012  59.5733443  32.3537381  53.5097424  60.4237901  31.9825759
  52.9345876  58.3573533  32.5247466  51.6392555  62.5471586  32.6354190
  51.1659539  62.7457789  31.5180285  52.4947838  63.3972623  33.2205626
  52.8556273  63.2103671  34.1452039  52.8855404  64.6534922  32.5595386
  51.9977481  65.1994641  32.2404168  53.6796353  65.5348371  33.5335844
  54.4799445  64.8793437  33.8769980  54.1106852  66.4056818  33.0396962
  52.8446877  65.9897299  34.7310396  52.3592119  65.1158995  35.1655905
  53.7266176  66.6841218  35.8111163  54.2120891  67.5583706  35.3774054
  53.1004854  66.9944501  36.6476302  54.4852727  65.9861241  36.1651532
  51.6797289  66.8860600  34.2868746  51.0350873  66.3330174  33.6037344
  51.1040983  67.1938107  35.1598237  52.0718700  67.7685234  33.7813227
  53.7023095  64.4107545  31.2975716  53.8732368  65.3353930  30.4985939
  54.2157793  63.1979945  31.1081751  54.1080128  62.4879454  31.8183273
  54.9934409  62.8744240  29.9214323  55.4713450  63.7780219  29.5429911
  56.0776954  61.8431446  30.2355262  56.7044286  62.3904943  30.9395951
  55.6760974  60.9543762  30.7222601  56.9149046  61.4268227  29.0252192
  56.2503966  60.9448386  28.3081270  57.6308255  62.6429215  28.3389438
  58.2959002  63.1251652  29.0553345  58.2107404  62.2898166  27.4862326
  56.8838344  63.3597097  27.9978874  57.8727306  60.3157235  29.4355140
  57.3032863  59.4596606  29.7974381  58.4717018  60.0157333  28.5756648
  58.5295713  60.6755743  30.2274525  54.0640053  62.3701118  28.8269696
  53.9773992  63.0001564  27.7667676  53.3450321  61.2595444  29.0855631
  53.3560876  60.8243164  29.9969103  52.5426711  60.6418408  28.0328669
  53.0475902  60.7789542  27.0766474  52.3443026  59.1388248  28.2716381
  51.8226104  58.7096793  27.4162016  53.7036542  58.4369597  28.4483937
  54.2257669  58.8652833  29.3039852  53.5440756  57.3719260  28.6167300
  54.3046094  58.5762002  27.5497472  51.5613696  58.9534525  29.4649692
  51.4330451  58.0149340  29.6209058  51.1695228  61.2658248  27.9101778
  50.4932526  61.0268001  26.9037137  50.7155660  62.0227964  28.9268863
  51.2760693  61.9335576  29.7623334  49.5024273  62.8528979  28.9862751
  49.5577722  63.4984401  29.8628089  49.3388623  63.7392569  27.7291537
  48.9733669  63.1083519  26.9189247  48.5981918  64.5067701  27.9537216
  50.6547202  64.4070666  27.3037571  51.3526937  63.6108703  27.0449033
  50.4421995  65.0054799  26.4178460  51.2644065  65.2828085  28.3661830
  51.3100498  64.7335335  29.3065620  52.2716252  65.5705398  28.0648187
  50.4744332  66.4911308  28.5689251  49.6397337  66.5770456  28.0067908
  50.7588968  67.4586970  29.4329535  51.8345241  67.3940660  30.2293195
  52.4494125  66.5944260  30.1784453  52.0255188  68.1452815  30.8768501
  49.9719298  68.5268661  29.5027142  49.1646195  68.5957878  28.8997217
  50.1846075  69.2650545  30.1584159  48.2191372  62.0632270  29.2090806
  47.1496214  62.6653589  29.2416871  48.2868547  60.7442861  29.3524340
  49.1308418  60.2696530  29.0651912  47.1779270  59.9407900  29.8514723
  46.2437878  60.3586246  29.4761092  47.2722266  58.4697930  29.4077590
  46.3250166  57.9930800  29.6600230  47.4041323  58.4647194  28.3257816
  48.4537059  57.6789944  30.0837843  49.4180305  58.0626263  29.7506095
  48.3259177  57.8912244  31.1452586  48.3999833  56.1494209  29.8537301
  49.1189846  55.4527824  30.6049151  47.5943781  55.6496474  29.0095141
  47.1028655  60.0057801  31.3676076  48.0798532  60.3298182  32.0451770
  45.9364451  59.6790763  31.8962380  45.0971399  59.6197862  31.3375335
  45.8283757  59.4525695  33.3305196  46.5403737  60.0966561  33.8465724
  44.4230204  59.7569935  33.8561808  43.7304698  59.3142318  33.1403351
  44.2557387  59.3201107  34.8406859  44.1521376  61.2456505  33.9347153
  45.0192897  62.0483228  33.6140526  42.9725129  61.6192762  34.4314834
  42.7464697  62.6010100  34.5036158  42.3104242  60.9188421  34.7333633
  46.2084772  58.0181109  33.6456661  46.0588506  57.1240036  32.8091293
  46.7020532  57.8075846  34.8713396  46.6983638  58.5778936  35.5245698
  47.2603652  56.5310405  35.3092665  46.9267816  55.7135833  34.6700601
  48.8034142  56.5477340  35.3235480  49.1727450  55.5682163  35.6272568
  49.3386641  56.8856300  33.9008971  48.9701044  57.8652781  33.5966698
  50.4285163  56.8964242  33.9152596  48.9925852  56.1320555  33.1934677
  49.3475199  57.5634027  36.3715633  48.9944399  57.2857480  37.3647120
  50.4373700  57.5519248  36.3576141  48.9920622  58.5643297  36.1268269
  46.7430827  56.2428289  36.7087307  46.2059698  57.1220138  37.3883503
  46.9135703  54.9852073  37.1413492  47.1824463  54.2617484  36.4898799
  46.6784113  54.6126936  38.5258288  46.0484756  55.3513444  39.0214852
  45.9917551  53.2424597  38.6162352  46.6149416  52.4905381  38.1321354
  45.8485774  52.9756084  39.6633220  45.0235625  53.2870517  38.1175228
  48.0233242  54.6012850  39.2590000  48.9873447  54.0052710  38.7787023
  48.0830393  55.2807599  40.4025055  47.2433864  55.7488852  40.7122491
  49.2920295  55.4138858  41.2163226  50.1125695  54.8686786  40.7498869
  49.6931393  56.8849880  41.3450939  50.0279929  57.1076179  40.3319758
  48.7926656  57.4588850  41.5639307  50.7922403  57.2626428  42.3395239
  50.4957057  56.9088951  43.3269603  52.1317067  56.6510820  41.9639148
  52.4291438  57.0047519  40.9767230  52.8838262  56.9445119  42.6962507
  52.0442921  55.5646955  41.9489687  50.8718228  58.7888802  42.4435101
  49.9150269  59.1804209  42.7889618  51.6536330  59.0650963  43.1510260
  51.1035162  59.2086784  41.4646401  48.9975430  54.8064881  42.5770800
  48.2138794  55.3763241  43.3408545  49.5923233  53.6426542  42.8570372
  50.2257805  53.2524580  42.1739718  49.3610561  52.8972059  44.0932379
  48.4808968  53.2979828  44.5960269  49.1319282  51.4114895  43.8176585
  48.3366339  51.3346393  43.0762408  50.0556853  51.0091253  43.4018749
  48.7506333  50.6265205  45.0458726  49.6208517  50.5576284  45.6986164
  47.9504634  51.1563490  45.5627014  48.2823012  49.2377422  44.6839255
  47.5965499  49.3035439  43.8392277  49.1455867  48.6339177  44.4042227
  47.5818795  48.5996596  45.8480106  47.2085338  49.3690764  46.5238147
  46.7486502  47.9932288  45.4929476  48.5557501  47.7309250  46.5730115
  49.3277069  48.2927392  46.9024767  48.0968656  47.2947038  47.3599270
  48.9014993  47.0176361  45.9470918  50.5555174  53.0438075  45.0196397
  51.6992525  52.8443089  44.5938412  50.2857483  53.3729447  46.2761266
  49.3321839  53.3979434  46.6080744  51.3472593  53.7565466  47.1961212
  52.3636719  53.5638704  46.8527842  51.2445051  55.2389097  47.6305970
  52.1253687  55.4922043  48.2205296  51.1620817  56.1693054  46.4065483
  50.2811499  55.9169031  45.8163337  51.0906960  57.2044380  46.7404722
  52.0559679  56.0461597  45.7950712  50.1314941  55.4676538  48.6631234
  50.3309248  54.8688277  49.5517947  50.0995515  56.5224489  48.9360457
  49.1727014  55.1743084  48.2356122  51.3016017  52.8501375  48.4223895
  50.2533207  52.3609716  48.8520342  52.4628343  52.6607988  49.0208447
  53.3138587  53.0113375  48.6049366  52.5603477  51.9123453  50.2591179
  51.5722231  51.7997802  50.7052547  53.1365196  50.5201266  49.9888695
  52.4668700  50.0446598  49.2722107  54.1112742  50.6758222  49.5265791
  53.2906997  49.6292754  51.2026119  53.8139826  50.1636106  51.9955567
  52.2847070  49.3768813  51.5378360  54.0467000  48.3551806  50.8666789
  53.4039538  47.2878962  50.7369091  55.2905505  48.4381632  50.6936852
  53.4386894  52.7332043  51.1837174  54.4816651  53.2277338  50.7499393
  52.9776312  52.9514637  52.4141166  52.0751457  52.6025154  52.7036928
  53.7542136  53.7355267  53.3676312  53.9120962  54.7396328  52.9740028
  53.0202874  53.8448662  54.7072573  51.9625047  54.0203105  54.5112619
  53.1383479  52.9049788  55.2464913  53.5386901  54.9085893  55.4918354
  53.0619153  54.9543870  56.3238139  55.1201028  53.1041636  53.5836898
  55.2382465  51.8853505  53.7216016  56.1572032  53.9463950  53.5965366
  56.0280074  54.9296404  53.4051307  57.5122547  53.4592416  53.8278302
  57.6975918  52.6477024  53.1241587  58.5376203  54.5687286  53.5764145
  58.3706000  55.3846783  54.2795719  59.5436813  54.1721782  53.7131237
  58.4293829  54.9400889  52.5573583  57.6957900  52.9089040  55.2330894
  58.6389095  52.1449103  55.4611469  56.8249350  53.2699897  56.1746699
  56.1588457  54.0025184  55.9751053  56.8361583  52.6929981  57.5103075
  57.7963244  52.2096051  57.6906171  56.6232289  53.7731666  58.5777563
  55.9800401  54.5281134  58.1255808  56.0943361  53.2912222  59.4000106
  57.8910880  54.4370693  59.1083978  57.6794298  54.9065585  60.0690651
  58.6579779  53.6735476  59.2388456  58.4121067  55.4846453  58.1666812
  57.6373566  56.1901379  57.5210410  59.7323831  55.6050419  58.0830088
  60.1353559  56.2943713  57.4645111  60.3271672  55.0067002  58.6382749
  55.8029770  51.6012324  57.7003973  55.6067944  51.1524873  58.8297229
  55.1158467  51.1622382  56.6257262  55.0221744  51.3467589  55.6371530
  54.2073245  50.2010218  57.2384305  54.0307068  50.4701065  58.2798232
  52.8691810  50.1913486  56.5033270  52.2085965  49.5687055  57.1066867
  52.5160691  51.2223350  56.5252189  52.8704283  49.6926585  55.0857658
  52.0630242  50.1415122  54.5072074  53.8291275  49.9771089  54.6520771
  52.7361607  48.1891831  55.0164269  52.1689538  47.5622362  55.9233315
  53.2025359  47.6022830  53.9177766  53.1384825  46.5991885  53.8187822
  53.6186006  48.1623936  53.1875248  54.8398143  48.8090324  57.2757829
  55.6211888  48.4471699  56.3873217  54.5272094  48.0339524  58.3200354
  53.5180307  48.3003617  59.3617904  52.5485421  47.9194261  59.0407297
  53.4458654  49.3735866  59.5380843  54.0635287  47.5610404  60.5483485
  53.2535601  47.2698642  61.2171283  54.7735139  48.1866715  61.0892811
  54.7454588  46.3632325  59.9610832  54.0326417  45.5724379  59.7273424
  55.5139199  45.9733419  60.6285804  55.3901337  46.8844482  58.6673084
  56.3884699  47.2823832  58.8491626  55.4632062  45.8020624  57.6039978
  56.5659178  45.4054440  57.2024858  54.3144122  45.3000662  57.1487671
  53.4466313  45.6680985  57.5115452  54.2523522  44.2085932  56.1769532
  55.1401724  43.5831073  56.2699142  53.0201896  43.3438215  56.4154700
  52.3067361  43.9508205  56.9728169  52.6048253  43.1024985  55.4370346
  53.2954508  42.0660453  57.1747033  53.8106514  41.3711994  56.5114851
  53.9359537  42.2978828  58.0256495  52.0084830  41.4330120  57.6686270
  51.6241244  42.0207921  58.5022229  51.2807798  41.4352270  56.8571206
  52.2520356  40.0044474  58.1262855  51.3588857  39.6503760  58.6410837
  52.4326670  39.3867000  57.2465926  53.4258505  39.9148768  59.0470790
  53.2584917  40.4868866  59.8624903  53.5586099  38.9546977  59.3308590
  54.2536476  40.2425200  58.5701085  54.2350406  44.8153038  54.7824538
  53.2084056  45.3211473  54.3297596  55.3603117  44.7404127  54.0855224
  56.1293745  44.1969664  54.4506358  55.5545753  45.4564753  52.8332836
  54.7816089  46.2156669  52.7139086  56.9150224  46.1419651  52.8286686
  57.6659074  45.4118584  53.1306871  57.1239983  46.4784816  51.8131955
  56.9555216  47.3238118  53.7688166  55.9209435  47.6250074  53.9332252
  57.4040233  47.0328777  54.7187143  57.7165965  48.4989063  53.2176625
  58.4312833  48.3817765  52.2216483  57.6053720  49.6380810  53.8936419
  58.0932481  50.4620368  53.5724329  57.0334977  49.6744334  54.7253508
  55.4217424  44.4776345  51.6743569  56.3157188  43.6607371  51.4359649
  54.3129412  44.5683441  50.9471530  53.6095535  45.2519780  51.1879635
  54.0261362  43.6338880  49.8699855  54.8150001  42.8843938  49.8063359
  52.6768239  42.9132144  50.0904548  52.4829777  42.2537973  49.2444690
  52.7179744  42.0929327  51.3746404  52.9113329  42.7517759  52.2211858
  51.7608473  41.5910983  51.5166625  53.5112125  41.3485445  51.3056401
  51.5407983  43.9253701  50.1772637  51.4903154  44.4960840  49.2499886
  50.5977106  43.4013888  50.3325978  51.7206981  44.6035925  51.0113808
  54.0623352  44.2805217  48.4980421  54.0970270  43.5468960  47.4935727
  54.0815717  45.6179419  48.4168137  54.0518922  46.1833563  49.2531898
  54.0875585  46.2966620  47.1204460  53.1633008  46.0800918  46.5847741
  54.1984555  47.8137637  47.3127042  53.9892045  47.8880661  48.3798464
  55.2429573  48.0657746  47.1293831  53.2937329  48.7902137  46.5443681
  52.7830863  49.4343085  47.2602471  54.1085402  49.6417108  45.5904714
  54.6191475  48.9982998  44.8739511  53.4474902  50.3251904  45.0575838
  54.8455827  50.2146541  46.1531478  52.1711147  48.0842220  45.7966400
  51.5481311  47.5391534  46.5057881  51.5635265  48.8215051  45.2719006
  52.5967929  47.3858259  45.0761264  55.2197046  45.8015623  46.2342567
  55.0609044  45.7177034  45.0165502  56.3647554  45.4456842  46.8282630
  56.5073395  45.5780393  47.8193489  57.4648970  44.9164711  46.0380788
  57.7305505  45.6542301  45.2809532  58.6884837  44.6702388  46.9343596
  58.9765425  45.6021152  47.4209064  58.4408003  43.9268247  47.6920458
  59.8476189  44.1618832  46.0837103  59.5604511  43.2297243  45.5971763
  60.0961961  44.9050147  45.3260382  61.0619750  43.9175062  46.9732294
  61.3500336  44.8493815  47.4597781  60.8142911  43.1740909  47.7309138
  62.2211107  43.4091525  46.1225786  61.9339435  42.4769942  45.6360434
  62.4696880  44.1522856  45.3649099  63.3916691  43.1735875  46.9800173
  63.1616743  42.4846952  47.6818930  64.1593597  42.8369085  46.4166360
  63.6581888  44.0373168  47.4306147  57.0753878  43.6350900  45.3110197
  57.4346318  43.4429240  44.1466963  56.3748597  42.7217506  45.9794398
  56.1684952  42.8008716  46.9649615  55.9936253  41.4925011  45.2885998
  56.8224549  41.1233145  44.6845783  55.6274962  40.4228941  46.3239638
  56.5626062  40.1936519  46.8349596  54.9486360  40.9213059  47.0159425
  54.9914272  39.1347294  45.8307833  55.5346029  38.8250774  44.9379358
  55.1228842  38.3870751  46.6129816  53.2607511  39.2771007  45.4426188
  52.6437870  39.8610668  47.0300179  53.1236100  40.8069927  47.2812013
  51.5651324  40.0060423  46.9701273  52.8685685  39.1242084  47.8011303
  54.8808888  41.7609301  44.2771472  54.8502342  41.1412519  43.2056267
  53.9970433  42.7117471  44.5746995  54.0140685  43.1759259  45.4715537
  52.9640026  43.0970043  43.6142446  52.3097343  42.2520071  43.3997408
  52.1276939  44.2217223  44.2029664  52.8343644  44.9538767  44.5936914
  51.5759235  44.6583927  43.3705191  51.1717695  43.8277596  45.2816238
  50.4943184  43.0671248  44.8935574  51.7404858  43.4158362  46.1152785
  50.3681902  45.0245004  45.7596998  49.5278298  45.5102073  44.9822698
  50.5658850  45.4768710  46.9005146  53.5883781  43.5569933  42.3040922
  53.1317197  43.1882182  41.2117301  54.6271976  44.3903688  42.4014649
  54.9035245  44.7579882  43.3006860  55.3459343  44.8487902  41.2154154
  54.6898998  45.2930072  40.4668239  56.4183198  45.8862423  41.6092725
  57.0508838  45.4645512  42.3903862  57.2711632  46.2468705  40.4084630
  56.6393184  46.6690836  39.6270482  58.0226626  46.9794968  40.7027550
  57.7654291  45.3516275  40.0311795  55.8043381  47.1258282  42.2194204
  55.2478511  46.8526729  43.1159752  56.5930011  47.8307037  42.4825948
  55.1288786  47.5890577  41.5002030  55.9653382  43.6637770  40.4842864
  55.9143147  43.5780697  39.2523753  56.5636748  42.7240025  41.2328358
  56.6343044  42.8064268  42.2369857  57.2126187  41.5878410  40.5840349
  57.9258334  41.9727876  39.8551727  57.9719791  40.7577805  41.6193109
  57.2699279  40.3579085  42.3509711  58.4845619  39.9349789  41.1209571
  58.7036009  41.3878224  42.1251528  56.2087092  40.7321831  39.8170640
  56.4820351  40.3047386  38.6861041  55.0261649  40.4916562  40.4036992
  54.8439892  40.7735642  41.3562953  53.9903330  39.7443203  39.6917313
  54.3704667  38.8189433  39.2589785  52.8393771  39.4016435  40.6500998
  52.4850442  40.3199945  41.1182652  51.6897478  38.7385677  39.8974087
  52.0432238  37.8198434  39.4293259  50.8854297  38.5042769  40.5947470
  51.3181133  39.4172005  39.1296543  53.3525505  38.5005566  41.7654959
  54.1400267  39.0153770  42.3158987  52.5341581  38.2590802  42.4437455
  53.7512770  37.5813769  41.3362795  53.4966233  40.5423679  38.4909533
  53.3250620  40.0052710  37.3864083  53.2643019  41.8349484  38.6826516
  53.3480853  42.2687962  39.5908674  52.7858655  42.6516572  37.5641444
  51.8952722  42.1991379  37.1280608  52.4312832  44.0602158  38.0499573
  51.6947518  43.8909786  38.8354377  53.3342366  44.4882106  38.4853832
  51.8565069  45.0293861  37.0114945  52.5523295  45.1047224  36.1758772
  50.5174273  44.5407201  36.5090968  49.8208903  44.4655674  37.3441340
  50.1266994  45.2430620  35.7727896  50.6375939  43.5606097  36.0475300
  51.7124226  46.4267707  37.6062465  52.6897554  46.7890317  37.9251306
  51.3028610  47.1016463  36.8546459  51.0415549  46.3895081  38.4645280
  53.8192050  42.6915387  36.4397989  53.4713453  42.5941666  35.2609366
  55.1007116  42.8011360  36.7779976  55.4038592  42.9948115  37.7217617
  56.1117987  42.7136924  35.7315888  55.8857727  43.4266917  34.9387184
  57.4884460  43.0329854  36.2945295  57.5563634  42.5372720  37.2629069
  58.2177054  42.5969335  35.6117855  57.7718438  44.4918392  36.4607555
  57.6463429  45.0052797  35.5074826  57.0911929  44.9207059  37.1962077
  59.2146845  44.6583098  36.9434109  59.3803076  43.9598157  37.7636389
  59.8794957  44.4104478  36.1159510  59.5028129  46.0755887  37.4183199
  59.7523183  46.6782148  36.5449990  58.5962749  46.4654918  37.8812060
  60.6436051  46.1338071  38.4145647  61.4838216  45.7729577  37.9857016
  60.7947075  47.0914468  38.6977506  60.4124280  45.5758088  39.2240671
  56.1062623  41.3414323  35.0682626  56.2444924  41.2368071  33.8383996
  55.9410865  40.2737312  35.8682478  55.8608602  40.3758865  36.8698602
  55.9482527  38.9286246  35.3097374  56.8569661  38.7763741  34.7273638
  55.9015011  37.8832304  36.4245608  55.1882313  38.2414941  37.1668496
  55.5294542  36.9602890  35.9797460  57.2442682  37.6178034  37.0969944
  57.9518736  37.2520791  36.3529237  57.6189083  38.5459769  37.5285509
  57.0817668  36.5821331  38.1908314  56.0472922  36.6021479  38.5337027
  57.3065060  35.6009012  37.7727695  58.0094685  36.8575728  39.3635908
  58.0777741  37.9355998  39.5095109  57.5893432  36.3963643  40.2573920
  59.3521536  36.3107283  39.1150031  59.7418030  36.7382809  38.2870708
  59.9474103  36.5066877  39.9070696  59.2891363  35.3117525  38.9801875
  54.7990429  38.7279896  34.3432022  54.9238548  37.9587120  33.3846162
  53.6881861  39.4292744  34.5563235  53.6486546  40.0864818  35.3222315
  52.5008463  39.2522377  33.7390271  52.4697062  38.2402263  33.3353412
  51.2506759  39.4776445  34.5893280  51.5052431  40.2905013  35.2694445
  50.3926619  39.7673806  33.9827268  50.9029494  38.2235193  35.3998645
  51.7972867  37.8041689  35.8607407  49.9390315  38.6396363  36.4686764
  49.0441815  39.0586897  36.0085279  49.6657405  37.7724573  37.0698530
  50.4048937  39.3909324  37.1063495  50.3488763  37.0823657  34.5376131
  51.0904625  36.7970186  33.7914721  50.1227574  36.2245466  35.1709517
  49.4391092  37.4134424  34.0368028  52.4644394  40.1946308  32.5375294
  51.5144534  40.1423926  31.7558218  53.4584712  41.0695802  32.3701330
  54.2352883  41.1513929  33.0104151  53.3895163  41.9954127  31.2440831
  52.4598267  42.5623461  31.2926935  54.5633027  42.9773576  31.2734258
  55.4778599  42.3858199  31.3154674  54.5372807  43.5393144  30.3398159
  54.5308441  43.9342361  32.4360159  54.5769640  43.3809224  33.3740019
  55.3939039  44.5958949  32.3622769  53.2755427  44.7757353  32.4329437
  53.1222199  45.6734506  31.5954687  52.3589392  44.4814699  33.3565517
  51.5009381  45.0126078  33.3993081  52.5272054  43.7288997  34.0087986
  53.3662963  41.2248876  29.9290551  54.1782242  40.3239374  29.7106177
  52.4401442  41.5941939  29.0492499  51.8599003  42.3949051  29.2548661
  52.2269944  40.8980442  27.8083906  52.0976056  41.6483796  27.0284198
  53.1222650  40.3113568  27.6025071  51.0270154  39.9795583  27.8110621
  50.5918937  39.5530048  26.7377745  50.5008886  39.6491413  28.9900189
  50.9624375  39.9514511  29.8359981  49.2754326  38.8756238  29.1118923
  49.2638929  38.0814725  28.3653739  49.1785567  38.2403995  30.5049103
  49.1255391  39.0662135  31.2143606  48.2405180  37.6855591  30.5232269
  50.3145004  37.3209994  30.8869472  51.2331018  37.7138962  30.4511669
  50.4007211  37.3180510  31.9735287  50.0933640  35.9436830  30.4079063
  49.0533661  35.6657436  30.5789418  50.3113698  35.8943033  29.3410724
  51.0047999  34.9820505  31.1566115  51.3297024  35.4523038  32.0847284
  50.4486502  34.0730496  31.3857708  52.1967403  34.6396996  30.3297053
  52.7124562  35.4818121  30.1176123  52.7894703  34.0017683  30.8413835
  51.8959171  34.2035527  29.4698330  48.0538481  39.7633274  28.9174374
  48.0570957  40.9625182  29.2258216  46.9836500  39.1613214  28.4277580
  47.0312228  38.2239408  28.0547247  45.7031774  39.8522339  28.3963474
  45.8309834  40.8326118  27.9374095  44.6698394  39.0656433  27.5888711
  44.4878065  38.1174852  28.0947953  43.7517508  39.6530877  27.5778024
  45.1146581  38.8017856  26.1718437  45.7364851  39.6989911  25.5714077
  44.8532665  37.6903841  25.6620328  45.1900330  40.0438282  29.8210942
  45.5914764  39.3318236  30.7540560  44.2904469  41.0110672  29.9925015
  44.0791200  41.6404716  29.2313903  43.6447828  41.2439061  31.2849820
  42.9214582  42.0524462  31.1793242  42.9095805  39.9886799  31.8027366
  43.6568480  39.2667153  32.1320656  42.2419591  40.2235710  32.6317167
  42.0798723  39.3026827  30.7669253  40.9625743  39.8754890  30.2063692
  40.4413041  39.0505436  29.3191898  39.5289207  39.3089360  28.7817060
  41.2076319  37.9763091  29.2593405  41.0683388  37.1839477  28.6487173
  42.2313585  38.1028438  30.1620785  42.9648912  37.3038251  30.2697819
  44.6219767  41.7255943  32.3562866  44.3220433  41.6379244  33.5412761
  45.8025301  42.2070427  31.9774106  46.0648092  42.1861541  31.0022836
  46.7631518  42.7249252  32.9388911  46.3756887  42.7170756  33.9576697
  48.0465385  41.8821999  32.8953724  48.4158180  41.8434984  31.8705631
  49.0906400  42.4917827  33.7791794  48.7222385  42.5304008  34.8043086
  49.9969675  41.8873991  33.7418787  49.3137166  43.5018511  33.4355223
  47.6952480  40.4302136  33.3276916  46.9542317  40.0161883  32.6438934
  48.5950409  39.8155025  33.3031460  47.2899024  40.4398253  34.3394739
  47.0434254  44.1862811  32.6166573  47.2151035  44.5396959  31.4463724
  47.0650776  45.0435070  33.6494345  46.8403522  44.7374205  34.5853346
  47.4196294  46.4504597  33.4450524  46.7484963  46.8944779  32.7098468
  47.3013470  47.2350394  34.7506718  47.9388967  46.7955489  35.5177949
  47.5848055  48.2761113  34.5960092  45.6689183  47.2669871  35.4290593
  45.9751590  48.0030345  36.4936480  48.8505656  46.6076255  32.9452870
  49.7660978  45.8682641  33.3466828  49.0629077  47.6101824  32.0897448
  48.3077523  48.1250167  31.6598782  50.4254506  47.9679450  31.7411291
  50.9444764  47.1001278  31.3341836  50.4295111  49.0754903  30.6908634
  49.7403260  49.8409064  31.0476005  51.4419209  49.4789614  30.6724936
  50.0300771  48.6486574  29.2907666  50.3721851  47.6287965  29.1148496
  48.9446491  48.6881210  29.1991659  50.6637572  49.5848720  28.2571149
  51.6163773  49.1636441  27.9358971  49.9961953  49.6680193  27.3994744
  50.9008178  50.9193733  28.7958826  51.8591838  51.1575493  29.0077931
  49.9503980  51.8222470  29.0448209  48.6851647  51.5705470  28.7759331
  48.4246175  50.6810606  28.3746488  47.9818333  52.2682838  28.9723714
  50.2998716  52.9953818  29.5478088  51.2727472  53.1913457  29.7354558
  49.5920973  53.6893230  29.7417156  51.1915970  48.4417126  32.9709494
  50.6891341  49.2329387  33.7757433  52.4334701  47.9584510  33.1007123
  52.7510738  47.1977882  32.5170861  53.3457896  48.4916543  34.0896367
  52.8067395  48.7167618  35.0098816  54.4361888  47.4756285  34.4006371
  54.0084962  46.6274050  34.9351416  54.9017759  47.1263598  33.4790406
  55.5519744  48.0190662  35.2713591  56.7594023  48.4261572  34.7085191
  56.9070565  48.3412130  33.6319121  57.7701596  48.9369168  35.5088268
  58.7080922  49.2707048  35.0650154  57.5823229  49.0222413  36.8857023
  58.3772219  49.4207704  37.5161069  56.4045035  48.6078492  37.4487249
  56.2628174  48.6661666  38.5279025  55.3954723  48.1153910  36.6457567
  54.4536462  47.7932645  37.0899392  53.9475216  49.7743267  33.5293804
  54.4995270  49.7758596  32.4190644  53.8517587  50.8667965  34.2831325
  53.3436818  50.8299849  35.1552576  54.3658725  52.1630073  33.8328252
  54.7318917  52.1109856  32.8074360  53.2554869  53.2399708  33.9306586
  52.8466355  53.2225024  34.9409238  53.8017959  54.6476926  33.6221919
  54.2104262  54.6660706  32.6118533  52.9949261  55.3763384  33.7005311
  54.5869595  54.8976869  34.3357185  52.1478202  52.8583050  32.9763727
  52.5389227  52.9496872  31.9630667  51.8870740  51.8182290  33.1722114
  50.9280801  53.7132961  33.1188695  51.1879608  54.7535282  32.9227091
  50.1704000  53.3879821  32.4059944  50.5361134  53.6220717  34.1318552
  55.6235980  52.5792819  34.5828012  56.5808701  53.0772913  33.9681453
  55.6653669  52.3751821  35.8918174  54.8743728  52.0121036  36.4042642
  56.8860136  52.6800870  36.6293056  57.7170219  52.1216207  36.1984461
  57.0921263  53.7481921  36.5602523  56.7403599  52.3000847  38.0861159
  55.6546088  51.9662102  38.5553659  57.8681505  52.3621291  38.8025674
  58.7661508  52.5284905  38.3712686  57.8222993  52.1530153  40.2412508
  56.9165068  52.6125657  40.6367918  57.8184890  50.6674494  40.6105155
  57.7403464  50.5472214  41.6910423  56.9829916  50.1605655  40.1276979
  59.3043351  49.7693282  40.1128323  58.9200952  48.5891788  40.5908545
  59.0284268  52.8374072  40.8615049  59.9970732  53.1718789  40.1768131
  58.9584899  53.0371355  42.1696969  58.1669600  52.7177145  42.7096506
  60.0289794  53.7263303  42.8616534  60.9897811  53.3469016  42.5138126
  59.9651727  54.7949731  42.6566394  59.9236095  53.5051056  44.3486779
  58.8236654  53.3852260  44.9035885  61.0871113  53.4280210  44.9931098
  61.9374475  53.4189048  44.4481835  61.1940484  53.3257254  46.4376769
  60.2119121  53.3008224  46.9097865  61.9681524  52.0698418  46.8513982
  61.4279515  51.1834314  46.5188944  62.9572972  52.0848571  46.3937224
  62.1112039  52.0379251  48.3693383  62.6517469  52.9238553  48.7025677
  61.1224021  52.0224270  48.8277408  62.8816705  50.7879467  48.7811154
  62.3414714  49.9015358  48.4486104  63.8708154  50.8029640  48.3234406
  63.0403143  50.7229210  50.2511511  62.6481517  51.4660684  50.8115436
  63.6757015  49.7305889  50.8679661  64.2181736  48.7173157  50.1987115
  64.1525493  48.6887582  49.1912503  64.6932557  47.9810508  50.7010167
  63.7597617  49.7721911  52.1946552  63.3467249  50.5430866  52.6998490
  64.2362486  49.0326988  52.6908509  61.8959671  54.5795320  46.9277994
  62.9677460  54.9276900  46.4255833  61.2795935  55.2731029  47.8788562
  60.3528712  55.0043490  48.1772795  61.8445800  56.5032031  48.4087353
  62.9278435  56.4942746  48.2880719  61.2767672  57.7216914  47.6611419
  61.9526004  58.5723558  47.7489988  61.1967278  57.4284990  46.6143698
  59.9047807  58.1399213  48.1535055  59.7563385  58.7287383  49.2220398
  58.8937709  57.8797552  47.3373292  57.9537375  58.1332149  47.6060206
  59.0678867  57.4292004  46.4503203  61.6370635  56.5378501  49.9207533
  61.1746989  55.5687714  50.5365498  62.0415998  57.6510685  50.5344260
  62.3672064  58.4491429  50.0079691  62.1015452  57.7119961  51.9903066
  62.5969646  56.8063738  52.3403168  62.9331968  58.9278456  52.4294131
  63.9286920  58.8656636  51.9898428  62.4450088  59.8428852  52.0940399
  63.0481201  58.9417988  53.9349689  62.0529779  59.0044386  54.3752746
  63.5366625  58.0272189  54.2710777  63.8742918  60.1496417  54.3711839
  63.2516076  61.2205756  54.6013279  65.1201972  59.9898422  54.4700972
  60.7187553  57.7485052  52.6297503  60.5733831  57.3317408  53.7868883
  59.7045554  58.2182601  51.8996737  59.8820727  58.5066209  50.9481302
  58.3590595  58.3924578  52.4354834  58.4352675  58.3728743  53.5226393
  57.7978624  59.7497724  52.0092955  58.4698622  60.5415414  52.3403804
  57.7071498  59.7813095  50.9235347  56.4242497  59.9525738  52.6399176
  55.7515235  59.1613880  52.3089113  56.5142348  59.9216226  53.7257568
  55.8646436  61.3060355  52.2149382  56.5366436  62.0978052  52.5460209
  55.7739298  61.3375708  51.1291776  54.4910316  61.5088370  52.8455626
  53.8183049  60.7176511  52.5145577  54.5810189  61.4778884  53.9314004
  53.9516077  62.8134842  52.4359084  53.8677404  62.8422108  51.4298066
  53.0418719  62.9477999  52.8535684  54.5746077  63.5467816  52.7429021
  57.3965960  57.2900605  52.0153725  56.5525915  56.8763538  52.8207258
  57.4997586  56.7851138  50.7881482  58.1706866  57.1273344  50.1152144
  56.5811298  55.7329739  50.3738429  56.4449247  55.0346825  51.1996373
  55.2059448  56.2926681  49.9714777  54.6244385  55.4971127  49.5056009
  54.6687415  56.6738682  50.8399241  55.2692847  57.4186007  48.9764014
  55.3232190  57.1563569  47.6100482  55.3116231  56.1221460  47.2659940
  55.3906133  58.1857188  46.6963885  55.4234167  57.9585471  45.6308287
  55.4167336  59.5027222  47.1249019  55.4648561  60.3163329  46.4011466
  55.3812620  59.7840764  48.4850973  55.4134425  60.8158256  48.8351804
  55.3041971  58.7398340  49.4025055  55.2704544  58.9541979  50.4706860
  57.1740547  54.9514113  49.2138684  58.1104462  55.3983118  48.5449365
  56.6319523  53.7570078  49.0127857  56.0365294  53.3738048  49.7330123
  56.8607000  52.9676156  47.8175169  57.7807002  53.3012730  47.3375464
  56.9907145  51.4780867  48.1414800  56.0564976  51.1485429  48.5961655
  57.1615201  50.9220488  47.2196626  58.1257884  51.1851233  49.1008931
  59.2241318  51.7358576  48.9682486  57.8744267  50.2992997  50.0692040
  58.5960458  50.0668460  50.7365352  56.9639616  49.8662454  50.1293541
  55.6823608  53.1898236  46.8823066  54.5736108  53.4997486  47.3266532
  55.9223641  53.0394213  45.5836202  56.8462819  52.8564342  45.2189410
  54.8272885  53.2107108  44.6370752  53.9021088  52.8415918  45.0796730
  54.6409142  54.6855781  44.2730421  53.6916519  54.7606646  43.7426061
  54.5811366  55.2475076  45.2051161  55.7490413  55.2565935  43.4090092
  56.8668428  55.8579139  43.9782275  56.9482876  55.9126326  45.0638021
  57.8752282  56.3866439  43.1769446  58.7552168  56.8545506  43.6182895
  57.7558306  56.2943901  41.7898687  58.7621892  56.8278176  40.9902667
  59.4732861  57.2257036  41.4978370  56.6503094  55.7005893  41.2168229
  56.5609362  55.6310712  40.1327196  55.6632801  55.1976405  42.0176162
  54.7819450  54.7364291  41.5719340  55.0335030  52.3931442  43.3732028
  56.1513415  52.0135873  43.0082843  53.9064604  52.1862940  42.6928860
  53.0318196  52.4525208  43.1221017  53.8673634  51.5471566  41.3580044
  54.8209024  51.6157231  40.8344003  53.4414966  50.0717076  41.4114149
  54.1243382  49.5312487  42.0669535  52.0291799  49.9408380  41.9368869
  51.3456530  50.4806934  41.2815641  51.7480261  48.8881357  41.9663988
  51.9746606  50.3592449  42.9419068  53.6029010  49.4018261  40.0710562
  54.6479048  49.4482129  39.7645968  53.2925422  48.3595966  40.1454518
  52.9851581  49.9124953  39.3323333  52.8902786  52.3682177  40.5130914
  51.9066318  52.8236748  41.0365116  53.2322324  52.5830629  39.2589518
  54.1128588  52.2511145  38.8923365  52.3287934  53.3239971  38.3507776
  51.4498084  53.7092074  38.8675924  53.0405744  54.4930807  37.6552595
  53.8060135  54.0998447  36.9862545  52.0444465  55.3072832  36.8583081
  51.2788991  55.7012636  37.5267522  52.5591019  56.1340817  36.3687833
  51.5768631  54.6737592  36.1045743  53.7918600  55.3612745  38.6429949
  54.5423910  54.7611937  39.1574929  54.2816675  56.1770504  38.1113014
  53.0929856  55.7713006  39.3720725  51.8685694  52.2969850  37.3332777
  52.6838539  51.5799636  36.8220317  50.5761670  52.2569745  37.0754093
  49.9196976  52.9122559  37.4751010  50.0661352  51.2386575  36.1466709
  50.8627945  50.9173152  35.4757220  49.5554609  50.0183126  36.9203581
  49.1046602  49.3301584  36.2052903  50.4108152  49.5384517  37.3959656
  48.5546584  50.3825986  37.9544988  49.0019516  51.1724446  38.5579663
  47.6875435  50.7774624  37.4250687  48.0232603  49.0253082  39.0442532
  47.4618173  50.0134562  40.4132573  46.6614043  50.6744436  40.0807911
  47.0894671  49.3618709  41.2037588  48.2901490  50.6102644  40.7950790
  48.9029904  51.8339768  35.3661961  48.3862622  52.8408149  35.7362706
  48.5532039  51.1380064  34.3164320  49.0672209  50.3086357  34.0556060
  47.4296430  51.5541954  33.4709307  47.6342172  52.5071961  32.9830391
  47.2437865  50.4951019  32.4051168  48.1809203  50.4039412  31.8559637
  47.0227508  49.5518525  32.9046404  46.1312815  50.8278446  31.4468215
  45.1842827  50.9164800  31.9792103  46.3450506  51.7626555  30.9286193
  46.0086396  49.7357351  30.4317014  46.6869326  48.7327318  30.4848610
  45.1201481  49.9499882  29.4963879  44.9765871  49.2600111  28.7729079
  44.5816446  50.8044385  29.5018619  46.1673355  51.7170418  34.3190173
  45.8537506  50.8644226  35.0998828  45.4561680  52.7997288  34.0969412
  45.7724245  53.4887499  33.4296099  44.1958010  53.0494534  34.8128558
  44.2798135  52.7153711  35.8469884  43.8809688  54.5500632  34.8067820
  44.7511929  54.9795058  35.3031571  43.8854870  54.8358280  33.7549179
  42.6036307  55.0733517  35.4724499  41.7471605  54.5197713  35.0876014
  42.6883159  54.8907829  37.0032670  43.5443360  55.4444918  37.3889288
  41.7753121  55.2660842  37.4655155  42.8051704  53.8327017  37.2375949
  42.4406739  56.5422934  35.1050245  42.3647159  56.6402196  34.0220932
  41.5361210  56.9352740  35.5691920  43.3043877  57.1042342  35.4604397
  43.0415577  52.3023703  34.1656232  42.8673198  52.3774204  32.9605499
  42.2269807  51.6139867  34.9667752  42.4044137  51.5659258  35.9599051
  41.0888013  50.8794028  34.4324794  41.1075330  50.9118112  33.3431227
  41.1356076  49.4244289  34.8766313  41.1103223  49.4146201  35.9662935
  40.2419958  48.9355886  34.4885680  42.4117050  48.6564353  34.3757418
  43.2574480  49.1607871  34.8431270  42.3770017  47.6198493  34.7109839
  42.6068168  48.6730269  32.8822636  41.7072680  49.0214218  32.1209320
  43.7936809  48.2306286  32.4376868  43.9849434  48.2171899  31.4460520
  44.4900011  47.9132269  33.0968496  39.8026691  51.5617150  34.9144215
  39.8433423  52.5583454  35.6495722  38.6693542  51.0008393  34.5073530
  38.7050592  50.1296466  33.9976003  37.3657086  51.5953596  34.7679382
  37.5373285  52.6269826  35.0751838  36.8124364  51.5837380  33.8288673
  36.5441121  50.8922681  35.8343324  37.0343440  50.5705818  36.9144920
  35.2691131  50.6493576  35.5124505  34.9425920  50.7933266  34.5675927
  34.3124848  50.1842656  36.5118102  34.3609697  50.8012643  37.4090621
  32.9125594  50.2861117  35.9271674  32.8591997  49.6064051  35.0767259
  32.2094117  49.9627780  36.6947211  32.5539747  51.7018584  35.4713337
  32.2222461  52.2733984  36.3381664  33.4441575  52.1676923  35.0486334
  31.4341600  51.6790595  34.4121094  30.6058914  51.0967772  34.8158637
  31.1095472  52.7066965  34.2487446  31.8343614  51.0959883  33.1123214
  32.7647607  50.7088441  33.0446767  31.0548195  51.0712583  32.0309256
  29.8174823  51.5543401  32.1058292  29.4791303  51.9348082  32.9781032
  29.2221733  51.5383905  31.2900765  31.4890576  50.5473517  30.8745428
  32.4214996  50.1636325  30.8161339  30.8815141  50.5390852  30.0677459
  34.5727364  48.7379769  36.9320520  34.7889408  47.8673789  36.0788728
  34.4674023  48.4617694  38.2521217  34.3212988  49.1581737  38.9689021
  34.7355135  47.0857075  38.6670328  35.3591100  46.6092377  37.9105917
  35.4639806  46.9999763  40.0371754  35.9785235  46.0516805  40.1923522
  36.1976519  47.8022843  39.9588923  34.5498489  47.2788740  41.2704719
  33.5365430  46.6165738  41.4557251  35.0007318  48.1525726  42.1631971
  34.4461788  48.3676469  42.9794776  35.8961246  48.5979580  42.0217605
  33.4380390  46.2640083  38.6332627  32.3240274  46.8051854  38.5969516
  33.5959155  44.9337951  38.6027188  34.5092832  44.5209041  38.7267336
  32.4704914  44.0524268  38.3565734  31.9220152  44.3939910  37.4787311
  32.9489939  42.6166580  38.1075164  33.5424359  42.3506864  38.9822649
  32.0968262  41.9416498  38.0283066  33.8277793  42.4948607  36.8280452
  34.7794149  43.0080651  36.9662907  34.0818179  41.0054525  36.5920948
  33.1306029  40.4916213  36.4532919  34.6965092  40.8778775  35.7010393
  34.5996719  40.5837323  37.4535353  33.1694747  43.1568864  35.6233199
  33.0125099  44.2154460  35.8304750  33.8147695  43.0496029  34.7514333
  32.2096837  42.6797366  35.4252586  31.4884769  44.0425257  39.5095879
  30.3004430  43.8036186  39.2825640  31.9504275  44.2760709  40.7441114
  32.9290268  44.4221812  40.9468297  31.0006130  44.2726463  41.8637161
  30.3675642  43.3868490  41.8116419  31.7387953  44.2696819  43.2099995
  32.3699697  45.1555162  43.2808275  31.0128159  44.2755120  44.0230310
  32.3583973  43.3759110  43.2832538  30.0980011  45.4783071  41.7578314
  28.8745511  45.3548367  41.8835539  30.6796644  46.6467143  41.4599751
  31.6840960  46.7323056  41.3975998  29.8688349  47.8421588  41.2493974
  29.2380319  48.0031728  42.1236178  30.7261525  49.0802443  41.0338613
  31.4810023  48.8153555  40.2934999  30.0955361  49.8772513  40.6399035
  31.4087843  49.5564348  42.3043441  30.9648007  49.1616629  43.3957284
  32.3763753  50.3444303  42.2136153  28.9540736  47.6721117  40.0511442
  27.7965093  48.1024949  40.0893036  29.4598670  47.0788574  38.9606684
  30.4327427  46.8183839  38.8847357  28.5896702  46.8575965  37.8039982
  28.1236740  47.8036273  37.5283672  29.3589500  46.3139045  36.5845555
  29.9998582  45.5342386  36.9962071  28.6711267  45.8743352  35.8622135
  30.2282755  47.3766830  35.8846804  30.7401944  47.9820417  36.6327316
  31.2823789  46.6636089  34.9834754  30.7711750  46.0583811  34.2348308
  31.9004647  47.4107626  34.4856482  31.9133417  46.0225485  35.5991278
  29.3922463  48.3858423  35.0720688  28.7010434  48.9042657  35.7365801
  30.0551736  49.1112930  34.6005289  28.8287034  47.8563435  34.3038570
  27.4508675  45.9104575  38.1431358  26.3114766  46.1137475  37.6878913
  27.7305226  44.8519463  38.8957706  28.6559838  44.6306829  39.2343904
  26.6278354  43.9317146  39.2246771  26.1507198  43.5948339  38.3043666
  27.1316752  42.7152803  39.9839848  27.8991503  42.2266372  39.3837273
  27.5665161  43.0511636  40.9253646  26.0194977  41.7415264  40.2648151
  25.2132069  42.2878196  40.7542634  25.6668017  41.3530490  39.3094132
  26.4606566  40.5814951  41.1538141  25.6498133  39.8552483  41.2103632
  27.3376506  40.1121707  40.7080390  26.7986465  41.0133659  42.5103651
  27.7910755  41.0795171  42.6858871  25.9567996  41.3037766  43.5017910
  24.6202027  41.2485340  43.3551559  24.2234795  40.9785276  42.4664449
  24.0198662  41.4773330  44.1344805  26.4834119  41.6736041  44.6678237
  27.4867513  41.7244311  44.7718754  25.8770214  41.9015425  45.4427000
  25.5626560  44.6198417  40.0590990  24.3560536  44.4803159  39.8068052
  25.9940181  45.3570952  41.0710328  26.9806961  45.4173421  41.2782433
  25.0568597  46.0422263  41.9581296  24.2985673  45.3521572  42.3281248
  25.8382480  46.5966352  43.1523035  26.7299041  47.1010567  42.7800031
  25.2077102  47.3144535  43.6769547  26.2531551  45.4676976  44.1250223
  25.3703422  44.8602875  44.3245094  27.0068419  44.8592101  43.6252212
  26.8160037  45.9937146  45.4414104  26.0778921  46.6268697  45.9337568
  27.0722764  45.1597675  46.0948290  28.0218836  46.7840386  45.1954270
  27.8920490  47.7006459  44.7916035  29.2606419  46.3796517  45.4680677
  29.4673940  45.1823212  46.0126945  28.6816492  44.5819590  46.2182924
  30.4090160  44.8799720  46.2177128  30.2995633  47.1731751  45.1932807
  30.1422501  48.0804184  44.7782358  31.2376128  46.8622549  45.4018246
  24.2889344  47.1399468  41.2448749  23.1914099  47.5113892  41.6825430
  24.8336244  47.6884566  40.1683188  25.7763241  47.4938584  39.8624625
  24.0692499  48.6887550  39.4472337  23.5186061  49.3191532  40.1454376
  25.0180492  49.5707305  38.6369448  24.5676610  50.5561952  38.5181634
  25.9596032  49.6649599  39.1779595  25.2596420  49.0108087  37.3709415
  25.8567283  49.5787889  36.8785125  22.9978296  48.0624398  38.5617796
  22.1090756  48.7790872  38.0854103  23.0176233  46.7507600  38.3819619
  23.7834070  46.1908890  38.7286882  21.9718173  46.0912638  37.6242808
  21.7818483  46.6374786  36.7003433  22.3911243  44.6728316  37.2726552
  22.7293678  44.1822536  38.1853565  21.5199452  44.1482620  36.8802603
  23.5153291  44.6452706  36.2315803  24.3609808  45.2456173  36.5670768
  23.8366135  43.6134496  36.0893695  23.0312964  45.1904367  34.9002369
  22.0674563  44.6839451  34.3408868  23.6779057  46.2306570  34.4005858
  23.3882476  46.6244999  33.5167943  24.4582809  46.6262492  34.9051874
  20.6553118  46.0922692  38.4071673  20.6571042  46.0818254  39.6425817
  19.5155138  46.1204607  37.7090270  19.3268747  46.0298276  36.2505929
  19.4005662  44.9880767  35.9384635  20.0967786  46.6146955  35.7473270
  17.9529398  46.5966706  36.0462993  17.4901712  46.1308235  35.1762816
  18.0205976  47.6730663  35.8885141  17.2074357  46.2918129  37.2801682
  16.7768225  45.2910740  37.2456300  16.4153718  47.0220975  37.4457543
  18.2421195  46.3759039  38.4111001  18.3094835  47.3823338  38.8242094
  17.9117526  45.3927269  39.5240846  17.3095901  45.7924882  40.5358046
  18.2295673  44.1132986  39.3362491  18.6171363  43.8580466  38.4391783
  18.0140464  43.0598626  40.3212177  17.4113132  43.4408343  41.1456402
  17.2800556  41.8788598  39.6841566  17.8199880  41.5917594  38.7818564
  17.2918936  41.0508910  40.3929778  15.8253516  42.2232573  39.3229509
  15.4138876  42.8549709  40.1101841  15.8234389  42.7706336  38.3803600
  14.9717534  40.9650440  39.1821977  15.2429927  40.2671678  39.9743447
  13.9221229  41.2403941  39.2849486  15.1587530  40.3031820  37.8895524
  14.7930019  40.7792439  37.0773391  15.7644743  39.1302623  37.7190878
  16.2660693  38.4782345  38.7646304  16.1861258  38.8758409  39.6896267
  16.7245132  37.5886154  38.6285906  15.8740093  38.6122885  36.4984731
  15.4968339  39.1115417  35.7056396  16.3338299  37.7222097  36.3703191
  19.3282467  42.5740069  40.9303334  19.3834487  41.4817266  41.5031392
  20.3971430  43.3375506  40.7683281  20.3692047  44.2394837  40.3146372
  21.6745868  42.8564223  41.2669693  22.4003726  43.6538116  41.1072679
  21.5550802  42.6834513  42.3365012  22.1848993  41.5886582  40.6171137
  22.9898558  40.8736339  41.2246787  21.7356216  41.2704213  39.4013440
  21.0241189  41.8435139  38.9707304  22.2275393  40.1060135  38.6653484
  23.1057436  39.7078773  39.1736239  21.1914630  39.0038351  38.5526641
  21.5926841  38.2008298  37.9343564  20.8505292  38.4665561  39.9089474
  20.4487851  39.2689403  40.5277210  20.1059279  37.6766037  39.8107471
  21.7484695  38.0626608  40.3765715  20.0137849  39.5395714  37.9324755
  19.3504677  38.8498204  37.8559621  22.6352177  40.5133066  37.2584310
  22.1002128  41.4678510  36.6942859  23.5856920  39.7742673  36.6950896
  24.0888660  39.1143907  37.2708310  23.9215462  39.8525539  35.2798055
  23.6636445  40.8461025  34.9131353  25.4094252  39.6031425  35.0128265
  25.6761801  38.6831528  35.5329804  25.6208343  39.4929476  33.9492179
  26.3410358  40.6794248  35.5305853  26.1078601  42.0223079  35.2600337
  25.2280856  42.3051960  34.6820450  26.9916026  43.0107498  35.7228315
  26.7798906  44.0599819  35.5169415  28.1340308  42.6576299  36.4416036
  28.8276893  43.4177066  36.8010770  28.3833178  41.3048393  36.6991835
  29.2705482  41.0102989  37.2596907  27.4983149  40.3364302  36.2395632
  27.6981278  39.2817341  36.4287480  23.1546536  38.7937774  34.5089864
  22.7972518  37.7344528  35.0389197  22.9211539  39.0750350  33.2338522
  23.1019901  39.9889418  32.8437600  22.3694189  38.0481327  32.3603236
  21.4616269  37.6356979  32.8006762  22.0301815  38.6101710  30.9743756
  21.6161389  37.8129269  30.3570663  21.0163787  39.7319705  31.0978702
  21.4299170  40.5298438  31.7147040  20.7836493  40.1227468  30.1072997
  20.1061230  39.3504728  31.5604656  23.2273900  39.1122632  30.3359953
  23.0056116  39.4617664  29.4698185  23.3721835  36.9199194  32.2039654
  24.5630252  37.0779272  32.4540205  22.8798209  35.7650619  31.7839876
  21.8921927  35.5912210  31.6637003  23.8018750  34.6581554  31.5962951
  24.3930714  34.4809620  32.4947318  22.9682776  33.4028386  31.3020181
  22.1469983  33.3748210  32.0181288  22.5805283  33.6546561  30.3149322
  23.6313762  32.0600178  31.2501766  24.4289041  32.0468166  30.5072932
  24.2218425  31.8170877  32.6326597  23.4248008  31.8296869  33.3760739
  24.7193761  30.8474275  32.6505522  24.9445992  32.6000167  32.8623232
  22.4788287  31.1120843  31.0318230  21.9731063  31.3628597  30.0993768
  22.8536033  30.0899660  30.9777892  21.7756189  31.1973596  31.8602692
  24.8296377  34.9946683  30.5095896  26.0104880  34.6232542  30.6196712
  24.4286729  35.7829036  29.5021923  23.4655089  36.0756845  29.4203773
  25.3680103  36.1899056  28.4581158  25.7841156  35.3063282  27.9741256
  24.6679532  37.0395781  27.4026535  23.9419369  36.4304407  26.8641823
  24.1564447  37.8733860  27.8835104  25.6338734  37.5397605  26.4913353
  25.1976580  38.0754880  25.8247680  26.5579742  36.9572091  29.0342064
  27.7049961  36.6632061  28.6997814  26.2930261  37.9645759  29.8753304
  25.3426417  38.2741813  30.0202903  27.3662487  38.7081212  30.5174516
  28.1709782  38.9858944  29.8367522  26.8169714  39.9853375  31.1766025
  25.8928626  39.7213989  31.6908589  27.8036754  40.6188955  32.1835789
  28.7279147  40.8835416  31.6699216  27.3583111  41.5157324  32.6141988
  28.0216280  39.9048397  32.9777587  26.4345120  40.9313270  30.1575786
  26.0923068  41.7269113  30.5717544  28.1340363  37.8537475  31.5142328
  29.3667806  37.8966331  31.5332987  27.4274017  37.0573272  32.3274482
  26.4175659  37.0470446  32.3124380  28.1143710  36.1878382  33.2779486
  28.6995750  36.7575521  33.9997945  27.0838643  35.3527225  34.0354542
  26.4936905  34.7715450  33.3269149  27.8190280  34.3865722  35.0149531
  28.4090844  34.9670813  35.7241373  27.0851448  33.7897041  35.5564907
  28.4772884  33.7268677  34.4496357  26.1664252  36.1927302  34.7633770
  25.5311081  35.6441523  35.2292469  29.1038625  35.2442652  32.5800872
  30.2602976  35.0903345  33.0119403  28.6411716  34.5627664  31.5280547
  27.7100503  34.7040992  31.1631744  29.4885526  33.5516807  30.8945098
  29.8687644  32.8644358  31.6503092  28.6892424  32.7470183  29.8563423
  28.1803127  33.4920476  29.2447696  29.3700845  32.1686392  29.2318172
  27.6536817  31.8098642  30.4859940  27.0270535  32.3868064  31.1661231
  26.7835817  31.1654365  29.4197609  27.4094971  30.5879037  28.7394781
  26.0570270  30.5050872  29.8932141  26.2592200  31.9404206  28.8607038
  28.3383299  30.7225055  31.3435351  28.9113463  31.1953856  32.1411166
  27.5801879  30.0712554  31.7785009  29.0072199  30.1325620  30.7169158
  30.6775325  34.2106836  30.2247397  31.8046429  33.6975693  30.2942005
  30.4528011  35.3706715  29.5908645  29.5301369  35.7717975  29.5020490
  31.5583613  36.0200515  28.8973760  32.1428876  35.2748397  28.3578507
  31.0323646  37.0559093  27.8896106  30.3099432  37.7117950  28.3754301
  31.8601591  37.6507096  27.5035160  30.3525490  36.3156715  26.7327944
  31.0886090  35.6644817  26.2613410  29.5418086  35.7116383  27.1401591
  29.8035365  37.2660353  25.7154867  30.5878748  37.9691875  25.4353272
  29.4949155  36.6981605  24.8377790  28.6623290  38.0149479  26.2098472
  27.8964301  37.4845190  26.5999027  28.5754442  39.3408705  26.2005567
  29.5774491  40.0641972  25.7151335  30.4009377  39.6032779  25.3552449
  29.5115745  41.0720212  25.7079969  27.4749839  39.9401295  26.6560014
  26.7091037  39.3833354  27.0074382  27.4122560  40.9481432  26.6474968
  32.5584127  36.6312697  29.8698448  33.7765603  36.5694029  29.6226892
  32.0778274  37.1991321  30.9944497  31.0970693  37.4135541  31.1050664
  32.9946122  37.5784307  32.0660747  33.7460705  38.2706964  31.6863673
  32.2216986  38.2673531  33.2030741  31.3566629  37.6204109  33.3489444
  32.8137862  38.2932183  34.1178764  31.7455919  39.6906253  32.8599477
  31.1222909  39.6522591  31.9665694  30.9222982  40.2849866  34.0422134
  31.5451204  40.3241019  34.9358920  30.5920361  41.2916050  33.7858014
  30.0531042  39.6555418  34.2330049  32.9425287  40.6171607  32.4622788
  33.4483529  40.2037921  31.5897149  32.5686905  41.6135893  32.2267450
  33.6453711  40.6803311  33.2930140  33.7647564  36.3589677  32.6010886
  34.9816392  36.4322139  32.8243422  33.0687413  35.2397355  32.8431640
  32.0747408  35.1740300  32.6765957  33.7608563  34.0680000  33.3660728
  34.1435032  34.3116164  34.3571993  33.0409656  33.2533887  33.4452248
  34.9194929  33.6216536  32.4832579  36.0049103  33.2714829  32.9804897
  34.7179193  33.6393163  31.1652578  33.8096000  33.8597407  30.7825459
  35.7965693  33.3055420  30.2396564  36.1142082  32.2730628  30.3852296
  35.3008923  33.4668242  28.7986702  34.8900458  34.4716672  28.7007170
  36.1620344  33.3610360  28.1388648  34.2414748  32.4473041  28.4155496
  34.6285469  31.4583867  28.6611476  33.3543836  32.6490906  29.0159274
  33.8740728  32.4966788  26.9303452  33.6623798  31.4751030  26.6146430
  32.9701675  33.0990642  26.8398661  34.9493128  33.0756614  26.0603153
  35.2011413  34.0776042  26.4078689  35.8357535  32.4429003  26.1043110
  34.4544370  33.1470577  24.6412584  33.6332942  33.7336909  24.6002017
  35.1763941  33.5367226  24.0521580  34.2214359  32.2186847  24.3188718
  37.0154050  34.1995867  30.4791255  38.1627394  33.7217309  30.5137033
  36.7859210  35.5125415  30.6256371  35.8520489  35.8940768  30.5765131
  37.9062705  36.4392571  30.8079479  38.6790371  36.2471149  30.0636279
  37.4146238  37.8810630  30.6423631  36.6340947  38.0866090  31.3749096
  38.2457638  38.5695672  30.7949022  36.8644009  38.0622716  29.2643426
  37.5209858  37.5549298  28.5575177  35.8583728  37.6503039  29.1850194
  36.8154053  39.5034921  28.9154748  37.6819290  40.2779081  29.3464384
  35.8040587  39.8957805  28.1685519  35.7235380  40.8667691  27.9024712
  35.1137021  39.2238058  27.8653042  38.5747330  36.2723731  32.1623848
  39.8102068  36.2986844  32.2590190  37.7814259  36.0929609  33.2170910
  36.7753198  36.1261447  33.1349411  38.3599363  35.9211447  34.5405074
  39.0935050  36.7016932  34.7422998  37.2607918  35.9613116  35.6146439
  36.5034853  35.2104065  35.3894136  37.8812688  35.6667128  36.9926884
  38.6383972  36.4175221  37.2188357  37.1032285  35.6947982  37.7555549
  38.3420513  34.6789717  36.9805999  36.5811061  37.3398938  35.5965211
  37.2086560  38.0082039  36.1861340  36.5716253  37.6727320  34.5586250
  35.0956535  37.3594176  36.1739253  35.1043916  37.0271205  37.2120015
  34.6978908  38.3728539  36.1207182  34.4673611  36.6916463  35.5844934
  39.1486498  34.6202972  34.5882659  40.2348134  34.5692093  35.1542505
  38.6158685  33.5527382  33.9773240  37.6704223  33.5622733  33.6221622
  39.3799495  32.3040040  33.8872295  39.6333829  31.9380182  34.8821793
  38.5259565  31.2468182  33.1794659  37.6724026  31.0930026  33.8396823
  38.1792680  31.6403806  32.2239473  39.2436431  29.9090752  32.9514076
  40.1151866  30.1053642  32.3269211  39.6868850  29.2364232  34.2441961
  38.8157736  29.0393856  34.8690480  40.1871163  28.2961899  34.0121819
  40.3753935  29.8916708  34.7777756  38.3251535  29.0031379  32.1721313
  38.0849196  29.4650840  31.2145339  38.8179935  28.0462973  31.9998927
  37.4073498  28.8419263  32.7375923  40.7180716  32.5139027  33.1799483
  41.7602525  32.0108364  33.6216147  40.7249634  33.2801480  32.0874421
  39.8675894  33.6395491  31.6926764  41.9773142  33.5851074  31.4108652
  42.4614298  32.6638897  31.0866906  41.7073825  34.4560323  30.1792765
  41.0022554  35.2346891  30.4701179  42.6508676  34.9136622  29.8817692
  41.1398676  33.6706184  29.0175963  41.9049397  32.9622610  28.6997987
  40.2631849  33.1252587  29.3670379  40.7498047  34.5590898  27.8407945
  40.8651496  35.8012861  27.9464259  40.3172398  34.0031416  26.8198660
  42.9557207  34.2958933  32.3276585  44.1731711  34.0050624  32.3155730
  42.4488420  35.2699373  33.0915611  41.4730252  35.5177421  33.0111006
  43.2738379  36.0091387  34.0396392  44.0802995  36.5235301  33.5170300
  42.4189568  37.0481474  34.7604139  41.6157853  36.5303585  35.2847318
  43.0464761  37.5700738  35.4828491  41.8686940  37.9765519  33.8618591
  41.3383601  38.6141858  34.3453556  43.8933533  35.0757355  35.0588634
  45.0801196  35.1711563  35.3730142  43.0737121  34.2020420  35.6299273
  42.0938934  34.1781542  35.3860335  43.5495948  33.3013050  36.6833211
  44.0683958  33.8407548  37.4757469  42.3604922  32.5388592  37.2785356
  41.7563170  32.1262700  36.4705487  42.8788954  31.3701974  38.1943640
  43.4828123  31.7820753  39.0029068  42.0287824  30.8324390  38.6141549
  43.4849064  30.6849330  37.6016898  41.4939231  33.5235587  38.0406129
  42.0736132  33.8845178  38.8901826  41.2737107  34.3556420  37.3718503
  40.1922414  32.9150281  38.5375569  40.4116620  32.0831137  39.2067900
  39.6187820  33.6708479  39.0741944  39.6117603  32.5542357  37.6884572
  44.6029444  32.3586860  36.1454542  45.6214314  32.1214859  36.8042996
  44.3656878  31.7980547  34.9495349  43.4889886  31.9315444  34.4661319
  45.3659358  30.9209060  34.3419626  45.6197171  30.1151269  35.0307400
  44.8185371  30.3045100  33.0457227  43.8140667  29.9378854  33.2572051
  44.7653674  31.1002694  32.3027287  45.6860790  29.1450471  32.4983564
  46.6752802  29.5562009  32.2970252  45.7620355  28.3776918  33.2687432
  45.1222300  28.5292664  31.2216104  44.0289805  28.9585190  30.7806787
  45.7641952  27.6020823  30.6681022  46.6531910  31.6822352  34.0680981
  47.7471439  31.1111169  34.1936402  46.5463662  32.9795456  33.7494570
  45.6412068  33.4138521  33.6391679  47.7364593  33.7801988  33.4752055
  48.3279110  33.2639319  32.7190623  47.3330013  35.1605211  32.9262455
  46.7477631  35.6932946  33.6757445  48.2291686  35.7344250  32.6904092
  46.7359699  35.0326641  32.0233030  48.6151324  33.9251878  34.7148440
  49.8233512  33.6808176  34.6510268  48.0368169  34.3430928  35.8491736
  47.0722976  34.6410166  35.8814727  48.8566154  34.5131271  37.0507529
  49.8154550  35.0011749  36.8760097  48.0890883  35.2672132  38.1674133
  47.7852897  36.2377202  37.7750830  46.8399626  34.4896711  38.6420196
  47.1430296  33.5191733  39.0349384  46.3343375  35.0559369  39.4241877
  46.1605816  34.3449211  37.8020267  49.0705287  35.6462652  39.3093561
  49.4235604  34.7044634  39.7294500  49.9022089  36.1654915  38.8331087
  48.4835420  36.5406840  40.4537998  47.6520556  36.0218890  40.9308554
  49.2588792  36.7404391  41.1934277  48.1307018  37.4829168  40.0345133
  49.4087730  33.1734857  37.5189759  50.5832966  33.0764443  37.9058690
  48.6139650  32.1002366  37.4152761  47.6463208  32.1805678  37.1372276
  49.1335699  30.7724360  37.7427471  49.5154826  30.7708635  38.7636484
  48.0396046  29.7175197  37.6304541  47.5465010  29.7607218  36.6593301
  48.4860972  28.7326044  37.7671516  46.9592513  29.8476173  38.6674909
  45.8251709  29.0690123  38.6490267  45.0451076  29.3996314  39.6692116
  44.1009942  28.8804097  39.8340076  45.6228873  30.3794029  40.3388007
  45.2579089  30.8421682  41.1590072  46.8289315  30.6782277  39.7294255
  47.4643409  31.4653891  40.1352986  50.2910806  30.3822599  36.8295081
  51.2655632  29.7468893  37.2737264  50.2092873  30.7442725  35.5479069
  49.3947019  31.2181001  35.1845375  51.2893258  30.4021055  34.6147136
  51.4890540  29.3311635  34.6506428  50.8855230  30.7762181  33.1882658
  51.4657553  30.1690149  32.4934752  49.8248304  30.5600682  33.0605532
  51.1233232  32.1543527  32.9260257  50.8608045  32.3586629  32.0255030
  52.6147957  31.0719955  34.9589385  53.6741881  30.5697636  34.5492888
  52.6042430  32.1884420  35.6859632  51.7363702  32.6732415  35.8644725
  53.8483157  32.8153446  36.1188029  54.6872834  32.4164236  35.5486323
  53.8163833  34.3424096  35.9426503  54.8026997  34.7520039  36.1606219
  53.4315035  34.6850159  34.5199819  52.4450296  34.2761215  34.3014057
  53.4101085  35.7681397  34.3996258  54.1617219  34.2579394  33.8326040
  52.8233800  34.9992546  36.9116570  53.1151087  34.7765137  37.9380015
  52.8265569  36.0786025  36.7596779  51.8223773  34.6097077  36.7263258
  54.2244972  32.4178482  37.5457640  55.1336924  33.0090433  38.1291194
  53.5801834  31.3976273  38.1059193  52.7770193  30.9686031  37.6689240
  54.0302814  30.8744697  39.3794608  53.8695603  29.7969846  39.3434921
  55.0992008  31.0801659  39.4360277  53.3560632  31.4316091  40.6128835
  53.8102412  31.1471652  41.7281306  52.2629387  32.1852803  40.4671968
  51.8660392  32.3636748  39.5557444  51.6406882  32.8047621  41.6211853
  52.1076098  32.4204345  42.5280347  51.7951602  34.3598404  41.6004247
  51.5901731  34.7013912  40.5858201  51.1203634  34.8601959  42.2949704
  53.1802256  34.8247363  41.9379549  54.2125119  34.6522942  41.0433909
  54.0101246  34.1807763  40.0817204  55.5013725  35.0716799  41.3546256
  56.2986661  34.9589542  40.6199716  55.7737245  35.6301908  42.5910519
  56.7856299  35.9472366  42.8433003  54.7537863  35.7846334  43.5073769
  54.9538712  36.2229661  44.4850940  53.4580938  35.3755357  43.1764069
  52.6496396  35.4886747  43.8986958  50.1587107  32.4657047  41.7116548
  49.4623860  32.3258134  40.6919096  49.6909934  32.3557296  42.9512063
  50.3589894  32.2867230  43.7056059  48.2739285  32.3340992  43.2804967
  47.6966648  31.9180817  42.4547878  48.0605128  31.4584558  44.5159676
  48.6053238  31.9710007  45.3087967  47.0025414  31.4121122  44.7741316
  48.6097559  30.0364885  44.3558730  49.6677716  30.1082700  44.1037798
  48.4444855  29.2049262  45.6315045  47.3866218  29.1323066  45.8839912
  48.8481935  28.2055362  45.4692077  48.9808614  29.6843249  46.4503930
  47.9396146  29.3593338  43.1724499  48.1414859  29.9287660  42.2652044
  48.3322706  28.3486032  43.0613375  46.8636038  29.3141108  43.3405415
  47.8192079  33.7565315  43.5705117  48.5667931  34.5423562  44.1486197
  46.5898658  34.0933850  43.1671859  46.0317354  33.4857957  42.5845839
  46.0646321  35.4150589  43.4907516  46.8563115  36.1607829  43.4183734
  44.9398304  35.7910709  42.4996300  45.2915019  35.6737472  41.4746122
  44.0801031  35.1416985  42.6648104  44.4451664  37.1946020  42.6235688
  43.6203031  37.6087182  43.6496864  43.3625390  38.8982327  43.5016021
  42.7621237  39.4255430  44.2429146  43.9353503  39.3228936  42.3874345
  43.8631874  40.2505693  41.9946112  44.6545341  38.2896164  41.8398025
  45.2443995  38.4539754  40.9380563  45.5903169  35.4780574  44.9397562
  45.9667615  36.3867250  45.6973588  44.7831423  34.4951974  45.3347767
  44.4411697  33.9301730  44.5706422  44.2563810  34.2420556  46.6724003
  43.6809738  33.3164464  46.6564836  45.3726346  34.1088234  47.7219507
  45.9218608  35.0487361  47.7768502  44.9238285  33.8936868  48.6916875
  46.3146315  32.9999645  47.3495978  45.7346323  32.1783085  46.9293798
  47.0110339  33.3736037  46.5989186  47.0811105  32.5114494  48.5431271
  46.3836145  32.1937589  49.3181568  47.7087407  31.6690385  48.2523977
  47.9320341  33.5626852  49.0835641  48.0260282  34.4153991  48.5505129
  48.5867071  33.4597694  50.2372601  48.4854811  32.3470579  50.9765947
  47.9089081  31.5822201  50.6561471  48.9862037  32.2781442  51.8510244
  49.3427487  34.4678800  50.6487685  49.4157194  35.3030836  50.0855543
  49.8423347  34.3961254  51.5236192  43.2048985  35.2525129  47.1282398
  42.6638687  35.0991404  48.2299365  42.8609198  36.2490139  46.3196389
  43.4221034  36.4703007  45.5095745  41.7380646  37.1301100  46.6481810
  41.0523286  36.6057688  47.3137121  42.2087969  38.4034514  47.3391821
  43.0159805  38.1416209  48.0232864  42.5837613  39.0924906  46.5823950
  41.0692373  39.0753805  48.1244288  40.0481042  38.4087973  48.3615894
  41.1778790  40.2602409  48.5029679  40.8905498  37.4339007  45.4198505
  40.5559346  38.5870049  45.1266278  40.4909282  36.3816907  44.7016989
  40.7793996  35.4533396  44.9756474  39.6812549  36.5272144  43.4954721
  40.0038899  37.3464456  42.8529255  39.6905263  35.2166795  42.6965446
  39.5175443  34.3976795  43.3946969  38.6197366  35.1868188  41.5983758
  38.7923440  36.0053072  40.8995309  38.6716753  34.2375082  41.0652601
  37.6332953  35.2963960  42.0489593  41.0789536  34.8979764  42.0940034
  41.8067214  34.9028275  42.9054412  41.0335988  33.9020870  41.6532690
  41.5167854  35.9500738  40.9828362  41.5628150  36.9461997  41.4229661
  42.4981151  35.6800960  40.5927038  40.7896907  35.9454607  40.1707944
  38.2690493  36.9190808  43.9130736  37.6302042  36.1947163  44.6822147
  37.8064227  38.0786330  43.4736610  38.3920742  38.6557793  42.8871342
  36.4865457  38.5886802  43.8537696  35.7560297  37.7816330  43.7979082
  36.4960684  39.1494332  45.3000570  35.4654461  39.3930330  45.5580807
  36.8548120  38.3530758  45.9521444  37.3732507  40.3896364  45.4803124
  38.3642353  40.1873217  45.0739639  36.9242847  41.2248515  44.9427741
  37.4941091  40.7461826  46.9735459  36.4960292  40.8883864  47.3879292
  37.9908154  39.9286747  47.4961002  38.2831116  41.9942239  47.1433667
  39.2933040  41.8644792  46.7550649  37.8006348  42.8252955  46.6289395
  38.3467515  42.2869177  48.6199293  38.7941794  41.5171390  49.0967403
  38.8779274  43.1322151  48.7729796  37.4108073  42.4075993  48.9798509
  36.0879427  39.6482889  42.8541121  36.9486413  40.2164200  42.1483600
  34.8088894  39.9855336  42.7722729  33.6487818  39.4516934  43.5185263
  33.8132801  39.5667692  44.5898797  33.5118731  38.3961087  43.2838010
  32.4891798  40.3235378  43.0011168  32.3767500  41.2168883  43.6154323
  31.5554572  39.7611736  43.0042752  32.9103345  40.6778736  41.5686668
  32.4494937  41.5835139  41.1742807  32.6667284  39.8353712  40.9214069
  34.4334323  40.8574718  41.6438170  34.8295350  40.3884048  40.7431633
  34.9379915  42.2806229  41.7338724  35.2125919  42.8673057  40.6717543
  35.1808457  42.8258581  42.9289994  34.9319197  42.3959465  43.8083805
  35.7596089  44.1628602  42.9530690  35.2560322  44.8086567  42.2337244
  35.5873012  44.7615314  44.3531622  35.8805269  45.8109039  44.3225803
  34.5379492  44.6861992  44.6382682  36.3986330  44.0642119  45.3193020
  36.2730183  44.4574321  46.1860192  37.2362524  44.1756110  42.5205432
  37.7803918  45.2609759  42.2649472  37.8871000  43.0158538  42.3992350
  37.4731107  42.1621546  42.7455149  39.2578062  42.9600803  41.8644951
  39.7363056  43.9312828  41.9906035  40.0971811  41.9004059  42.5956510
  39.4515861  41.0399817  42.7716524  40.9476099  41.5970303  41.9850495
  40.6137030  42.4006786  43.9322891  40.7396374  43.6072177  44.1152342
  40.9586003  41.4762436  44.8666105  41.3057416  41.7770564  45.7661128
  40.8662591  40.4924810  44.6573615  39.3262543  42.7288459  40.3540281
  40.4076485  42.3974135  39.8326940  38.2133277  42.9066747  39.6389580
  37.3315255  42.9897020  40.1243759  38.2024820  42.9069114  38.1820039
  39.2240905  42.8956375  37.8021509  37.4707532  41.6635457  37.6582906
  36.4992374  41.4424487  38.1003002  37.3541006  41.8212824  36.5860913
  38.3038226  40.4349263  37.8212257  39.2022026  40.0600843  36.8554971
  39.2551534  40.6310464  35.9285136  40.0473660  38.9561969  37.0491190
  40.7443840  38.6542401  36.2673974  39.9935402  38.2549558  38.2305727
  40.6541272  37.4023916  38.3882396  39.0713250  38.6437041  39.2524395
  39.0008852  38.0864805  40.1865917  38.2648590  39.7404326  39.0421963
  37.5877691  40.0775098  39.8270709  37.5721178  44.1977109  37.7190917
  36.4984234  44.5577400  38.1846680  38.2484428  44.9065977  36.8200673
  39.1598320  44.6147277  36.4971416  37.7041315  46.1649299  36.3136836
  36.6767587  46.2727432  36.6615061  38.5324467  47.3649724  36.8369626
  39.5616497  47.2759170  36.4892408  38.1024402  48.2943398  36.4635044
  38.5168726  47.3701966  37.9268384  37.6778439  46.1733313  34.8010170
  38.6101506  45.6879871  34.1510861  36.5963916  46.7097338  34.2343088
  35.8488653  47.0894504  34.7974420  36.4735885  46.7814816  32.7828059
  36.7421400  45.8242639  32.3359126  35.0286130  47.1123148  32.3992537
  34.7488713  48.0335038  32.9103844  34.9961219  47.2712115  31.3213872
  34.0474045  45.9984743  32.7809200  34.0832138  45.9050500  33.8663188
  33.0556856  46.3345791  32.4782168  34.3795085  44.3989703  32.0401393
  34.4288894  44.7600339  30.2560419  35.2186016  45.4833563  30.0529208
  34.6276949  43.8412856  29.7042461  33.4699700  45.1718984  29.9414906
  37.3771798  47.8799381  32.2577419  37.6381913  48.8587695  32.9555263
  37.8365130  47.7152854  31.0134736  37.6021740  46.8836036  30.4905110
  38.6800684  48.7163573  30.3764412  39.5441981  48.8925057  31.0170275
  39.0141325  48.3210794  29.4171415  37.9523581  50.0474915  30.1421048
  36.7378721  50.1948349  30.3053178  38.7330754  51.0502024  29.7322875
  39.7312610  50.9373982  29.6274058  38.1574440  52.3724665  29.5002699
  37.0840489  52.2830159  29.3331748  38.3899141  53.2795829  30.7096844
  37.9779190  54.2592834  30.4677210  37.8412466  52.8525138  31.5491342
  39.8613144  53.4258036  31.0858584  40.3360493  52.4446897  31.0978280
  40.3641681  54.0633290  30.3586710  39.9640565  54.0613145  32.4814371
  39.3146148  53.4895740  33.1443377  40.9987066  53.9562125  32.8078604
  39.5877298  55.4767127  32.5608174  39.5292429  55.9931211  31.6947914
  39.2384700  56.0939838  33.6985520  38.8867102  57.3681649  33.6715407
  38.8829673  57.8693717  32.7946840  38.6233631  57.8344464  34.5278873
  39.1532218  55.4209458  34.8596780  39.3547603  54.4315164  34.8823000
  38.8880437  55.9079496  35.7038383  38.7099796  53.0188127  28.2376992
  38.7876323  54.2528970  28.1450593  39.0815566  52.2088855  27.2565614
  39.0122535  51.2120999  27.4039216  39.5894928  52.6829274  25.9803114
  39.4436930  53.7611362  25.9146800  41.0903148  52.3783153  25.8159743
  41.0884083  51.2886997  25.7871055  41.4065826  52.7663575  24.8477295
  42.0555628  52.8558314  26.8940530  41.6724307  52.6072345  27.8837551
  43.3773274  52.1510185  26.6732202  43.7613374  52.3995159  25.6838344
  44.0919935  52.4721877  27.4309823  43.2315234  51.0732445  26.7456425
  42.1819119  54.3936026  26.8859640  41.2048729  54.8399352  27.0711166
  42.8769569  54.7056767  27.6654660  42.5532887  54.7230656  25.9155865
  38.8100413  51.9853882  24.8826774  38.2552215  50.9066192  25.1075582
  38.7754078  52.5500186  23.6723361  39.1709583  53.9255872  23.3034786
  40.2569531  54.0089793  23.3454476  38.7256695  54.6272295  24.0088260
  38.6216561  54.0975324  21.8822570  39.3247257  54.6792460  21.2861013
  37.6632491  54.6153062  21.9205675  38.4589245  52.7095677  21.3374172
  39.3833678  52.3792452  20.8637184  37.6420847  52.6525131  20.6179610
  38.1487736  51.8211414  22.5556282  37.0784649  51.7758413  22.7568381
  38.6833061  50.4248275  22.3673821  37.9303392  49.5121439  21.9760784
  39.9645441  50.2058446  22.6668893  40.5617854  50.9591888  22.9765259
  40.5537569  48.8923296  22.4815448  40.0840118  48.3801110  21.6418598
  42.0520940  49.0463392  22.1860859  42.5003045  48.0571518  22.0927328
  42.1764941  49.5908329  21.2500564  42.6922083  49.7593638  23.2378247
  43.6275416  49.8486440  23.0408972  40.3488030  47.9542656  23.6607212
  40.6702793  46.7708856  23.5432228  39.8226101  48.4342442  24.7837775
  39.4471824  49.3716702  24.8034239  39.7759522  47.6415471  26.0146923
  39.9766849  46.5864127  25.8289588  40.7918284  48.1605614  27.0378466
  40.7348382  47.5237019  27.9206050  42.2240409  48.1554617  26.4969315
  42.2819239  48.7925186  25.6143740  42.9031446  48.5324203  27.2616664
  42.5081967  47.1378094  26.2290886  40.4007019  49.4869838  27.4378565
  41.0288581  49.8258807  28.0798604  38.4247196  47.6410727  26.7122510
  38.2982324  46.9713197  27.7365429  37.4341188  48.3849835  26.2171481
  37.5066175  48.8902391  25.3456207  36.2219925  48.5547115  27.0184641
  36.4914784  48.7863126  28.0489191  35.3624389  49.7046375  26.4646736
  34.6509980  49.8601979  27.2756928  35.9570938  50.6074792  26.3255248
  34.6161576  49.3957841  25.1959342  35.2574382  49.4450008  23.9588736
  36.3209579  49.6813965  23.9250727  34.5710353  49.2014902  22.7950812
  35.0901085  49.2058175  21.8366209  33.2148345  48.9429190  22.8450016
  32.5113853  48.6986106  21.6860864  33.0608838  48.7321148  20.8996206
  32.5530218  48.9330231  24.0437961  31.4820877  48.7330145  24.0783950
  33.2441835  49.1764745  25.2057582  32.7162883  49.2002914  26.1590994
  35.4014403  47.2799228  27.1215227  34.4945359  47.2333789  27.9546986
  35.6726009  46.2622905  26.3028938  36.2840379  46.3670790  25.5058596
  34.9867012  44.9932497  26.4832356  34.1601328  45.1080230  27.1844566
  34.4260868  44.5150524  25.1394198  35.2130664  44.5297620  24.3854000
  34.0398409  43.5008538  25.2409842  33.2874031  45.4565388  24.7102057
  32.5003696  45.3634950  25.4585518  33.6893280  46.4695296  24.7304023
  32.7139020  45.1672985  23.3344181  31.8683453  45.8363046  23.1745316
  33.4875969  45.3775655  22.5959850  32.2618818  43.7934462  23.1586406
  32.9137273  43.1700521  22.7041336  31.0814650  43.3106718  23.5390076
  30.1910162  44.0860200  24.1452395  30.4082704  45.0563672  24.3222333
  29.3002549  43.7021224  24.4267827  30.7964504  42.0338168  23.3107835
  31.4747759  41.4422539  22.8524954  29.9026768  41.6601796  23.5965502
  35.8629873  43.9407296  27.1342018  35.5172951  42.7503094  27.1010988
  36.9720987  44.3600278  27.7435375  37.1533836  45.3534588  27.7617035
  37.9232603  43.4744114  28.3925561  37.6362251  42.4348294  28.2345084
  39.3046455  43.6889352  27.8101785  39.4860458  44.7571776  27.6916409
  40.0511076  43.2666208  28.4828931  39.4010723  42.9951733  26.4344132
  39.6053023  41.9393073  26.6120024  38.4330448  43.1000752  25.9444945
  40.4691428  43.5688478  25.5562948  40.2070952  43.3424053  24.5227795
  40.4739091  44.6491852  25.7010282  41.8283920  43.0193927  25.8578869
  42.2014294  43.4944835  26.7652084  41.7403616  41.9452185  26.0206742
  42.7836550  43.2773944  24.7294585  42.8656986  44.2727090  24.5787360
  43.6897009  42.8962043  24.9615683  42.4383903  42.8368875  23.8887177
  37.9469093  43.8039047  29.8786856  37.8451996  44.9677188  30.2819300
  38.0186951  42.7967898  30.7349871  37.9019208  41.8274192  30.4765615
  38.2043483  43.1174860  32.1394207  38.0922136  44.1951550  32.2583933
  37.2073017  42.4130872  33.0758551  37.3042509  42.8030000  34.0891014
  36.1875573  42.5681380  32.7234624  37.4257953  40.6294881  33.2039327
  36.4253200  40.4277478  34.0567211  39.6259975  42.7767217  32.5511554
  40.2842469  41.9191567  31.9601504  40.0654863  43.4677430  33.5950036
  39.3916473  44.0711572  34.0443717  41.4419834  43.4782684  34.0872301
  42.0393512  42.7591516  33.5267643  42.0633547  44.8680416  33.9182356
  41.3416178  45.5625771  34.3481373  43.0233284  44.9849450  34.4211114
  42.2272313  45.1597910  32.4510155  41.1512771  45.5986411  31.6870377
  40.1956529  45.7888533  32.1756083  41.2816347  45.7933699  30.3297652
  40.4352756  46.1175138  29.7242003  42.4916494  45.5201813  29.7317408
  42.6181265  45.7367179  28.3915377  41.8140210  46.0718680  27.9881912
  43.5797259  45.0879689  30.4549020  44.5398893  44.9014118  29.9738790
  43.4385187  44.8907079  31.8162824  44.2792459  44.5214099  32.4035618
  41.5265437  43.0262446  35.5433946  40.8047896  43.5263090  36.3977292
  42.4747211  42.1424287  35.8119742  43.0441128  41.7931239  35.0544265
  42.7167735  41.6238100  37.1569122  41.7740209  41.4658797  37.6807201
  43.4447385  40.2900187  37.0521574  42.7751439  39.6076195  36.5286368
  44.3327393  40.4643360  36.4445653  43.8604351  39.6670031  38.4050332
  44.4639092  40.3747306  38.9734006  42.9750470  39.3998702  38.9819473
  44.8330442  38.1787902  38.0868509  43.5532158  36.9450635  38.0270623
  42.8524410  37.1861979  37.2277702  43.9980468  35.9682533  37.8371465
  43.0237355  36.9236088  38.9795808  43.5404667  42.6069598  37.9773328
  44.6037219  43.0648945  37.5346350  43.0798097  42.9124192  39.1846450
  42.2291824  42.4760558  39.5104048  43.7451696  43.8675046  40.0603464
  44.6431340  44.2470592  39.5728041  42.8262529  45.0468119  40.3778783
  42.0738024  44.6344579  41.0500998  43.4241207  45.7853994  40.9118657
  42.1418073  45.7082565  39.1991781  41.7084416  44.9431658  38.5550265
  41.0239614  46.6457005  39.7088412  41.4566514  47.4113891  40.3527350
  40.5323995  47.1208808  38.8599176  40.2932532  46.0669860  40.2738682
  43.1703257  46.4688552  38.4077716  43.9371294  45.7809235  38.0515954
  42.6906833  46.9503149  37.5555738  43.6295172  47.2272612  39.0418556
  44.1506563  43.1949564  41.3620531  43.6798920  42.0971949  41.6777027
  45.0157601  43.9129027  42.1091372  45.5104972  44.6365919  41.6075313
  45.3669328  43.6755298  43.5117868  46.1091299  44.4087019  43.8275416
  44.1385756  43.7967387  44.4243613  43.4801149  44.5617810  44.0129746
  43.6207949  42.8375918  44.4307252  44.5300133  44.1768667  45.8614543
  45.7447722  44.1119422  46.1672509  43.6588498  44.5321861  46.6718377
  46.0707948  42.3542254  43.7892467  45.4341089  41.3848356  44.2195251
  47.3816259  42.2886970  43.4766820  47.7996646  43.0510476  42.9627125
  48.2129646  41.1357129  43.8009500  47.6241787  40.2212038  43.7295109
  49.3928548  41.0382657  42.8200503  50.0702534  41.8848882  42.9316775
  49.9333993  40.1125982  43.0176646  48.9871233  40.9992294  41.3697220
  47.8350304  40.3192057  40.9630334  47.2222317  39.8060661  41.7041579
  47.4669689  40.2950373  39.6123541  46.5793019  39.7451132  39.2997339
  48.2261261  40.9658738  38.6786021  47.9400776  40.9681545  37.6268079
  49.3787149  41.6512775  39.0940548  49.9926147  42.1716838  38.3589328
  49.7317352  41.6677426  40.4124320  50.6178410  42.2158638  40.7325566
  48.7475290  41.1794233  45.2489940  49.7056388  40.4671111  45.5618885
  48.1538614  41.9923194  46.1230058  47.3385132  42.5219545  45.8495220
  48.6539690  42.1449131  47.4899563  49.6922775  42.4684071  47.4167016
  48.0620159  42.9292258  47.9617023  48.5856897  40.8885519  48.3480143
  49.3378291  40.7609441  49.3259389  47.7077770  39.9511616  48.0172837
  47.0381026  40.0981220  47.2756381  47.6314119  38.7163247  48.7798622
  48.2203398  38.8046092  49.6928075  46.1789564  38.4240091  49.1613930
  45.6283678  38.5503785  48.2292008  46.1020038  37.3877666  49.4906036
  45.5885452  39.3423504  50.2295020  45.4585109  40.3381706  49.8057872
  44.2375448  38.8132337  50.7103807  44.3668581  37.8175679  51.1346760
  43.8345770  39.4821464  51.4708237  43.5464269  38.7621348  49.8690453
  46.5534552  39.4977270  51.4007205  47.4901919  39.9274959  51.0458650
  46.1132470  40.1556881  52.1499902  46.7473856  38.5211791  51.8443918
  48.2442487  37.5519137  48.0260744  48.1259104  36.4053165  48.4712305
  48.9198083  37.8221646  46.9086878  49.0373349  38.7796196  46.6094108
  49.4678063  36.7652653  46.0713467  48.6756511  36.0505805  45.8481540
  50.0029913  37.3301204  44.7526410  50.8032706  38.0407070  44.9593284
  50.3896449  36.5167065  44.1386726  49.1975863  37.8356269  44.2198322
  50.5856007  36.0186933  46.7885210  51.2352317  36.5487119  47.6873473
  50.7620760  34.7522348  46.4065180  50.1531063  34.3624496  45.7013070
  51.8111796  33.9053824  46.9576248  52.5721489  34.5278166  47.4283696
  51.2448874  32.9402655  48.0117104  50.9710179  33.5394730  48.8800681
  50.3489604  32.4896550  47.5846681  52.2245895  31.8277322  48.4428709
  52.2956693  31.0917631  47.6419976  53.2052891  32.2705507  48.6167736
  51.7342462  31.1346102  49.7386249  51.7965546  31.8505956  50.5581256
  50.6960812  30.8338153  49.5977874  52.5196986  29.9549033  50.0875981
  52.1185251  29.0489547  49.8915974  53.7161118  30.0074379  50.6658884
  54.2670214  31.1837821  50.9292470  53.7757267  32.0330656  50.6895657
  55.1755927  31.2254991  51.3684024  54.3791867  28.8880115  50.9629866
  53.9701425  27.9900797  50.7473450  55.2870106  28.9438829  51.4021141
  52.4049647  33.0995930  45.8176083  51.6624688  32.5177736  45.0193890
  53.7350937  33.0445991  45.7433745  54.3286042  33.6428888  46.3000557
  54.3647957  32.1325932  44.8007130  53.9095584  32.2416144  43.8163490
  55.8561134  32.4420765  44.6857663  55.9703626  33.5257961  44.7102269
  56.3508604  32.0054201  45.5533241  56.4783934  31.9016723  43.4304035
  56.3257418  30.8262300  43.3397269  55.9871490  32.4091266  42.6001800
  57.9493940  32.1842994  43.3618459  58.4196623  33.2016157  43.8801714
  58.7004170  31.2575040  42.7799081  59.6983409  31.3941830  42.7052878
  58.2705370  30.4198341  42.4143761  54.1527922  30.6895641  45.2403067
  54.4083866  30.3450323  46.3940893  53.6819192  29.8439373  44.3247478
  53.4154695  30.1790343  43.4099726  53.4506595  28.4343873  44.6416168
  53.5899648  28.2720558  45.7104207  52.0178207  28.0144046  44.2625594
  51.7974914  27.0776769  44.7745119  51.3647767  28.7990232  44.6446683
  51.7839481  27.8430268  42.7699901  51.4627281  28.9439990  41.9663707
  51.3808742  29.9274305  42.4292549  51.2525235  28.8009068  40.6202041
  50.9791950  29.6645997  40.0140457  51.3803210  27.5610841  40.0342820
  51.1906423  27.4350458  38.6759149  50.9767148  28.2674556  38.2482133
  51.7026535  26.4558811  40.8005000  51.7964394  25.4732884  40.3380974
  51.9059619  26.6021110  42.1581382  52.1664590  25.7360793  42.7666039
  54.4647449  27.5184418  43.9794887  54.3832489  26.2998423  44.1479603
  55.4052475  28.0728281  43.2287099  55.3429489  29.0547268  43.0004706
  56.5232470  27.3116009  42.6973530  56.2692390  26.2525848  42.7427853
  56.7982191  27.6849733  41.2442572  57.7151605  27.1995260  40.9101021
  55.6311082  27.2230609  40.3729462  54.7138321  27.7084760  40.7062276
  55.8253308  27.4888170  39.3338358  55.5204004  26.1419080  40.4563304
  56.9085436  29.1109691  41.1341954  57.0816633  29.3489349  40.2204109
  57.7649573  27.5825456  43.5355090  57.8761255  28.6117632  44.2086715
  58.6965222  26.6291168  43.5008921  58.4686029  25.7128211  43.1423475
  60.0333240  26.8483133  44.0361377  59.9981182  27.6237086  44.8013971
  60.5893557  25.5622483  44.6656819  61.5969648  25.7488179  45.0371856
  59.9392985  25.2946264  45.4986911  60.6388952  24.3862544  43.6862684
  60.9865281  24.5441988  42.5164855  60.3082218  23.1944305  44.1790727
  60.3226533  22.3817792  43.5794985  60.0444616  23.1084397  45.1502251
  60.9765409  27.3650750  42.9565262  61.7129101  28.3306561  43.1871333
  60.9535932  26.7340370  41.7802939  60.3008730  25.9725923  41.6608882
  61.8423949  27.0668085  40.6667770  61.6753233  28.1137169  40.4134606
  63.3476727  26.8738507  41.0185324  63.5216153  25.8292736  41.2768017
  64.2200095  27.2543827  39.8349811  64.0469482  28.2990297  39.5764040
  65.2689390  27.1142285  40.0961378  63.9711065  26.6233871  38.9817564
  63.7055971  27.7236865  42.1145266  64.6338251  27.5996574  42.3257373
  61.4888838  26.1836501  39.4669603  62.1042746  25.1349826  39.2411250
  60.5622177  26.4886136  38.7194800  59.5257017  23.3783407  40.6972016
  59.5466838  23.0270842  41.6439220  60.0665336  24.2302917  40.6550041
  59.7305078  22.6182957  40.0643622  58.1558643  23.7758695  40.3915722
  58.1196523  24.8346034  40.1349201  57.6343849  22.9617788  39.1948009
  56.6413308  23.3579495  38.9826888  58.2820814  23.1260139  38.3336295
  57.5353873  21.4723377  39.4767824  57.9552616  21.0300886  40.5674979
  57.0756545  20.7370199  38.5751453  57.2631608  23.7100389  41.6556788
  57.5560276  24.4485916  42.5915837  56.2214955  22.8687294  41.7352891
  56.0530721  22.1497719  41.0462078  55.2189140  23.0704843  42.7913721
  54.8362364  24.0870782  42.7008514  54.0477764  22.0939341  42.6632930
  54.3893967  21.0800450  42.8716768  52.9650611  22.4822130  43.6672572
  52.6225914  23.4958850  43.4592079  52.1261635  21.7913721  43.5830539
  53.3723429  22.4369831  44.6772955  53.4661352  22.1840267  41.2688172
  54.2331402  21.9291280  40.5374951  52.6318300  21.4886172  41.1769476
  53.1139801  23.1993091  41.0863639  55.8615319  22.9993392  44.1689416
  56.4563015  21.9858167  44.5571043  55.7209231  24.0915276  44.9104560
  55.1311736  24.8208333  44.5357452  56.3432437  24.3064474  46.2035930
  57.4166751  24.1232043  46.1559885  56.1142651  25.7608834  46.6019932
  56.4754579  26.3416889  45.7532859  55.0314568  25.8615885  46.6760531
  56.7485269  26.2668160  47.8577532  56.3498915  25.7456504  48.7281423
  57.8303681  26.1385614  47.8220812  56.4168521  27.7482206  47.9582134
  56.7996185  28.2570299  47.0735089  55.3341993  27.8658045  48.0044347
  57.0039858  28.3632126  49.1409052  57.5413947  27.7711377  49.7579452
  56.8673775  29.6431921  49.4534762  56.1543449  30.4445887  48.6701646
  55.7181362  30.0747151  47.8376891  56.0516438  31.4201593  48.9106106
  57.4519876  30.1190058  50.5461455  57.9970754  29.5031997  51.1324579
  57.3490159  31.0946496  50.7861764  55.7244160  23.3851523  47.2491535
  54.5277652  23.1053404  47.1944622  56.5087375  22.9141624  48.2218807
  57.9613011  23.0933359  48.3862876  58.2357716  24.1176768  48.1343118
  58.4928650  22.4035730  47.7307221  58.1732320  22.7806644  49.8380172
  58.0528426  23.6887710  50.4287353  59.1779563  22.3838071  49.9833947
  57.1484817  21.7677517  50.1873463  56.8964068  21.9108839  51.2380938
  57.4455214  20.7319099  50.0233377  55.9347482  22.1113170  49.3069782
  55.4545637  21.2297352  48.8823198  54.9111443  22.9216528  50.0772637
  55.1886151  24.0602707  50.4810287  53.7183840  22.3740392  50.2937754
  53.1947834  21.1232442  49.7175505  53.8663652  20.2992656  49.9586675
  53.1168598  21.2228746  48.6349145  51.8441366  20.9848954  50.3823024
  51.9414911  20.4086621  51.3023983  51.1504696  20.4802219  49.7098204
  51.4008773  22.3694480  50.6563558  50.7056359  22.3697756  51.4958427
  50.9393812  22.8661324  49.8028773  52.6923059  23.0963060  51.0490041
  52.7120107  24.1382973  50.7296859  52.9124688  23.0232015  52.5520843
  53.4226704  22.0370740  53.0877285  52.5072750  24.0910794  53.2358597
  52.2235432  24.9395390  52.7671252  52.4993600  24.0710258  54.6916633
  53.4500933  23.6806961  55.0547723  52.2970113  25.4815435  55.2645341
  51.3623459  25.8581093  54.8489648  52.1953539  25.3703832  56.3440753
  53.4185177  26.4623951  54.9596499  54.2745340  26.2198020  55.5893209
  53.6979440  26.3574895  53.9113094  52.9868281  27.8814445  55.2244234
  52.3317661  27.9006925  56.0954127  53.8671872  28.4940016  55.4189513
  52.2654982  28.4461402  54.0824410  52.2561745  27.9113213  53.2257139
  51.6315640  29.6118320  54.1082101  51.6333627  30.3367199  55.2209528
  52.1165430  29.9972806  56.0403537  51.1515409  31.2241174  55.2427008
  50.9954850  30.0500063  53.0269780  50.9955812  29.4931199  52.1843763
  50.5148351  30.9379321  53.0527113  51.3913715  23.1478181  55.1860903
  50.3171229  23.0415207  54.5769557  51.6600331  22.4752800  56.3085182
  52.5670023  22.5193291  56.7507464  50.6530207  21.5878416  56.8818463
  50.4209927  20.8019583  56.1630629  51.1896351  20.9378327  58.1620707
  52.0954458  20.3764650  57.9330019  51.4179809  21.7117177  58.8949147
  50.1661490  19.9853119  58.7634577  49.0745479  19.8205510  58.2233630
  50.5218538  19.3568915  59.8863049  49.8795138  18.7137708  60.3266398
  51.4316766  19.5274538  60.2903244  49.3555681  22.3469984  57.1461034
  48.2674535  21.8875730  56.7795165  49.4519811  23.5263606  57.7596516
  50.3528087  23.8437712  58.0880712  48.2857004  24.3621849  58.0237368
  47.4889705  24.1441804  57.3125443  47.7373330  24.1621641  59.4575390
  48.5061513  24.4334768  60.1810078  46.5306404  25.0310462  59.6608290
  45.7611570  24.7599923  58.9379693  46.1459267  24.8889469  60.6707318
  46.8071920  26.0761525  59.5216398  47.3688171  22.6978524  59.7476705
  48.2536477  22.0710933  59.6365401  46.9896687  22.6129926  60.7660736
  46.6015230  22.3699406  59.0463615  48.6884405  25.8181610  57.7928102
  49.6721092  26.2945483  58.3691765  47.9283525  26.5304234  56.9627026
  47.0832937  26.1095007  56.6038168  48.2677963  27.8801665  56.5263834
  49.1690111  28.2158801  57.0394210  48.5169600  27.9343958  55.0077697
  47.6201742  27.6096941  54.4800917  48.7602525  28.9558278  54.7152193
  49.3470737  27.2761061  54.7515176  47.1400565  28.8374818  56.8829216
  45.9626878  28.4884780  56.7729702  47.5025084  30.0568567  57.2782879
  48.4742803  30.3292785  57.3175937  46.4985154  31.0310910  57.6653623
  45.7795072  30.5438278  58.3239221  46.9916502  31.8411839  58.2026397
  45.7610180  31.6082998  56.4689186  46.3181201  31.7839271  55.3815188
  44.4865125  31.9219248  56.6876030  44.0887081  31.7347663  57.5969009
  43.6213567  32.4867381  55.6568327  44.0686826  32.3417074  54.6734889
  42.2568905  31.7947319  55.6801662  42.3337436  30.8097288  55.2197731
  41.9066122  31.6889836  56.7069195  41.1880731  32.5323191  54.9370972
  41.2219169  32.6392911  53.5682987  42.0377195  32.1846271  53.0062963
  40.2134304  33.3290193  52.8978637  40.2446980  33.3936605  51.8102312
  39.1920737  33.9211881  53.5892626  38.4169953  34.4731097  53.0575333
  39.1463788  33.8201939  54.9336109  38.3273085  34.2825223  55.4844978
  40.1408563  33.1283502  55.6168626  40.1020612  33.0499312  56.7033456
  43.4722000  33.9850287  55.8843638  43.1487663  34.4135336  56.9953715
  43.7187269  34.7867934  54.8417311  44.0343398  34.4154777  53.9570772
  43.6062160  36.2348721  54.9836827  43.0576204  36.4737454  55.8947709
  44.9992147  36.8815310  55.0649605  45.7273554  36.0742542  55.1437925
  45.1593085  37.4248701  54.1336965  45.1670948  37.8341324  56.2442877
  44.4395450  38.6419855  56.1658946  45.0075948  37.2913705  57.1759912
  46.5764035  38.4166151  56.2305788  47.3045451  37.6093391  56.3094090
  46.7364954  38.9599553  55.2993155  46.7764382  39.3478970  57.3633195
  46.0090011  39.5023993  58.0014956  47.9206204  39.9906338  57.5792755
  48.9753083  39.8389556  56.7833312  48.9185533  39.2198113  55.9873794
  49.8281453  40.3436108  56.9785025  47.9909684  40.8049169  58.6285110
  47.1882170  40.9178419  59.2309546  48.8468172  41.3066169  58.8180332
  42.8160276  36.9311968  53.8845994  42.7410987  38.1638096  53.9012193
  42.2233796  36.1939566  52.9357515  42.2932700  35.1870969  52.9738064
  41.4763522  36.7915373  51.8428122  42.0022460  37.6902619  51.5205872
  41.4425908  36.0765348  51.0207836  40.0619162  37.1615906  52.2318266
  39.7473091  37.3860364  53.4073552  39.1795353  37.1950955  51.2384810
  39.4589598  36.9276550  50.3054767  37.8193310  37.6761768  51.4409137
  37.7290958  38.3210174  52.3150632  37.3864830  38.4634121  50.2075021
  37.3889313  37.7772587  49.3605737  35.9838676  39.0982636  50.3520555
  35.9807702  39.7849397  51.1985577  35.7357533  39.6436802  49.4415287
  35.2450023  38.3142984  50.5181196  38.3763937  39.4763434  49.9713818
  38.1305566  39.9900236  49.1985318  36.9065956  36.4940601  51.7247240
  36.8676491  35.5294893  50.9454915  36.1570035  36.5881662  52.8268727
  36.1253441  37.4477482  53.3562268  35.4283933  35.4298623  53.3416934
  36.0930983  34.5807025  53.5004202  34.7551108  35.7852676  54.6813302
  34.2703065  36.7562106  54.5796754  33.7243884  34.7446579  55.0723031
  34.2085607  33.7734668  55.1746055  33.2673205  35.0239915  56.0215988
  32.9551189  34.6872310  54.3022199  35.8123362  35.8961909  55.7656477
  36.5257980  36.6761761  55.4997579  35.3364236  36.1476000  56.7134875
  36.3347726  34.9445324  55.8631530  34.4141620  34.9368339  52.3186964
  34.3117680  33.7279307  52.0577111  33.6730446  35.8641943  51.7063364
  33.8764781  36.8472745  51.8170949  32.5207429  35.4793729  50.8754066
  31.7953460  34.9555566  51.4979137  31.8360795  36.6883762  50.2400852
  31.7428969  37.4854831  50.9776737  32.4280834  37.0424093  49.3961113
  30.4612479  36.2858617  49.7572250  30.5744827  35.4030469  49.1280058
  29.8617166  36.0335316  50.6318642  29.7808530  37.3643292  48.9826046
  30.3673996  37.6280537  48.1025412  28.7872099  37.0406739  48.6727334
  29.6478892  38.5252816  49.8100671  29.9147952  38.4423843  50.7806280
  29.1965702  39.6964088  49.3745476  28.8076895  39.8522764  48.1054195
  28.8561041  39.0718348  47.4661488  28.4671742  40.7497957  47.7914005
  29.1382668  40.7056868  50.2185544  29.4342980  40.5773943  51.1756368
  28.7977909  41.6033270  49.9048396  32.9045764  34.5314673  49.7503010
  32.1555254  33.5942965  49.4535649  34.0397365  34.7684634  49.1045026
  34.6075266  35.5549688  49.3857905  34.4650614  33.9852545  47.9409853
  33.6277221  33.4202608  47.5314195  34.9883458  34.9526086  46.8525877
  35.9113583  35.4250846  47.1886140  35.1799452  34.3920009  45.9376512
  33.9280005  36.0355475  46.5782259  32.8208776  35.7610665  45.7688577
  32.7502723  34.7793474  45.3005180  31.8204712  36.7097382  45.5547011
  30.9503340  36.4789316  44.9401352  31.9728026  37.9697202  46.0859293
  31.0167847  38.9566824  45.8843226  30.2752228  38.6576598  45.3530306
  33.0694923  38.2732860  46.8912693  33.1672572  39.2662151  47.3301705
  34.0361750  37.3104548  47.1334833  34.8934834  37.5455057  47.7642554
  35.5069484  32.9224439  48.2617706  35.9735823  32.2426228  47.3487398
  35.8443102  32.7130112  49.5161481  35.3942217  33.2044433  50.2751040
  36.9250894  31.7718283  49.8395985  37.7553769  31.9282899  49.1509465
  37.4117940  32.0519090  51.2648277  36.5937900  31.8906287  51.9669376
  38.2353233  31.3800487  51.5067027  37.7530759  33.0846247  51.3364104
  36.4920548  30.3101497  49.7275006  35.3881221  29.9394123  50.1320935
  37.3825228  29.4375852  49.2561390  38.2841280  29.7078005  48.8898180
  37.0167776  28.0250135  49.2217950  36.0247395  27.9092592  48.7852626
  38.0254751  27.2320139  48.3690278  37.5723421  26.2879745  48.0664399
  38.2782252  27.8137383  47.4825662  39.1931495  26.9751030  49.1093509
  39.8131115  26.4810778  48.5678845  36.9440277  27.4165459  50.6149370
  37.4628029  27.9720685  51.5994155  36.3266247  26.2252532  50.6998616
  35.7941896  25.8457044  49.9300857  36.3409058  25.4884602  51.9628414
  35.8867695  26.0874754  52.7521704  35.5579956  24.1695927  51.8341003
  35.9930630  23.5838543  51.0243312  35.6145118  23.3685340  53.1259264
  35.1791705  23.9534821  53.9361207  35.0527217  22.4423718  53.0046169
  36.6522023  23.1348986  53.3640747  34.1114080  24.4510741  51.5020438
  34.0535875  24.9932406  50.5582142  33.5685961  23.5099831  51.4137108
  33.6667889  25.0533907  52.2942745  37.7717900  25.2498455  52.4149515
  38.1018615  25.4237530  53.5964446  38.6548336  24.8872801  51.4695963
  38.3680568  24.7623837  50.5092530  40.0524560  24.6140658  51.8188593
  40.0828906  23.7983706  52.5412264  40.8921213  24.2176418  50.5951717
  40.9836153  25.1240179  49.9966648  41.8835983  23.8819349  50.8991031
  40.2575342  23.1420663  49.7476515  39.9759039  22.0224500  50.2465269
  40.0803065  23.4327969  48.4234691  39.6600637  22.7482794  47.8111526
  40.3704214  24.3307802  48.0635243  40.7131915  25.8093497  52.4900923
  41.4544171  25.6498636  53.4701754  40.4744972  27.0060827  51.9585931
  39.9714094  27.0915654  51.0869885  40.9960746  28.2178079  52.5767162
  42.0761830  28.1255352  52.6905170  40.6991162  29.4313864  51.6899333
  39.6209755  29.5422954  51.5741244  41.1085541  30.3292259  52.1529076
  41.1562494  29.2872545  50.7109775  40.4157397  28.3959259  53.9741715
  41.1265939  28.8061630  54.9043843  39.1561840  28.0228026  54.1561508
  38.6174044  27.6206566  53.4024304  38.5159037  28.1521330  55.4861947
  38.6548191  29.1711812  55.8472246  37.0255618  27.8513690  55.4411258
  36.8251523  27.1193097  54.6588059  36.6458323  27.4788375  56.3925068
  36.2327408  29.0495939  55.1106400  35.9346658  30.0130545  56.0244058
  35.2238036  30.9349403  55.4406229  34.8552699  31.7897392  56.0077214
  35.0845814  30.6165840  54.1748676  34.5921487  31.1571288  53.4781458
  35.7051192  29.4475051  53.9460959  35.7013459  29.0151335  52.9455252
  39.1349957  27.1493837  56.4464618  39.3949096  27.5435957  57.5553336
  39.4940401  25.9594272  55.9547959  39.3629028  25.7994557  54.9662052
  40.0398914  24.8466543  56.7850145  39.5970620  24.8820621  57.7803775
  39.7216624  23.4911233  56.1571770  39.9490689  23.5914054  55.0958905
  40.4129137  22.7808499  56.6108104  38.2956015  22.9879357  56.3245855
  38.0676030  22.8869560  57.3856796  37.6037575  23.6975092  55.8707580
  38.1518985  21.6314231  55.6427879  38.3793067  21.7317037  54.5815018
  38.8431489  20.9211503  56.0964232  36.7225286  21.1270701  55.8105835
  36.4945289  21.0260910  56.8716773  36.0306871  21.8366424  55.3567535
  36.5840096  19.8194802  55.1533771  37.2246963  19.1617147  55.5740489
  35.6373449  19.4854496  55.2645058  36.7948207  19.9129147  54.1700522
  41.5543756  24.9643024  56.9681693  42.1453609  24.0208258  57.4136144
  42.1326471  26.0888744  56.5793186  41.5968705  26.6768133  55.9569276
  43.5592821  26.3840789  56.7594266  43.8308150  27.2886871  56.2153191
  43.8484091  26.6015065  58.2422809  43.3259318  25.8266989  58.8033423
  44.9115671  26.5673077  58.4802418  43.3055513  27.9442228  58.6559332
  42.3349166  28.0420669  59.3859366  43.8900854  29.0013192  58.1407622
  43.5636388  29.9250383  58.3862728  44.6633809  28.8856984  57.5014293
  44.4338717  25.4134889  55.9729445  45.5974799  25.3801827  56.3517951
  43.9677713  25.0258824  55.0068924  42.9991167  25.1450074  54.7468599
  44.8358263  24.2787264  54.1098638  45.5267413  23.6668009  54.6897627
  44.0101399  23.3604404  53.2051241  43.1162249  23.9089969  52.9083060
  44.6113363  23.1416980  52.3226193  43.6044388  22.0554356  53.8791352
  44.2980501  21.2802423  53.5534367  43.6938663  22.1928490  54.9567355
  42.1854399  21.6395383  53.5386623  41.5743608  22.5224383  53.3511289
  42.1868313  21.0044230  52.6528147  41.6002295  20.8926260  54.6490495
  41.4701416  21.3934766  55.5164163  41.2392727  19.6145623  54.5943919
  41.3822575  18.9294603  53.4688891  41.7667083  19.3814099  52.6515525
  41.1061087  17.9585822  53.4337145  40.7283782  19.0246837  55.6672750
  40.6154326  19.5495664  56.5227524  40.4547320  18.0534406  55.6236485
  45.6515443  25.2512098  53.2675175  45.2082390  26.3643712  52.9661686
  46.8664330  24.8370137  52.9058216  47.2734215  23.9839677  53.2618723
  47.6511831  25.6426429  51.9796143  47.8263995  26.6244796  52.4193815
  48.9932685  25.0017909  51.6729557  49.5302586  24.8676147  52.6119645
  48.8109207  24.0286620  51.2170286  49.8385860  25.8662999  50.7171044
  50.6108792  25.2314545  50.2827826  49.1727861  26.2183534  49.9291526
  50.4910193  27.0630928  51.4038550  51.4673580  26.8345369  52.1560804
  50.0531267  28.2157508  51.1961636  46.8645199  25.8074319  50.6878049
  46.3349032  24.8368449  50.1333114  46.7628645  27.0367773  50.2143380
  47.2206140  27.8290127  50.6420387  45.8964610  27.2752909  49.0772386
  45.0052570  26.6521909  49.1520794  45.4660514  28.7398874  49.0389943
  46.3146712  29.3505965  49.3471795  45.1951813  28.9867528  48.0124531
  44.2958593  29.0131481  49.9459914  43.3950151  28.5399745  49.5552391
  44.4976794  28.6365831  50.9487723  44.0452382  30.7812682  50.0217232
  42.8380313  30.9883785  48.6786603  41.9441876  30.4050381  48.8996950
  42.5710238  32.0413248  48.5885946  43.2739450  30.6431434  47.7411673
  46.5975348  26.8652218  47.7870437  47.8259300  26.9047145  47.6747111
  45.7962640  26.4054145  46.8304182  44.8007522  26.3778533  46.9986323
  46.2868291  25.9422573  45.5579072  47.3661878  26.0826910  45.4999205
  46.0509101  24.8860013  45.4284284  45.6265697  26.7342058  44.4487971
  44.7970327  27.6344354  44.6843049  46.0102825  26.3784240  43.2239000
  46.7508826  25.7057766  43.0854939  45.3979002  26.9778434  42.0531834
  45.5462653  28.0576895  42.0576019  46.0445934  26.4011665  40.7941744
  46.0047065  25.3142522  40.8657683  45.4579126  26.7300409  39.9364172
  47.4837741  26.8431811  40.6207878  47.4903791  27.8953338  40.3361270
  47.9998569  26.7217420  41.5731602  48.1809949  26.0381936  39.5699308
  47.4940816  25.8142068  38.7537941  49.0368667  26.5908648  39.1824550
  48.6524010  24.7889590  40.1366971  48.3527326  24.5334305  41.0667527
  49.4366621  23.9436429  39.4658922  49.8542900  24.2592114  38.2380631
  49.5746129  25.1363477  37.8227167  50.4480699  23.6194189  37.7299384
  49.8260634  22.8209073  40.0306148  49.5294140  22.6028691  40.9711245
  50.4198287  22.1822944  39.5209924  43.9022211  26.7190407  42.0486084
  43.1205225  27.5556386  41.5778970  43.4874271  25.5696928  42.5895847
  44.1339327  24.8706260  42.9263866  42.0707818  25.2558032  42.5945013
  41.6578402  25.4231552  41.5997291  41.8289968  23.7854666  42.9870486
  40.7824459  23.4913948  42.9073470  42.4261593  23.1929155  42.2939539
  42.2744052  23.4112989  44.3626833  43.4637499  23.8414477  44.9152926
  43.6005540  23.3144293  46.1228945  44.4753011  23.5427778  46.7318062
  42.5496976  22.5471758  46.3657997  42.3772043  22.0243790  47.2125756
  41.7192242  22.5725698  45.2732883  40.8064681  21.9767886  45.2685708
  41.2876540  26.2074157  43.4871841  40.1130495  26.4368792  43.2274695
  41.9141623  26.7984055  44.5107736  42.8745899  26.6038782  44.7553899
  41.1432851  27.6900842  45.3798798  40.1539580  27.2756979  45.5738263
  41.8771629  27.8403969  46.7072792  42.8804214  28.2358853  46.5486581
  41.2967215  28.5495760  47.2974087  41.9655560  26.5253973  47.4451652
  40.9224283  25.8520599  47.5723594  43.0736596  26.1185186  47.8617092
  40.8663067  29.0391343  44.7204166  39.8066497  29.6457441  44.9653689
  41.7525127  29.5102148  43.8240561  42.6847561  29.1381519  43.7118471
  41.3624279  30.6628289  43.0096321  41.0483912  31.4749839  43.6652878
  42.5175724  31.1569858  42.1386607  42.9398858  30.2367211  41.7350972
  42.1613445  31.7822589  41.3199817  43.5873988  31.9057145  42.9198487
  43.2729118  32.4502124  43.9869865  44.7265953  32.0223604  42.3933422
  40.1684045  30.3354788  42.1290097  39.2950589  31.1978425  41.9136372
  40.1152253  29.1070462  41.5791949  40.8712800  28.4442733  41.6751775
  38.9753320  28.7413847  40.7400232  38.7568369  29.5567346  40.0504119
  39.2699447  27.4651459  39.9186196  39.4822116  26.6728816  40.6365048
  38.3822923  27.2042850  39.3423169  40.4616193  27.6288036  38.9730237
  41.2732382  28.0961249  39.5306853  40.9286125  26.3220136  38.4144995
  40.1176203  25.8542799  37.8562741  41.7755704  26.4922549  37.7498333
  41.2334078  25.6659506  39.2298408  40.0744908  28.5547276  37.8212159
  39.7892579  29.5291305  38.2178020  40.9231949  28.6715877  37.1473122
  39.2344133  28.1250432  37.2755602  37.6944533  28.5648770  41.5562687
  36.5986343  28.7933687  41.0403006  37.7832178  28.1453490  42.8196112
  38.6500940  27.8080116  43.2130937  36.5982098  28.1473658  43.6624426
  35.8257650  27.5026759  43.2431537  36.9812468  27.6155423  45.0471045
  38.0226506  27.8413833  45.2763934  36.3355968  28.0940843  45.7834696
  36.8121938  26.1242216  45.2278600  37.7874603  25.1891809  45.3920547
  38.8174697  25.5442462  45.3587507  37.2174256  23.9179800  45.5759538
  37.7017708  23.0388620  45.6884731  35.8479099  24.0769581  45.5209206
  34.8243740  23.1198440  45.6098921  35.0892640  22.0745847  45.7691556
  33.5185988  23.5807912  45.4862603  32.7003962  22.8628517  45.5428938
  33.2231476  24.9257623  45.2930289  32.1912903  25.2684698  45.2160772
  34.2467317  25.8847995  45.1910075  33.9728829  26.9307031  45.0524675
  35.5788183  25.4494537  45.2920721  36.0278525  29.5579617  43.7794805
  34.8036155  29.7594454  43.7784506  36.9021760  30.5499111  43.9712636
  37.8930315  30.3812167  44.0704948  36.4167545  31.9263257  44.0917001
  35.7008971  32.0033901  44.9100573  37.5892510  32.8597976  44.3798742
  38.3403667  32.7648474  43.5957130  37.2398287  33.8913033  44.4245966
  38.1625384  32.4986031  45.6319142  38.9021956  33.0794355  45.8246334
  35.6949557  32.3405570  42.8145909  34.6257190  32.9618737  42.8789915
  36.2387665  31.9624983  41.6504503  37.1485005  31.5244075  41.6267890
  35.5656939  32.2299395  40.3818505  35.3919097  33.2986699  40.2564971
  36.4667437  31.7379625  39.2285232  37.2850834  32.4578791  39.2167140
  36.8632071  30.7411388  39.4215500  35.7574417  31.7505815  37.8734241
  34.8655182  31.1287039  37.9498540  35.3507207  33.1896265  37.4413829
  36.2422290  33.8120151  37.3642843  34.8502362  33.1512571  36.4738377
  34.6744836  33.6147392  38.1830588  36.6341572  31.0625045  36.8336381
  36.8180028  30.0319193  37.1372734  36.1286007  31.0715559  35.8680130
  37.5837185  31.5912793  36.7509974  34.1991221  31.5715279  40.3319653
  33.1964827  32.2076369  39.9647643  34.1280889  30.2877031  40.7084134
  34.9635630  29.7681014  40.9366598  32.8432022  29.5886614  40.7503907
  32.4266197  29.4938146  39.7476134  33.0572168  28.1847610  41.3265952
  33.7433716  27.5966633  40.7171431  33.4655955  28.2923299  42.3314613
  31.8094390  27.3828551  41.4574595  31.3448385  26.6428602  40.3750368
  31.8966328  26.6599761  39.4351804  30.1854538  25.8852747  40.4862449
  29.8120108  25.3211659  39.6315973  29.4945598  25.8488020  41.7069927
  28.5885183  25.2510406  41.8063405  29.9746783  26.5870648  42.8052329
  29.4485519  26.5832492  43.7598409  31.1382695  27.3280584  42.6574186
  31.5411726  27.8846010  43.5036037  31.8276827  30.3615809  41.5778746
  30.7018474  30.5971823  41.1420779  32.2166640  30.7450593  42.7861013
  33.1289920  30.4988117  43.1426389  31.2968609  31.4843325  43.6701298
  30.3651651  30.9315969  43.7906517  31.9359984  31.6648606  45.0397939
  32.9409578  32.0198153  44.8114016  31.3917718  32.4393256  45.5802764
  32.0240596  30.4115917  45.9010299  31.0205864  29.4322138  45.8664101
  30.1740551  29.5578543  45.1913555  31.0985881  28.3044784  46.6859548
  30.3458220  27.5187361  46.6222832  32.1692193  28.1754257  47.5730395
  32.2555049  27.1117116  48.4098657  31.5235219  26.4981350  48.3133030
  33.1456704  29.1561793  47.6247740  33.9709041  29.0584246  48.3301349
  33.0791951  30.2331235  46.8046068  33.8613935  30.9915747  46.8365022
  30.9221044  32.8289618  43.0532564  29.7538545  33.2351399  43.0950125
  31.8888500  33.5094940  42.4283685  32.8380704  33.1650645  42.4071927
  31.6013294  34.7903963  41.7830384  31.2162628  35.4969700  42.5182775
  32.8750318  35.3741575  41.1633359  33.3642630  34.5745089  40.6071757
  32.5718332  36.1624422  40.4742947  33.8169134  35.9277868  42.1623527
  33.2999374  36.6506999  42.7934099  34.2110084  35.1219922  42.7816155
  35.1767712  36.7447197  41.3209293  34.3170278  37.6095734  40.0186071
  33.5996546  38.3044623  40.4551894  35.0352676  38.1623701  39.4130924
  33.7901639  36.8910083  39.3907697  30.5457580  34.6391369  40.7015950
  29.6081339  35.4508347  40.6026580  30.6825707  33.6071404  39.8717713
  31.4373429  32.9430257  39.9685706  29.7704290  33.4548541  38.7507818
  29.6513429  34.4079760  38.2355378  30.3166115  32.4367845  37.7670475
  30.4456829  31.4895992  38.2907647  29.5545315  32.3240861  36.9959229
  31.6258059  32.8407151  37.1263386  32.4337889  32.8387879  37.8579537
  31.9265409  31.7793896  36.0139440  31.1191638  31.7810572  35.2816610
  32.8656576  32.0270342  35.5191381  32.0043402  30.7905890  36.4659628
  31.5490346  34.2287131  36.4643879  31.2965686  34.9767668  37.2159037
  32.5132920  34.4731462  36.0187855  30.7828161  34.2202432  35.6891870
  28.3901419  33.0575733  39.2080688  27.4024795  33.5055703  38.6225480
  28.2819534  32.2251279  40.2617097  29.0795186  31.7396120  40.6467596
  26.9663581  31.9528449  40.8296110  26.2286994  31.6090512  40.1045146
  27.0680923  30.9044110  41.9683657  27.8926372  31.1771829  42.6270162
  25.7617462  30.8541277  42.7771416  24.9367604  30.5809472  42.1192116
  25.8535525  30.1127871  43.5709214  25.5673398  31.8329470  43.2155712
  27.4771383  29.5147704  41.3924373  28.4450788  29.5964621  40.8979479
  27.5442618  28.7900746  42.2038620  26.7284944  29.1847292  40.6722248
  26.3393769  33.2475767  41.3276833  25.1764981  33.5387845  41.0440074
  27.1193689  34.0781108  42.0257574  28.0776753  33.8599831  42.2584985
  26.5524271  35.3265784  42.5268119  25.6454705  35.1365477  43.1007607
  27.5762360  35.9908755  43.4396803  27.9162056  35.2335909  44.1461079
  28.4113466  36.3030099  42.8125739  27.0325357  37.2077037  44.2136318
  26.6296978  37.9288689  43.5024754  26.2353216  36.8639335  44.8727000
  28.1259874  37.8687964  45.0421460  29.1511223  38.3321116  44.4843140
  27.9682666  37.9409102  46.2650003  26.1492626  36.2550843  41.3895018
  25.0978940  36.9099906  41.4714089  26.9299592  36.2821146  40.3063924
  27.7755182  35.7318205  40.2583739  26.5626237  37.0997417  39.1396175
  26.5614634  38.1550209  39.4125344  27.5645239  36.8898757  38.0066271
  27.7988394  35.8268482  37.9503415  27.1390447  37.2183193  37.0583696
  28.8930236  37.6216525  38.1654987  29.1148328  38.4973509  39.2285567
  28.3377725  38.6391214  39.9796746  30.3306532  39.1946323  39.3348789
  30.4982236  39.8927391  40.1550421  31.3325751  38.9864481  38.3750883
  32.2723025  39.5353337  38.4362185  31.1255025  38.0821513  37.3496331
  31.9242076  37.8714082  36.6384666  29.8762868  37.4304327  37.2238483
  29.6882403  36.7715266  36.3761566  25.1852044  36.6983584  38.6177569
  24.3388509  37.5479088  38.3107098  24.9569005  35.3998216  38.4857814
  25.6294996  34.7231450  38.8171703  23.7655804  34.9108564  37.7911625
  23.5063517  35.6214129  37.0063000  24.0823779  33.5607380  37.1434760
  24.3350134  32.8361652  37.9176010  23.2121214  33.2102545  36.5885749
  24.9259267  33.6729422  36.4623483  22.5487762  34.7997095  38.7227181
  21.4146585  35.1124455  38.2945799  22.7594501  34.3972421  39.9806718
  23.7108103  34.2034650  40.2589946  21.6872262  34.1762407  40.9622427
  20.7057283  34.0199514  40.5146551  22.0095241  32.9722571  41.8807249
  22.9645420  33.1493316  42.3753810  20.9108728  32.7936421  42.9386370
  19.9555708  32.6160534  42.4447125  21.1537571  31.9429708  43.5753991
  20.8423420  33.6949410  43.5477885  22.2432822  31.7112659  41.1093137
  23.0847500  31.8506069  40.4306252  22.4652221  30.8979256  41.8001971
  21.3503661  31.4655582  40.5344837  21.4600710  35.4166104  41.8099504
  20.3302283  35.7062742  42.2301603  22.5323063  36.1680169  42.0285480
  23.4322826  35.8254767  41.7239039  22.4737162  37.4802802  42.6953631
  23.1550892  38.1424938  42.1612254  21.4531688  37.8484551  42.5903417
  22.8434962  37.4707365  44.1554113  22.9004327  38.5374382  44.7595676
  23.0708308  36.2905146  44.6972712  22.9930458  35.4360313  44.1644419
  23.4582540  36.1965321  46.1141359  24.1768693  36.9823581  46.3468778
  22.2526083  36.3558354  47.0249750  22.5735317  36.1295645  48.0417881
  21.9304376  37.3956363  46.9691153  21.1042416  35.4529311  46.6477539
  20.6848373  35.7898849  45.6997756  21.4984022  34.4433433  46.5316855
  20.0052697  35.4251650  47.6775500  19.0358247  34.6886260  47.5579985
  20.1568546  36.2227418  48.7124376  19.4517518  36.2467536  49.4351788
  20.9776509  36.8074564  48.7795464  24.0826433  34.8245817  46.3712719
  23.9727542  33.9830506  45.5309054  24.8001221  34.7090464  47.4717685
  25.0116434  35.5309145  48.0193914  25.3529087  33.4172262  47.9100293
  25.0933080  32.6412788  47.1898819  26.8735943  33.4946930  48.0166334
  27.0869230  34.3762636  48.6211360  27.2279614  32.6042643  48.5359222
  27.5829441  33.6156147  46.6761370  27.0480790  34.3335213  46.0543410
  29.0000766  34.0810261  46.8730172  29.5357430  33.3633416  47.4943781
  29.4941039  34.1625506  45.9048273  28.9985205  35.0548451  47.3626849
  27.5890496  32.2920971  45.9316836  26.5630427  31.9708658  45.7521853
  28.1033516  32.4132596  44.9783136  28.1051426  31.5407971  46.5294254
  24.7025479  33.0843114  49.2430272  24.3864082  33.9815355  49.9720976
  24.5430863  31.8143354  49.6103853  24.9628704  30.6607697  48.8356444
  26.0236863  30.4604207  48.9860776  24.7703094  30.8182468  47.7744092
  24.0824318  29.5904652  49.4265523  24.5564782  28.6165391  49.3047036
  23.1165147  29.5895652  48.9214733  23.9307145  29.9427509  50.8564661
  24.7525389  29.6114144  51.4912257  22.9932695  29.5343671  51.2339831
  23.8668224  31.4697689  50.8441750  22.8460827  31.8318277  50.7212846
  24.4472105  32.0145712  52.1542006  23.6839336  32.1857213  53.0685704
  25.7609437  32.2228562  52.2096642  26.3290110  31.9898268  51.4077314
  26.4285617  32.7381105  53.4076101  25.8102789  32.5743162  54.2902181
  27.7513281  32.0010131  53.5952839  28.3731210  32.5687740  54.2874691
  27.6428467  30.9793707  53.9593973  28.5395645  31.9151284  52.2567858
  29.4160098  32.8618056  51.7239670  29.6213968  33.7648496  52.2987952
  29.8590561  32.4033719  50.4922071  30.5114434  32.8857913  49.8907407
  29.2868658  31.1939207  50.2308643  29.4488182  30.3528211  49.1406037
  30.1179628  30.6736770  48.3422331  28.7623559  29.1763537  49.1323617
  28.8660701  28.5090669  48.2767499  27.9376451  28.8031906  50.1772499
  27.3979816  27.8561664  50.1800525  27.7766961  29.6543325  51.2763505
  27.1591086  29.3033034  52.1030700  28.4496527  30.8633557  51.2986892
  26.6965166  34.2479130  53.3670324  27.4665580  34.7462760  54.1931314
  26.0798575  34.9792104  52.4508328  25.3885567  34.5629115  51.8434633
  26.3938103  36.3974113  52.2749320  27.4470287  36.5378400  52.0318067
  25.5560566  36.9232371  51.1238035  25.7365736  36.2163136  50.3140060
  24.5276625  36.8226047  51.4707599  25.7834389  38.3340757  50.6219743
  26.8098519  38.6171810  50.8552737  25.6427946  38.3378252  49.5410917
  24.8616856  39.2911409  51.2370922  23.8317890  38.9895667  51.0461343
  25.0338985  39.3333675  52.3125731  25.0739931  40.6457341  50.6678375
  24.4257583  40.9715487  49.9651741  26.0606414  41.4452201  51.0349687
  26.8696314  41.0034958  51.9818313  26.7160719  40.0916711  52.3881503
  27.6377854  41.5797395  52.2948525  26.2554833  42.6547423  50.4818189
  25.6332411  42.9809812  49.7562275  27.0232393  43.2318079  50.7943005
  26.0981955  37.1906244  53.5508246  26.8327996  38.1251486  53.8827499
  25.0655137  36.8024950  54.2969519  24.5194139  36.0019022  54.0124778
  24.6219440  37.5686808  55.4818782  24.9409992  38.6078299  55.4014280
  23.0901169  37.5314821  55.5717437  22.7709449  36.4925888  55.6549858
  22.7797572  38.0788109  56.4618044  22.4522447  38.1608140  54.3414326
  23.0355956  39.0495870  54.1008394  22.5429145  37.4370774  53.5314411
  21.0171965  38.5388015  54.5126876  20.9159496  39.0424343  55.4740418
  20.7550178  39.2299440  53.7116359  20.0892148  37.3409251  54.4699780
  20.1485838  36.8795976  53.4842028  20.4017303  36.6213595  55.2267201
  18.6564055  37.7721510  54.7420380  18.3664815  38.4385940  54.0406840
  18.0501504  36.9649586  54.7104891  18.6010922  38.1992672  55.6556086
  25.2598757  37.0964517  56.7848440  24.9365223  37.6377417  57.8579897
  26.1612200  36.1214881  56.7204284  26.2886834  35.6504062  55.8361580
  26.9383298  35.6645778  57.8646309  26.5306393  36.0782691  58.7869905
  26.9462929  34.1295659  57.9514005  27.2268616  33.7301285  56.9768076
  27.9261091  33.6360358  59.0015278  27.6459009  34.0347121  59.9765362
  27.9051924  32.5467599  59.0353101  28.9314781  33.9719107  58.7475195
  25.5452620  33.6243603  58.2730116  25.6344929  32.8323390  59.0165443
  24.9755761  34.4534745  58.6926868  24.8511178  33.1047638  57.0843664
  25.4200103  32.2752637  56.6643776  23.8572637  32.7571410  57.3663446
  24.7610955  33.8963991  56.3405187  28.3465439  36.2256936  57.7101379
  29.0403408  35.9424973  56.7252827  28.7619198  37.0531184  58.6655686
  28.1599673  37.2799573  59.4442192  30.0675135  37.6994125  58.5895339
  30.4502239  37.6577208  57.5697821  29.9381009  39.1736065  59.0057725
  29.2059204  39.2159890  59.8121313  30.9116244  39.4869371  59.3828348
  29.5056638  40.1064572  57.8763511  28.5201783  39.7836005  57.5406687
  29.4368485  41.1133784  58.2880260  30.4679102  40.1054103  56.6979719
  30.7279918  39.0744398  56.4580628  29.9741322  40.5638177  55.8411490
  31.7339945  40.8838424  57.0301571  31.4891986  41.6461602  57.7697835
  32.4663288  40.1937362  57.4491310  32.3035063  41.5352930  55.8148384
  31.6252249  42.1751228  55.4266995  33.1400228  42.0427101  56.0655733
  32.5308048  40.8290496  55.1295249  31.1311530  37.0205608  59.4483670
  32.3242160  37.2487466  59.2200320  30.7219672  36.1970013  60.4140837
  29.7546181  36.2374074  60.7016640  31.6083784  35.2565636  61.0953980
  32.3797725  35.7886594  61.6521065  30.7874530  34.4339198  62.0701526
  29.9650479  35.0275720  62.4693095  30.3870365  33.6132485  61.4749508
  31.5991893  33.8799145  63.2026262  32.7165207  33.3836635  62.9472532
  31.1436032  34.0030403  64.3640061  32.3513130  34.2978384  60.1705606
  31.7520411  33.3512355  59.6625635  33.6710699  34.4703065  60.0406897
  34.1584233  35.1991261  60.5420957  34.4358926  33.6346932  59.1146888
  34.0662594  33.7535209  58.0961848  35.9029480  34.0656794  59.1556439
  35.9491795  35.0936925  58.7962682  36.2223409  34.0307394  60.1972136
  36.8065373  33.2075625  58.3283720  36.9264735  32.2287763  58.7928004
  36.3969542  33.0856209  57.3256388  38.1579111  33.8960032  58.2427017
  38.4548216  33.9301665  57.1944766  38.0451037  34.9119574  58.6211340
  39.2212293  33.1734886  59.0452902  39.0247951  33.3233858  60.1069139
  39.1752352  32.1091865  58.8145423  40.5896060  33.7002795  58.7096514
  40.6325708  34.6863806  58.9237973  41.2830016  33.2070638  59.2537477
  40.7719945  33.5610905  57.7260560  34.3001470  32.1475848  59.4463810
  34.1784057  31.2961394  58.5432831  34.3655849  31.8074354  60.7328297
  34.5098965  32.4897198  61.4634196  34.3056905  30.4034540  61.1033357
  35.0260888  29.8331983  60.5168768  34.6402488  30.2327610  62.5923030
  35.5076695  30.8504918  62.8248738  33.7863433  30.5705323  63.1795474
  34.9456728  28.7835318  62.9306681  34.1397579  28.1857477  62.5049262
  35.8875488  28.5166443  62.4513562  35.0426607  28.5129431  64.4236548
  35.1596063  29.4738387  65.2233231  35.0165271  27.3202737  64.7898702
  32.9406153  29.8100786  60.7771372  32.8529926  28.6829816  60.2803670
  31.8659696  30.5616525  61.0450834  31.9641895  31.4527779  61.5102153
  30.5247156  30.1151558  60.6810006  30.2963860  29.1763355  61.1855611
  29.4879916  31.1578987  61.0971310  29.9077143  32.1108780  60.7750090
  28.6070078  30.9283295  60.4977434  29.0909780  31.2482755  62.5741338
  29.9789542  31.5111065  63.1490415  28.3489085  32.0408867  62.6700631
  28.5100042  29.9714190  63.1390018  29.0155503  29.4296386  64.1185830
  27.4382429  29.4837284  62.5284607  27.0116489  28.6329237  62.8664701
  27.0536552  29.9654169  61.7283546  30.4216963  29.8970614  59.1804968
  29.8663765  28.8926044  58.7176230  30.9551682  30.8387798  58.3997028
  31.4041307  31.6547078  58.7905909  30.8443480  30.7387212  56.9472166
  29.8052580  30.6279522  56.6371820  31.4232084  31.9976850  56.2834578
  32.4055855  32.2182615  56.7010467  31.5567097  31.7386136  54.7436109
  30.5745975  31.5184080  54.3252019  31.9667832  32.6250574  54.2597127
  32.2217329  30.8919280  54.5734072  30.5774864  33.1704697  56.5254318
  30.5025897  33.3500032  57.5979337  31.0174515  34.0424209  56.0414573
  29.5827184  32.9921998  56.1170724  31.5556857  29.4828700  56.4612389
  31.0698312  28.7755448  55.5694545  32.7146720  29.1771814  57.0543403
  33.1212312  29.7833680  57.7524425  33.4231300  27.9541636  56.7051459
  33.6671866  27.9987237  55.6437553  34.3436080  27.9210898  57.2880059
  32.6214474  26.6928303  56.9753928  32.5709477  25.7909597  56.1242076
  31.9409730  26.6321604  58.1240301  32.0253971  27.3507697  58.8287092
  31.1057427  25.4706387  58.4163720  31.6824960  24.5624643  58.2412318
  30.6207226  25.4697606  59.8685675  29.8265930  26.2135397  59.9337602
  30.2070351  24.4796082  60.0597765  31.6667178  25.7727132  60.8792260
  32.5379577  25.1373462  60.7200067  31.9634608  26.8192843  60.8104175
  30.9940563  25.4548234  62.5187267  30.2346736  27.0362838  62.8506708
  29.4784559  27.2429106  62.0933472  29.7664633  27.0156841  63.8347722
  30.9948511  27.8170929  62.8268289  29.9195920  25.3988716  57.4752817
  29.5459219  24.3036943  57.0358008  29.3159166  26.5528541  57.1484756
  29.5536059  27.4249304  57.5991264  28.2152192  26.5464636  56.1919708
  27.4283176  25.8422133  56.4620012  27.6110410  27.9601680  56.0412168
  28.4227060  28.6784120  55.9253474  26.6730736  28.0331281  54.8009878
  25.8608445  27.3154408  54.9163537  26.2598347  29.0381667  54.7159477
  27.2408364  27.7969354  53.9010113  26.8948070  28.3849791  57.3177427
  25.8964522  27.9478116  57.3012143  27.4531111  27.9826401  58.1630351
  26.7808625  29.9410856  57.4606663  26.2222426  30.3441212  56.6159142
  26.2620624  30.1842835  58.3879206  27.7789022  30.3789500  57.4777328
  28.6810749  25.9788673  54.8596859  28.0006843  25.1432158  54.2579309
  29.8375022  26.4451831  54.3595625  30.3866003  27.1482889  54.8330948
  30.3013407  25.9634219  53.0514906  29.5070312  26.0870506  52.3153605
  31.5219875  26.7402975  52.5842673  32.2520302  26.7079774  53.3930271
  31.9209296  26.2186193  51.7143265  31.2315732  28.2031941  52.2150979
  30.7957933  28.2505094  51.2171209  30.5354811  28.6325198  52.9356791
  32.5206621  28.9822407  52.2371873  32.8448309  29.0898279  53.2722905
  33.2729446  28.4266542  51.6772818  32.3376497  30.3901503  51.6026836
  32.0651936  30.2387333  50.5582023  31.5129667  30.8736624  52.1263372
  33.5600678  31.2622069  51.6800734  34.3242382  30.8145520  51.1945340
  33.3646012  32.1548303  51.2498218  33.8124485  31.4029881  52.6478459
  30.6231505  24.4852836  53.0930093  30.3734248  23.7647390  52.1195339
  31.2081614  24.0314455  54.1998676  31.4541332  24.6664926  54.9457312
  31.5516162  22.6233951  54.3500334  32.2243208  22.3102173  53.5516053
  32.2521136  22.4127523  55.6881014  32.9481988  23.2413423  55.8184974
  31.4850595  22.4582030  56.4611876  33.0002768  21.1050142  55.7978373
  32.3147693  20.3216222  55.4746077  33.8675283  21.1232703  55.1378065
  33.4520835  20.8263799  57.2176128  32.6094075  20.4141732  58.0536906
  34.6471815  21.0548591  57.4977626  30.3121882  21.7420837  54.2565808
  30.3605079  20.6464855  53.6828075  29.2014860  22.1915199  54.8399484
  29.2126497  23.0904059  55.3003597  27.9707414  21.4201553  54.8649538
  28.1965247  20.3538000  54.8622229  27.1769255  21.7486911  56.1313734
  26.9606653  22.8166903  56.1047569  26.2436720  21.1880928  56.0778249
  27.8956355  21.4109157  57.4231101  28.8772997  21.8843323  57.4054220
  27.3153289  21.8099611  58.2550410  28.0595506  19.9184761  57.5938176
  27.0871526  19.4321055  57.5164560  28.7213141  19.5317876  56.8188076
  28.6612062  19.6340148  58.9624820  29.5710043  20.2275561  59.0523522
  27.9406252  19.9585946  59.7131551  28.9790008  18.2192325  59.1707188
  29.6470209  17.9183825  58.4754935  29.3730537  18.0948175  60.0923170
  28.1360229  17.6691145  59.0879082  27.0789103  21.6771792  53.6567712
  26.1248752  20.9363056  53.4501235  27.3272814  22.7279187  52.8944404
  28.1555110  23.2901927  53.0285409  26.3789335  23.1295645  51.8629958
  25.3649628  23.0855221  52.2605167  26.6607887  24.5706848  51.3898149
  26.8714534  25.1611727  52.2814671  27.5272654  24.5899828  50.7287961
  25.4612083  25.1557181  50.6679204  24.3816129  25.6439091  51.3768086
  24.4285554  25.6188895  52.4655096  23.2631458  26.1543039  50.7447512
  22.4439828  26.5718574  51.3301766  23.2146887  26.1910474  49.3652996
  22.0613112  26.6703396  48.7691433  21.3929651  26.9360428  49.4050011
  24.2729096  25.6982137  48.6233875  24.2268406  25.7191399  47.5345624
  25.4004142  25.1737893  49.2662844  26.2294273  24.7802807  48.6780767
  26.4246542  22.1880399  50.6699200  27.5005589  21.8302141  50.1859791
  25.2495213  21.8509708  50.1545286  24.3932106  22.0966203  50.6304358
  25.1569929  21.0758995  48.9102232  25.9495890  20.3280756  48.8847284
  23.8084442  20.3620252  48.8133800  23.7475276  19.6571551  49.6425643
  23.0276434  21.1151708  48.9193136  23.6156500  19.6024192  47.4739715
  22.7788915  18.9352422  47.6808791  23.3600839  20.2573711  46.6410110
  24.8233496  18.7923083  47.1189616  25.0658309  17.8046550  47.8387594
  25.6032788  19.1940099  46.2014867  25.3572185  22.0170226  47.7328595
  24.4155669  22.6803253  47.2769398  26.5941452  22.0690523  47.2150456
  27.3397863  21.4709691  47.5412591  26.9016289  23.0620062  46.1946828
  26.6261832  24.0597950  46.5362182  28.3932128  23.0388491  45.9179948
  28.7898517  22.0240683  45.8864238  28.5808980  23.5315949  44.9640158
  29.1845560  23.7728163  46.9382815  29.2022494  23.4171096  48.2742927
  29.9424691  24.2891907  48.9391854  30.0770840  24.1940614  50.0166492
  30.4136824  25.1853947  48.0766644  31.0081314  25.9713156  48.2981563
  29.9587056  24.8706287  46.8175534  30.2491880  25.4833192  45.9641300
  26.1100362  22.8398009  44.8998478  25.9740362  23.7812043  44.0956185
  25.5722041  21.6332955  44.6889514  25.7806977  20.8351871  45.2717487
  24.7416544  21.4271117  43.5004727  25.2539698  21.8116926  42.6185829
  24.4683398  19.9332588  43.2954860  24.0667534  19.5189632  44.2202490
  23.7355779  19.8160045  42.4971055  25.7625643  19.1868058  42.9180688
  26.0255130  19.4801991  41.9017621  26.5427999  19.5163174  43.6041858
  25.6289391  17.6564901  42.9911384  25.3307382  17.3312783  43.9878392
  24.9120588  17.2852762  42.2587571  26.9324896  17.0967377  42.6903887
  27.1607258  16.9500199  41.7175159  27.8183418  16.7330823  43.6111083
  27.5215156  16.8289792  44.8960355  26.6173616  17.1802578  45.1774763
  28.2003108  16.5505103  45.5901477  29.0200329  16.3106826  43.2486911
  29.2619104  16.2655583  42.2691203  29.6890841  16.0356095  43.9535344
  23.4625069  22.2520751  43.5921946  22.8694733  22.5590855  42.5593786
  23.0674233  22.6499417  44.8112976  23.5482610  22.3300941  45.6399060
  21.9071225  23.5094605  44.9765202  21.0520201  23.0852396  44.4502733
  21.5517581  23.6401522  46.4654416  22.4876339  23.7972231  47.0016920
  20.9238186  24.5255760  46.5645211  20.8221273  22.4279648  47.0558434
  19.8846082  22.2579458  46.5264548  21.4476215  21.5384527  46.9808284
  20.4612828  22.7687719  48.8367844  19.6667277  21.2615449  49.3679115
  20.3481447  20.4223202  49.2283699  19.4013869  21.3420556  50.4220523
  18.7646864  21.0984141  48.7781564  22.1730050  24.8889310  44.3654583
  21.2424749  25.5695155  43.9198659  23.4379423  25.2958909  44.3351534
  24.1557681  24.7430735  44.7814922  23.8213778  26.5588039  43.7209881
  23.2150227  27.3604687  44.1426115  25.2996385  26.8831858  43.9639010
  25.7913939  26.0186807  43.5179113  25.5922789  27.7847459  43.4257087
  25.7151808  27.0061751  45.4222697  25.3848799  26.1130707  45.9527099
  27.2181256  27.1483421  45.5598760  27.5491346  28.0415440  45.0300437
  27.4804783  27.2338696  46.6143697  27.7069775  26.2719815  45.1342985
  24.9736666  28.1350097  46.1387689  23.9011000  27.9434756  46.1069075
  25.3026101  28.1850540  47.1767443  25.1878827  29.0824342  45.6442012
  23.5601090  26.5851385  42.2431247  23.5238187  27.6714865  41.6579434
  23.4613946  25.4083317  41.6065728  23.5166066  24.5552661  42.1444668
  23.3759198  25.3064113  40.1648637  23.6391757  26.2554694  39.6978688
  24.3528687  24.2399009  39.6847798  23.9761532  23.3068241  40.1037696
  24.2984933  24.1972165  38.5969740  25.8148227  24.4422173  40.1170789
  25.8874362  24.4049938  41.2040207  26.6889738  23.2982543  39.4956986
  26.6172282  23.3351277  38.4086881  27.7285110  23.4310641  39.7954062
  26.3296796  22.3322550  39.8504569  26.3751662  25.8247798  39.6923880
  25.7787336  26.6148527  40.1486253  27.4100824  25.9149123  40.0224271
  26.3310175  25.9175378  38.6072402  21.9560882  25.0312819  39.6679660
  21.7541732  24.8149642  38.4692013  20.9618501  25.1402321  40.5454975
  21.1420563  25.4073764  41.5027116  19.5825171  24.8213413  40.1602323
  19.5198950  23.7890493  39.8159201  18.6501109  24.9935666  41.3620323
  19.0978071  24.4418299  42.1886241  18.6377610  26.0571529  41.6002163
  17.2280713  24.5080624  41.1410234  16.8048256  25.0169459  40.2749971
  17.2389902  23.4331365  40.9606979  16.3743724  24.8097023  42.3782774
  16.7738214  24.2388693  43.2165430  16.4515212  25.8750995  42.5952485
  14.9064689  24.4387053  42.1627097  14.3381220  24.8144662  43.0135247
  14.5667392  24.9330856  41.2526157  14.6975659  22.9676593  42.0364946
  15.0119059  22.5094082  42.8798783  13.7155196  22.7779061  41.8962131
  15.2237850  22.6193413  41.2479092  19.1117296  25.6884291  39.0053458
  18.3875543  25.2082770  38.1241681  19.5186163  26.9558999  38.9819827
  20.0351996  27.3139720  39.7725682  19.1567714  27.8824002  37.9155646
  18.5216041  27.3772103  37.1879350  18.3935955  29.0812455  38.4816867
  19.0460935  29.6620429  39.1336223  18.0212708  29.7187567  37.6797803
  17.2079326  28.6901110  39.3022100  16.0587859  28.1615141  38.7442063
  15.1898710  27.8959833  39.7050987  14.2165495  27.4650561  39.4704797
  15.7300442  28.2396134  40.8613436  15.2936322  28.1535963  41.7681212
  16.9916549  28.7378123  40.6374971  17.6009180  29.0755417  41.4758518
  20.3524267  28.3347381  37.0895381  20.3212356  29.4129175  36.4845510
  21.4259921  27.5386469  37.0731910  21.4060312  26.7479034  37.7012241
  22.6112904  27.7337168  36.2433129  22.5966933  28.7386784  35.8214857
  23.9007856  27.5637034  37.0631756  23.9028529  26.5487643  37.4606595
  24.7405001  27.6872215  36.3792730  24.0302193  28.5608614  38.2132181
  23.0887358  28.5693555  38.7624335  24.8302944  28.2192863  38.8699588
  24.4021080  30.2365249  37.6452773  26.1686735  30.2064788  37.2970166
  26.3756415  29.4603900  36.5298043  26.4867151  31.1875436  36.9442247
  26.7144543  29.9532900  38.2059281  22.6248627  26.7327735  35.0942362
  21.9410131  25.7059933  35.1491362  23.3995936  26.9933735  34.0383225
  24.2256977  28.1832719  33.7371784  25.1973035  28.0979395  34.2238003
  23.7236005  29.0859420  34.0852935  24.3232418  28.1238467  32.2427127
  25.1583175  28.7146438  31.8662737  23.4012076  28.4519604  31.7628212
  24.5482172  26.6538370  32.0239968  25.5692053  26.4011220  32.3100342
  24.3627551  26.3155695  31.0045467  23.5576308  25.9865176  32.9847702
  22.5786024  25.8050195  32.5413065  24.1245940  24.6757646  33.5162328
  25.0396690  24.6609462  34.3421063  23.6133299  23.5551475  32.9902723
  22.9566887  23.5495476  32.2228805  23.9600693  22.2781952  33.6162495
  23.8011588  22.3353592  34.6930870  23.0802082  21.1591001  33.0503030
  23.3936325  20.2058224  33.4758922  22.0405278  21.3506394  33.3157788
  23.2043371  21.1109999  31.6573754  22.6503245  20.4077283  31.3108514
  25.4397922  21.9288246  33.4569629  25.9722236  21.1396532  34.2489196
  26.1144459  22.5232267  32.4737038  25.6296591  23.1143721  31.8136824
  27.5471337  22.3189051  32.2961553  27.7680657  21.2644275  32.1307308
  28.0098567  23.1160412  31.0672760  27.5148465  24.0865642  31.1011768
  29.0874570  23.2551566  31.1540195  27.6994491  22.4469313  29.7775519
  26.6446721  22.1732406  29.7522617  27.9051228  23.1719927  28.9900981
  28.5425414  21.2169799  29.5600941  29.7242962  21.3870649  29.1818511
  28.0463653  20.1070019  29.7947684  28.3332818  22.7527852  33.5235429
  29.4717603  22.2989771  33.7211737  27.7728068  23.6437279  34.3485652
  26.8802557  24.0735090  34.1517403  28.4994127  24.0785567  35.5205468
  29.4932893  24.4274099  35.2401721  27.7462166  25.2335952  36.1943507
  26.6699242  25.1701272  36.0341455  27.9549661  25.2242581  37.2641340
  28.1770921  26.5756453  35.6851270  27.8950244  26.9823791  34.4053163
  27.3315315  26.3185751  33.7496183  28.3252326  28.2443168  33.9335566
  28.1435774  28.5504380  32.9033178  28.9950114  29.1070448  34.8139014
  29.3152502  30.0924629  34.4755258  29.2436395  28.7139414  36.0860955
  29.7585779  29.3991375  36.7594787  28.8515385  27.4541707  36.5388513
  29.0705778  27.1504301  37.5625032  28.7452163  22.9377036  36.4981658
  29.6411515  23.0575060  37.3382137  27.9744920  21.8667333  36.3701395
  27.2043087  21.8462116  35.7170729  28.1894066  20.6892128  37.2374889
  28.1532113  21.0011449  38.2812741  27.1329896  19.6292538  37.0126361
  26.8451119  19.5413500  35.9650204  27.4865173  18.6635795  37.3740104
  25.9007383  19.9362418  37.7648329  24.8322051  20.5198130  37.1919434
  23.8993887  20.6748729  38.0807111  22.9349844  21.1034916  37.8081136
  24.3489905  20.2472692  39.2192888  23.8498237  20.2749729  40.0968792
  25.5918231  19.7569280  39.0529133  26.1250686  19.3247370  39.8996490
  29.5759063  20.1730160  36.9477552  30.2737576  19.7567584  37.8375771
  30.0231333  20.2997381  35.6860747  29.4059596  20.6158076  34.9517070
  31.4180812  19.8956638  35.3168793  31.5921016  18.8719416  35.6482535
  31.6532201  19.9674065  33.8043963  31.5431759  21.0383035  33.6336062
  32.6955821  19.6824605  33.6616122  30.7776597  19.2028211  32.8169116
  29.9101948  19.8054900  32.5478471  31.5919097  18.9045356  31.5715006
  32.4593584  18.3014668  31.8397163  30.9767548  18.3576592  30.8569297
  31.9252860  19.8399325  31.1220639  30.2049563  17.9388574  33.3777331
  29.5883353  18.1724997  34.2456555  29.5938494  17.4486441  32.6198806
  31.0150093  17.2736147  33.6766734  32.6359079  20.6420849  35.9617201
  33.6613268  20.2098763  36.5766037  32.3393128  21.9375225  36.1309968
  31.4611829  22.2584381  35.7488968  33.2368752  22.9321099  36.7562853
  34.2546143  22.8275840  36.3802791  32.7242288  24.3346804  36.4007779
  32.7498520  24.4406854  35.3162478  31.6900849  24.3646716  36.7439208
  33.4037087  25.5561783  36.9701951  34.5752285  25.4830886  37.6845180
  35.0186960  24.5028886  37.8595734  35.1907147  26.6177830  38.1772282
  36.1210062  26.5426754  38.7402711  34.6243305  27.8406636  37.9538940
  35.1031733  28.7433158  38.3334048  33.4586222  27.9304537  37.2552339
  33.0000123  28.9073087  37.1018347  32.8583157  26.7984929  36.7434421
  31.9451216  26.8847273  36.1545957  33.2654331  22.6232339  38.2523428
  34.2895218  22.4997124  38.8078839  32.0893645  22.4783692  38.8483486
  31.2166243  22.5962897  38.3538603  32.0400443  22.1803735  40.3021970
  32.5342789  22.9651672  40.8748489  30.5765454  22.1098085  40.7330712
  30.2509916  23.1480462  40.6684466  30.0253935  21.5109537  40.0080163
  30.3089085  21.5800660  42.1376325  30.7028092  20.5662323  42.2089370
  30.9644180  22.4468807  43.1785285  30.5706592  23.4608328  43.1081439
  30.7565390  22.0449599  44.1701669  32.0415387  22.4636054  43.0123012
  28.8369661  21.4625255  42.3879880  28.3983509  20.7762140  41.6636312
  28.6684707  21.0828305  43.3957291  28.3712994  22.4428664  42.2870663
  32.7699960  20.8676744  40.6144315  33.5850944  20.8455140  41.4925713
  32.4170162  19.8159825  39.8951490  31.6651545  19.8685128  39.2228069
  33.0205866  18.4903664  40.1725998  32.9510224  18.2731900  41.2384771
  32.2984639  17.3921451  39.4041789  32.2649003  17.6308691  38.3411720
  32.8784210  16.4813790  39.5533600  30.8900546  17.1831669  39.9188442
  30.6360719  17.5807129  41.0442432  30.0891316  16.6853393  39.1872705
  34.5235496  18.5125658  39.9191131  35.2278305  17.8497528  40.6145383
  34.9573665  19.2797440  38.9318449  34.3443409  19.7915491  38.3134967
  36.3872986  19.3317112  38.6820159  36.7859925  18.3198083  38.6099393
  36.6768093  20.0644785  37.3741988  36.2050594  19.5910678  36.5131334
  36.3202168  21.0905125  37.4647317  38.1323001  20.1445462  37.0718997
  38.9017060  19.0337141  36.8021454  40.1490822  19.4091089  36.5884250
  40.9147486  18.6722053  36.3458824  40.2210196  20.7185964  36.7243495
  41.0521878  21.2820155  36.6156381  38.9718433  21.2058860  37.0415177
  38.8300460  22.2732970  37.2107170  37.1308012  19.9902588  39.8327756
  38.0988501  19.4174055  40.3533103  36.7132054  21.2008881  40.2234397
  35.9579474  21.6939046  39.7688856  37.4743332  21.8992034  41.2510049
  38.5529701  21.7923617  41.1359979  37.1138105  23.3925055  41.3405448
  37.6973268  23.8695316  42.1279807  37.4374075  24.0579794  39.9858480
  36.8538807  23.5817600  39.1979317  37.1874718  25.1179234  40.0322334
  38.4996964  23.9448342  39.7694232  35.6724095  23.6186637  41.8159947
  34.9953154  23.1055435  41.1330949  35.5652724  23.1993448  42.8163910
  35.3303730  25.1074447  41.8488440  35.4368405  25.5273897  40.8486387
  34.3031299  25.2373440  42.1894273  36.0067996  25.6211915  42.5319335
  37.3406555  21.1870620  42.5950803  38.3101378  21.1239930  43.3596372
  36.1766854  20.5888819  42.8793429  35.3681504  20.7173928  42.2878571
  36.0346678  19.7709328  44.0723912  36.2473733  20.3752958  44.9542081
  34.5947832  19.2577890  44.1664801  34.3698202  18.6432860  43.2947704
  34.4797746  18.6604305  45.0709336  33.9084894  20.1039111  44.2007963
  37.0059867  18.5936200  44.0724377  37.3827186  18.1063728  45.1458646
  37.3899823  18.1017502  42.8914718  37.0443375  18.4913649  42.0261225
  38.2666083  16.9433438  42.8244526  38.0403833  16.2600602  43.6430153
  38.0683227  16.1948081  41.4873449  38.3370645  15.1474814  41.6251270
  37.0207020  16.2650864  41.1946814  38.8831443  16.7629167  40.4705360
  38.7474699  16.2864162  39.6482590  39.7388257  17.2760213  42.9934692
  40.5510624  16.3464913  43.1318975  40.1142756  18.5517266  42.8984827
  39.4097822  19.2669363  42.7877421  41.5095794  18.9517735  42.8822760
  42.1039612  18.1879876  42.3808374  41.6883615  20.2889690  42.1302554
  41.1430838  21.0532533  42.6840071  42.7567958  20.4994409  42.1776872
  41.2315690  20.2947201  40.6681013  40.2330314  19.8615823  40.6096620
  41.2023719  21.6949249  40.1239882  42.2007245  22.1285878  40.1816720
  40.8751501  21.6745778  39.0844630  40.5100297  22.2988488  40.7105362
  42.2244206  19.5018804  39.8719281  42.2624108  18.4806398  40.2510373
  41.9235942  19.4890449  38.8243404  43.2100381  19.9587809  39.9608051
  42.0994832  19.0709538  44.2783503  41.3989892  19.3334617  45.2481012
  43.4210801  18.8903094  44.3641139  43.9315613  18.5142427  43.5779319
  44.1550843  19.1816959  45.5889309  43.4684101  19.5588908  46.3467579
  44.8330161  17.9235240  46.1274787  45.3836634  18.1949496  47.0281534
  44.0573372  17.2007313  46.3804471  45.7904041  17.3071126  45.1131877
  46.4901115  16.3225892  45.4558190  45.8550501  17.7981067  43.9677639
  45.1848366  20.2692433  45.2988188  45.3199688  20.7249189  44.1651553
  45.9473779  20.6475435  46.3300340  45.7666704  20.2941796  47.2587848
  47.0085393  21.6441352  46.1600450  46.5797544  22.6029953  45.8687890
  47.7653147  21.8268357  47.4792749  47.0972711  22.2735791  48.2156426
  48.0014658  20.8050399  47.7763711  49.0466874  22.6396986  47.3993451
  50.2557859  22.0524525  47.0210913  50.2731605  20.9868870  46.7922509
  51.4219966  22.8001089  46.9339626  52.3658397  22.3165575  46.6820894
  51.3886401  24.1527276  47.1930208  52.5520505  24.8853108  47.0887179
  53.3088469  24.3529914  46.8327983  50.1886240  24.7716346  47.5288472
  50.1523761  25.8449782  47.7151800  49.0331607  24.0119250  47.6257335
  48.0875830  24.4885800  47.8841575  47.9771826  21.3046806  45.0409384
  48.5157155  22.2054129  44.3855419  48.2219958  20.0310298  44.8018837
  47.7041294  19.2879953  45.2488888  49.3246717  19.6719632  43.9253645
  50.1204832  20.4136684  43.9936041  49.8844367  18.3159650  44.3461471
  49.1770741  17.5030007  44.1823596  50.7911779  18.1293881  43.7707259
  50.2767657  18.2594771  45.7985940  51.3862790  18.9499151  46.2586915
  51.9714699  19.5411803  45.5543785  51.7552788  18.8966298  47.5913700
  52.6565558  19.4070735  47.9308516  50.9776882  18.1937905  48.4929812
  51.2533190  18.1623733  49.5470877  49.8443722  17.5277129  48.0527079
  49.2212946  16.9776422  48.7579005  49.5052788  17.5633057  46.7109423
  48.6179041  17.0372353  46.3589252  48.9431085  19.6508676  42.4498763
  49.8015625  19.9071539  41.5997679  47.6820120  19.3784446  42.1219339
  46.9800748  19.3277629  42.8463750  47.2838341  19.0730936  40.7479437
  48.0902083  18.6012403  40.1865041  46.0730694  18.1343697  40.7483592
  45.2430963  18.6482805  41.2332723  45.6638404  17.7292187  39.3335669
  46.4932063  17.2148051  38.8481490  44.8018175  17.0637860  39.3806297
  45.4040643  18.6195454  38.7609105  46.3814633  16.9667286  41.5300756
  45.6254768  16.3750585  41.5334150  46.9820368  20.3325040  39.9372464
  46.2206477  21.2052413  40.3781515  47.5658437  20.4108877  38.7421269
  48.2444304  19.7294513  38.4334784  47.2475574  21.5249825  37.8506430
  47.4153469  22.4661028  38.3743207  48.1193109  21.5017529  36.5977790
  49.1519800  21.3751656  36.9228475  47.8162969  20.6372071  36.0071497
  48.0059754  22.7547111  35.7533391  46.9756965  22.8490917  35.4102375
  48.2622653  23.6141869  36.3727897  48.9429690  22.7000719  34.5443633
  49.9690753  22.5640487  34.8859807  48.6603221  21.8651003  33.9032449
  48.8368177  24.0142608  33.7510427  47.7761021  24.2144740  33.5997229
  49.2696783  24.8001211  34.3700373  49.5265412  23.9835276  32.4370907
  49.1253021  23.2556808  31.8632040  49.4141078  24.8755470  31.9769166
  50.5095144  23.7984429  32.5771135  45.7827974  21.4665094  37.4419071
  45.2944445  20.4066863  37.0336503  45.0290414  22.5577666  37.5841589
  45.3259890  23.7406426  38.4064760  46.0213804  24.3879461  37.8721266
  45.7753392  23.4239361  39.3476882  43.9901843  24.3710922  38.5986736
  44.1066616  25.4548153  38.6074176  43.5760825  24.0429891  39.5520724
  43.1287634  23.9231626  37.4595901  43.2719183  24.5943001  36.6127253
  42.0685418  23.8730213  37.7076138  43.6497726  22.5277135  37.1110369
  43.1265563  21.7376086  37.6496251  43.5530178  22.2712676  35.6187742
  44.4775452  22.5393161  34.8428275  42.4093712  21.7292059  35.2186548
  41.7553968  21.3581430  35.8929908  42.0960173  21.5867361  33.7993252
  43.0179361  21.5393523  33.2197395  41.3000971  20.3063307  33.5557432
  41.7969565  19.4939491  34.0860883  40.3054313  20.4583692  33.9748188
  41.1802010  19.9512411  32.0851803  41.4046195  20.7984454  31.1923056
  40.8598845  18.7852071  31.8205900  41.3437561  22.8507933  33.3962377
  40.1150118  22.8889185  33.3281282  42.1170007  23.9276682  33.1711170
  43.1195691  23.8864813  33.2862669  41.5153498  25.2037266  32.8024612
  40.8340190  25.5330890  33.5869406  42.5959895  26.2647074  32.6182013
  43.1829360  26.0086113  31.7361538  42.0443624  27.1861808  32.4319373
  43.5189560  26.4605590  33.7970690  43.1595728  27.2770853  34.8446655
  42.1915148  27.7764606  34.8048220  44.0044113  27.4739359  35.9443876
  43.7259800  28.1292572  36.7696947  45.2232532  26.7800098  35.9801077
  46.0732227  26.9542898  37.0485530  45.7318704  27.5678687  37.7032278
  45.5785490  25.9576301  34.9504843  46.5377654  25.4407948  34.9802475
  44.7315354  25.7786188  33.8762185  45.0070852  25.0953988  33.0728613
  40.6912633  25.0806909  31.5357608  39.6305051  25.7034902  31.4128998
  41.1842787  24.3079987  30.5779530  42.0887408  23.8716975  30.6860677
  40.4654551  24.1023518  29.3341029  40.3016108  25.0561452  28.8325728
  41.2849169  23.1934920  28.4050189  42.3061240  23.5696672  28.3439655
  41.2946482  22.1814843  28.8097978  40.6921728  23.1780505  27.0719619
  41.3384234  22.5771981  26.4320890  39.6974928  22.7333578  27.1029821
  40.5840124  24.5508238  26.4878825  41.5981660  25.2429707  26.3344642
  39.3476522  24.9813576  26.1873027  39.2191052  25.9011911  25.7904610
  38.5521875  24.3832895  26.3594998  39.0878718  23.4916788  29.5611000
  38.1389805  23.8067573  28.8309988  38.9756729  22.5509671  30.5067394
  39.7841090  22.1897642  30.9926024  37.6697000  21.9777125  30.8154544
  37.2255947  21.5561232  29.9137160  37.8152321  20.8632555  31.8565941
  38.4887967  20.1223748  31.4258903  38.3125057  21.3674019  32.6852408
  36.5617845  20.1729532  32.3635814  35.8880391  20.9271480  32.7702238
  35.8694570  19.4274697  31.2569043  36.5424658  18.6727357  30.8500449
  34.9751457  18.9428272  31.6486051  35.5880464  20.1255354  30.4684801
  36.9689774  19.1402498  33.4185770  37.4760551  19.6423445  34.2425142
  36.0798314  18.6339620  33.7943340  37.6412779  18.4083712  32.9708441
  36.7260135  23.0592868  31.3072296  35.5856020  23.1532035  30.8446755
  37.2173707  23.9334436  32.1778726  38.1436033  23.8416182  32.5699956
  36.3560512  25.0078812  32.6758731  35.3989636  24.5797147  32.9737927
  36.9977051  25.7084336  33.8773520  37.9432686  26.1564970  33.5719846
  36.0444195  26.8200068  34.4087621  35.0987466  26.3726157  34.7147759
  36.5045459  27.3159408  35.2634164  35.8619974  27.5503427  33.6204533
  37.2598254  24.7026174  35.0017526  36.3025716  24.5062978  35.4846860
  37.6245542  23.7881051  34.5340565  38.2582285  25.1725331  36.0351549
  37.8939441  26.0868174  36.5036430  38.3856814  24.4014454  36.7949435
  39.2159266  25.3686270  35.5530126  36.0219113  25.9823912  31.5449842
  34.8744292  26.4316571  31.4098698  37.0016108  26.3131379  30.6990164
  37.9561649  26.0096928  30.8288121  36.7027487  27.1983244  29.5753241
  36.3054554  28.1439777  29.9441017  37.9693493  27.4817213  28.7709466
  38.7096322  27.8498717  29.4812603  38.2986917  26.5243316  28.3671662
  37.8113100  28.4969960  27.6212737  38.7694758  28.5482159  27.1041706
  37.0545131  28.1004086  26.9444584  37.3280111  30.1611060  28.1449619
  38.7857581  30.7356748  29.0066669  39.6351048  30.7377457  28.3235089
  38.6150382  31.7467517  29.3763680  38.9969628  30.0732508  29.8461240
  35.6237841  26.5907220  28.6844006  34.6785396  27.2820509  28.2832497
  35.7251449  25.2888999  28.3945346  36.5403827  24.7488299  28.6471429
  34.6741109  24.6348960  27.5979497  34.5023539  25.1996889  26.6816487
  35.0890488  23.2040330  27.2222536  35.2075482  22.6224171  28.1364637
  34.3036895  22.7611743  26.6097285  36.3252819  23.2021436  26.4902057
  36.5636317  22.2993757  26.2670478  33.3060297  24.6271994  28.2852631
  32.2844071  24.6625652  27.5947462  33.2458500  24.5943352  29.6258049
  34.0584877  24.4049511  30.1948857  31.9579750  24.7763936  30.2947875
  31.1991294  24.0471733  30.0110793  32.1291947  24.7386204  31.8257294
  33.0392657  25.2855709  32.0721339  30.8947186  25.3828095  32.6043924
  29.9842959  24.8360624  32.3588337  31.0728506  25.3271862  33.6782991
  30.7823834  26.4259338  32.3088014  32.4051666  23.3123158  32.2703537
  33.3174843  22.9528824  31.7943431  32.5262526  23.2857597  33.3532815
  31.5700398  22.6735482  31.9828818  31.3298237  26.0789848  29.8569166
  30.1441604  26.1349650  29.4975714  32.1199040  27.1579531  29.9044297
  33.0580303  27.1054947  30.2749247  31.6123472  28.4601195  29.4900062
  30.6826265  28.6788822  30.0152314  32.6337814  29.5640399  29.8175314
  33.5592091  29.4322559  29.2568926  32.1909045  30.5275671  29.5653897
  33.0194761  29.6340191  31.2797788  32.1081457  29.2679201  32.2986450
  31.0989093  28.9655183  32.0191905  32.4859923  29.2896767  33.6529898
  31.7834029  28.9710582  34.4230230  33.7694395  29.7223954  34.0114571
  34.0642342  29.7848249  35.0589773  34.6763175  30.0762938  33.0076349
  35.6821981  30.3957313  33.2801491  34.2932626  30.0214892  31.6364466
  35.0099094  30.2872285  30.8593365  31.2649423  28.4636618  28.0118380
  30.1800791  28.9044073  27.6125546  32.1750020  27.9631916  27.1881767
  33.0744387  27.6467700  27.5213288  31.9448114  27.9994417  25.7498206
  31.6320045  28.9993735  25.4491756  33.2185190  27.6447302  25.0036940
  33.6798157  26.7709003  25.4638308  32.9824265  27.4244598  23.9626170
  34.1820249  28.8180297  25.0668976  33.6875949  29.6347088  24.5408986
  34.3280723  29.0947073  26.1110330  35.5080490  28.5484504  24.4332809
  35.8258270  27.3556910  24.2447308  36.2370152  29.5305038  24.1627585
  30.7606752  27.1393738  25.3388565  29.9180695  27.5917368  24.5561214
  30.6277386  25.9350072  25.9123816  31.3429793  25.5399173  26.5060432
  29.4597599  25.1149901  25.5945833  29.3282687  25.0669445  24.5136111
  29.6354610  23.6839217  26.1326961  29.8264141  23.7602545  27.2031210
  28.7234636  23.1104676  25.9668315  30.8114286  22.9390314  25.4750704
  31.1396231  23.1838382  24.3038402  31.4240709  22.0083828  26.2129867
  32.2011909  21.4922724  25.8259280  31.1071625  21.8253998  27.1543618
  28.1730859  25.7525355  26.1159037  27.1360848  25.6974881  25.4429642
  28.2130403  26.3694818  27.3062141  29.0361790  26.3580213  27.8913729
  27.0068756  27.0248141  27.8171958  26.1955015  26.2985912  27.8658959
  27.2326601  27.6034547  29.2220123  28.1025008  28.2596852  29.1930652
  26.3526125  28.1799107  29.5071697  27.4511263  26.5674155  30.1759725
  27.5891474  26.9550027  31.0433399  26.5414425  28.1157407  26.8689574
  25.3323953  28.3038744  26.6641751  27.4857770  28.8466853  26.2748646
  28.4693293  28.7475279  26.4819686  27.0778939  29.8921555  25.3493353
  26.2946785  30.4965128  25.8069650  28.2482473  30.8005359  24.9929546
  29.0452985  30.1844345  24.5767483  27.9110680  31.5141037  24.2411361
  28.7791867  31.5647412  26.2263177  27.9971881  32.2579138  26.5363031
  28.9449955  30.8292516  27.0135054  30.2998838  32.4786408  25.9420049
  31.2980502  31.1622463  25.2940617  30.8352273  30.7656006  24.3904213
  32.2915574  31.5422431  25.0560563  31.3813488  30.3691650  26.0371530
  26.4527401  29.3007730  24.0905182  25.4259308  29.8005074  23.6189919
  27.0519861  28.2393792  23.5422851  27.8924082  27.8430228  23.9381280
  26.5217905  27.6531626  22.3061889  26.4628056  28.4180885  21.5319097
  27.4283713  26.5276173  21.8122413  27.5457064  25.8365135  22.6469312
  26.8922860  26.0315992  21.0031192  28.7965419  26.9628196  21.3200379
  28.6730144  27.6648233  20.4953970  29.3309305  27.4509293  22.1350715
  29.5974777  25.7470933  20.8400740  29.7733213  25.0898598  21.6916737
  29.0092792  25.2189982  20.0895825  30.9261813  26.1623967  20.2398873
  31.3901421  25.2795254  19.8001382  30.7303510  26.8966421  19.4584570
  31.8426101  26.7507134  21.2546501  32.0245415  26.0703568  21.9786084
  32.7120118  27.0118852  20.8118974  31.4130611  27.5690625  21.6619479
  25.1065917  27.1206296  22.4907691  24.2464588  27.3082824  21.6163916
  24.8554404  26.4216494  23.6010995  25.5891002  26.2404413  24.2711788
  23.5213254  25.8944842  23.8755828  23.2672115  25.1311629  23.1401470
  23.4704647  25.2664631  25.2694489  23.7616361  26.0503576  25.9686111
  22.4297727  24.9931381  25.4436719  24.3467749  24.0603225  25.4752435
  24.0348971  23.2778783  24.7834241  25.3736831  24.3515917  25.2545152
  24.2640633  23.5411110  26.8936864  24.0440392  24.3475464  27.8269754
  24.4103685  22.3158801  27.0662355  22.4637626  26.9792885  23.8105505
  21.3099645  26.7096584  23.4631853  22.8335530  28.2020016  24.1626039
  23.8098766  28.3714769  24.3579750  21.8951561  29.2877958  24.3598453
  20.8692097  28.9196473  24.3598551  22.1821189  29.9271621  25.7097746
  23.2462144  29.8258045  25.9231444  21.9219573  30.9842902  25.6559575
  21.3975657  29.2794437  26.7898297  20.3800444  29.6699248  26.7732255
  21.3760996  28.2034017  26.6172753  22.0199871  29.5596444  28.1302890
  23.1017776  29.6423305  28.0254499  21.6225061  30.4903818  28.5350559
  21.7189482  28.4675015  29.0739120  20.9281720  28.6086929  29.6861515
  22.3694278  27.3108182  29.1351262  23.4399327  27.1104761  28.3812673
  23.7599477  27.8396572  27.7599901  23.9312644  26.2294534  28.4311846
  21.9873449  26.3756567  29.9897061  21.1980411  26.5430904  30.5972136
  22.4867665  25.4987259  30.0305618  21.9246402  30.3180563  23.2492414
  21.1858142  31.3017582  23.3239733  22.7356265  30.0980292  22.2119048
  23.2755631  29.2450294  22.1809331  22.8749040  31.0379460  21.1208828
  23.3622940  30.5114429  20.3003070  21.8703595  31.3324843  20.8171775
  23.6701191  32.2751956  21.4509002  23.6430441  33.2326963  20.6818590
  24.3954333  32.2846784  22.5666310  24.4491510  31.4540257  23.1386711
  25.0783512  33.4895167  23.0296967  24.4855216  34.3875964  22.8561881
  25.4237074  33.3853959  24.5205451  25.9515014  32.4485804  24.6991800
  26.3090200  34.5572693  24.9437901  25.7816845  35.4944798  24.7658732
  26.5459248  34.4698963  26.0041404  27.2316954  34.5443259  24.3636162
  24.1469373  33.3062594  25.3492395  23.7661793  34.3201675  25.4721801
  23.4235261  32.7122747  24.7907076  24.3643395  32.6928447  26.6872432
  25.0873373  33.2865785  27.2465770  23.4204898  32.6632513  27.2316430
  24.7446865  31.6786859  26.5651042  26.3326435  33.7275908  22.2062573
  27.1906498  32.8467717  22.0900380  26.4399336  34.9319621  21.6458186
  25.6944376  35.5904437  21.8211387  27.5307812  35.3411019  20.7748782
  28.0767427  34.4584800  20.4417060  26.9901689  36.0761121  19.5437943
  26.4486672  36.9673844  19.8608266  27.8201825  36.3658877  18.8994281
  26.3165560  35.4186434  18.9941765  28.5120779  36.2392139  21.5226579
  28.1271137  37.0349218  22.3864006  29.7874612  36.1153852  21.1547803
  30.0273968  35.4764606  20.4102633  30.8656120  36.8230813  21.8316370
  30.8048179  36.6694818  22.9090462  32.2137330  36.2820564  21.3341928
  32.1263650  35.1956652  21.3490315  32.3139762  36.6239442  20.3040646
  33.4507158  36.7061800  22.1359774  34.3119566  36.1862062  21.7164628
  33.5726273  37.7804423  21.9974231  33.3451107  36.3946348  23.6258593
  33.4574352  35.2069893  24.0093413  33.1545514  37.3386457  24.4225949
  30.7952978  38.3347393  21.6332254  31.3770441  39.0758636  22.4295772
  30.0928396  38.8199370  20.6106328  29.6381462  38.1939916  19.9613674
  30.0135831  40.2553669  20.3586554  30.8198327  40.7651903  20.8860459
  30.1430651  40.5526276  18.8619288  30.1881968  41.6299268  18.7022768
  31.0712026  40.0957603  18.5185148  28.9875855  39.9858858  18.0411897
  28.0215330  39.4385369  18.5832541  29.0718851  40.1462733  16.7166179
  28.3374196  39.7924405  16.1204112  29.8696514  40.6205431  16.3181987
  28.7313146  40.8968860  20.8831063  28.4303171  42.0351817  20.5105832
  27.9538469  40.1865102  21.6934915  28.1596052  39.2159460  21.8826158
  26.7616239  40.7685433  22.2922676  26.1115287  41.1701006  21.5149471
  25.9889121  39.6975846  23.0725970  26.7258449  39.0531006  23.5518356
  25.4060488  40.2125773  23.8362415  25.0573194  38.8496097  22.2065643
  24.2427259  39.4777956  21.8461192  25.6569807  38.5125330  21.3610557
  24.4844059  37.6456178  22.9320866  24.3274710  36.6031862  22.2567313
  24.2274520  37.7298207  24.1680807  27.1282210  41.9272679  23.2101340
  28.2002120  41.9538872  23.8143382  26.2218076  42.8885439  23.3191809
  25.4133273  42.9315936  22.7153550  26.3895916  43.9297952  24.3238307
  27.3117041  44.4833831  24.1467764  25.2182879  44.9065368  24.2790825
  24.2885384  44.3684176  24.4637269  25.3528812  45.6713531  25.0439621
  25.1754822  45.3786084  23.2975453  26.4724580  43.3113666  25.7099484
  25.7726858  42.3422413  26.0188058  27.3425983  43.8734625  26.5500234
  28.0499426  44.5056554  26.2034752  27.3131209  43.5880531  27.9676385
  27.1801086  42.5173803  28.1227732  28.6238924  44.0223348  28.6402331
  28.9372703  44.9544380  28.1700448  28.4983706  44.1805764  29.7113559
  29.7803371  43.0405227  28.4765911  29.7812208  41.8146242  29.1354068
  28.9250189  41.5585094  29.7594448  30.8472733  40.9203022  29.0109150
  30.8107287  39.9625232  29.5299764  31.9449511  41.2445857  28.2342390
  32.7780593  40.5494335  28.1303456  31.9788158  42.4857961  27.5751259
  32.8388860  42.7598803  26.9641781  30.8932510  43.3786926  27.7068453
  30.9185377  44.3453438  27.2038087  26.1391019  44.3370811  28.5952296
  25.6746161  45.3471071  28.0645785  25.6775947  43.8478791  29.7544730
  26.1323355  43.0597019  30.1927502  24.4699066  44.3945944  30.3863019
  23.6071866  44.2168591  29.7442556  24.2173169  43.7273968  31.7410066
  25.1455445  43.8249667  32.3040100  23.4184140  44.2523015  32.2647711
  23.8628825  42.2831590  31.6130714  23.5269131  41.8659591  30.4880408
  23.8781100  41.5796018  32.6332108  24.5212739  45.9029632  30.5775900
  23.5067602  46.5903512  30.4073292  25.6752626  46.4317969  30.9569474
  26.4796420  45.8342186  31.0833332  25.8201687  47.8587543  31.2416414
  24.9448935  48.2150186  31.7848433  27.0592790  48.1177898  32.0909065
  27.2682482  49.1865681  32.1372093  26.9133380  47.7325857  33.1000740
  28.2971622  47.4613266  31.5558902  29.1504759  47.9433934  30.5998775
  28.9111995  48.9108147  30.1583545  30.1777868  47.0470201  30.3993076
  30.9577868  47.1839571  29.7724522  29.9807222  45.9443316  31.2032913
  30.7376922  44.7749579  31.3319942  31.6387167  44.6623837  30.7290179
  30.2839515  43.8247846  32.2307646  30.8459878  42.9006989  32.3659709
  29.1215561  44.0216428  32.9698247  28.7770373  43.2609087  33.6703173
  28.3660312  45.1826787  32.8429635  27.4172055  45.2481258  33.3754549
  28.8192838  46.1789592  31.9611011  25.9130505  48.7048682  29.9909527
  25.9203350  49.9348810  30.1050415  25.9897925  48.0881856  28.8210351
  26.0648506  47.0817229  28.7823247  26.0310267  48.8331400  27.5682750
  26.5399674  49.7863238  27.7115202  26.7964543  48.0224536  26.5168298
  26.3560322  47.0268204  26.4635173  26.6867234  48.5197980  25.5531350
  28.3061590  47.9027913  26.8689814  28.7601498  48.8849236  26.7370371
  28.3830370  47.6050809  27.9147144  29.0363105  46.8818132  25.9932375
  28.3801632  46.1577107  25.2416490  30.2777881  46.7961557  26.0500979
  24.5999426  49.1378385  27.1293513  23.7267889  48.2659243  27.1716626
  24.3548849  50.3811579  26.7431629  25.0887435  51.0717877  26.6754756
  22.9813557  50.8043763  26.4915744  22.2864929  50.0149468  26.7780460
  22.6657214  52.0581813  27.3164144  21.6001258  52.2492042  27.1894673
  22.8667691  51.8004772  28.3562550  23.4513660  53.3040703  26.9426820
  24.5161560  53.1107068  27.0728115  23.2529815  53.5556935  25.9008416
  23.0347825  54.4652790  27.8325851  21.9594349  54.6068594  27.7245041
  23.2639775  54.2009098  28.8649019  23.7530902  55.7515819  27.4687746
  24.8239452  55.5937910  27.5971184  23.5423608  55.9775179  26.4234779
  23.3121718  56.8958363  28.3243650  23.5077432  56.6868614  29.2929625
  23.8109608  57.7310278  28.0527684  22.3199993  57.0424894  28.2052611
  22.6852630  51.0483961  25.0106431  23.4901703  51.6236255  24.2814399
  21.6394296  50.6427312  24.5085394  42.3311024  49.8572720  38.3447079
  41.5157757  50.6819385  39.3058445  40.3190323  51.2725356  38.8555876
  39.5128747  52.0404737  39.7090868  38.2775093  52.6647241  39.1890102
  37.1222261  52.0878057  39.7033368  35.9033733  52.5742487  39.3033204
  34.7698844  51.9565287  39.8330175  33.4984744  52.4037135  39.4686314
  33.3605532  53.4686183  38.5745483  34.4930141  54.0840352  38.0482629
  34.2859388  55.1197953  37.1802047  35.7653169  53.6341758  38.4128711
  36.9814128  54.2517146  37.8821493  36.9435930  55.1975630  37.0970217
  38.2817022  53.6973585  38.3256384  39.4251299  54.2965058  37.8294865
  39.9309738  52.2269721  41.0305392  41.1142084  51.6455843  41.4929082
  41.9190049  50.8656920  40.6449987  43.1936201  50.2508153  41.1832300
  44.3163955  50.8398209  40.6839748  43.3200875  48.9227741  40.8999376
  43.2910167  50.3451115  42.5392610  41.6634666  49.2019677  37.7653628
  42.8752972  50.5240870  37.6591514  43.0498274  49.2435331  38.9067274
  40.0089098  51.1285582  37.8102276  34.8779270  51.1178277  40.5366454
  32.6045682  51.9172391  39.8865216  32.3583689  53.8198342  38.2865918
  34.5805909  55.0539172  36.2924174  39.3711357  55.1346876  37.4155627
  39.3220170  52.8378865  41.7128882  41.4203821  51.8009346  42.5380139
  66.7601394  56.0928425  36.5755372  17.5734003  12.0480212  40.9762755
   3.8150073  51.2024913  29.6896523  66.7601394  10.1052672  36.5755375
  20.8162836  62.9959546  67.1240445  59.1811699  70.3461919  47.6391836
  44.6778630  71.8735261  72.9129228  10.9732273  51.5041872  44.4216275
  47.1923961  50.7072705  74.5164588  63.3256343  30.5642903  59.3888421
  12.6801663  36.0429631  42.0618497  48.6582654  12.3516854  59.9114499
  48.3417941  32.0232127  87.4655922  47.6905921  32.6086208  87.0789936
  49.1362304  32.5538322  87.5250960  54.6084665  28.5157063  88.7260759
  53.8314108  28.1768223  88.2815921  55.2876146  28.5209686  88.0515724
  46.0135726  27.6122234  83.2695294  45.1062788  27.3811488  83.4686443
  46.5106758  26.8159853  83.4569275  48.9203805  36.3219741  86.1891980
  48.2465504  36.6251438  86.7976938  49.3069627  37.1248822  85.8397437
  46.8900047  29.2543573  85.1307363  46.4519477  28.5379432  84.6713000
  47.6310488  29.4819687  84.5692454  47.1195020  36.4899414  88.4039059
  47.2946776  36.0187457  89.2184682  46.4327808  37.1165180  88.6320320
  51.0111275  28.1127954  84.7239420  50.3940445  27.3874782  84.6272473
  50.5427763  28.8737315  84.3806494  51.8348960  31.4367126  88.8432060
  52.1108804  31.3223721  89.7525934  50.9653459  31.0384611  88.8044233
  48.8045189  34.6121662  89.7479922  49.3332956  34.1014117  89.1350084
  49.0673409  34.2964192  90.6125455  51.8985373  34.5838460  90.3634905
  52.0722251  34.0184883  89.6108757  52.3914264  35.3839355  90.1814395
  52.8860545  33.9005225  87.4631803  53.5811450  34.5211917  87.6819118
  53.2283696  33.0500576  87.7384181  54.7851969  31.3504930  88.9919134
  55.3103293  31.6892203  88.2668454  54.6974321  30.4151946  88.8082269
  46.9775414  34.0066976  86.3706897  46.4049381  34.6257164  85.9177369
  47.5508208  34.5566338  86.9046819  50.1972674  34.2904127  87.5015479
  51.1303347  34.2249688  87.7048355  50.1095887  35.1260393  87.0430012
  52.8260690  33.6069997  84.4619427  52.7474322  33.2729861  85.3555185
  53.6470357  34.0991765  84.4610899  47.3622212  25.3427789  83.7122949
  48.3081317  25.2133997  83.7811367  46.9836457  24.6042451  84.1892378
  50.3964642  30.9237992  84.0829405  51.1000492  31.1287995  84.6987061
  49.6727291  31.4914754  84.3478489  52.3051340  31.3620522  86.1327865
  53.1396944  30.9301720  85.9505340  52.1435682  31.1902535  87.0604760
  51.9597232  27.8652635  87.4984204  51.9046036  27.6996906  86.5572649
  51.3343287  28.5728668  87.6546394  55.4433600  40.6005848  85.4961507
  55.6959121  40.0787369  84.7344970  54.5058159  40.4371994  85.5988190
  57.1466917  36.9934001  86.3993919  57.3141319  37.8614237  86.7664390
  56.9564086  37.1561283  85.4755209  53.7665195  37.8158069  86.6462818
  52.9302507  38.1532755  86.9672092  53.6269965  37.6807049  85.7089955
  55.7418276  32.6594857  91.3542002  55.0882688  32.3443874  90.7298617
  55.6998750  32.0370597  92.0801825  56.8529480  42.9414152  83.2695294
  55.9456542  42.7103405  83.4686443  57.3500512  42.1451771  83.4569275
  51.0952110  40.2896295  89.4575438  50.1649698  40.2280750  89.6745400
  51.1909582  39.7672247  88.6612080  53.6403575  37.6605296  83.8460724
  52.7633041  37.5394097  83.4822971  54.1161328  36.8691375  83.5939613
  48.3682269  39.2547151  89.2873630  48.6635710  38.3457830  89.2340684
  47.4670305  39.2334891  88.9654632  50.0970111  36.9361249  89.4112955
  49.7682817  36.0558628  89.2288061  50.4509481  36.8808918  90.2989345
  55.1980081  35.7208841  87.9781726  55.9188443  36.0990093  87.4745443
  54.5745385  36.4397717  88.0816704  55.3443704  35.2556631  90.8079262
  55.4659615  34.3273277  91.0070150  55.0545746  35.2695317  89.8957578
  51.3422043  38.6004299  87.4042380  50.6491288  38.6748654  86.7482416
  51.0973795  37.8364643  87.9263897  58.2015967  40.6719707  83.7122949
  59.1475072  40.5425915  83.7811367  57.8230212  39.9334369  84.1892378
  56.3858884  38.5969683  83.6477835  55.4790339  38.3002796  83.7240548
  56.6634865  38.2999501  82.7812121  55.1557669  35.4556618  83.7889814
  56.0176833  35.7811517  84.0485631  55.3408013  34.6688114  83.2762880
  56.1087112  32.6952662  87.0769523  56.0965782  33.6394501  87.2337794
  57.0010534  32.5122807  86.7828984  48.3417942   9.0294250  74.1901229
  47.6905922   9.6148330  73.8035243  49.1362305   9.5600445  74.2496267
  54.6084666   5.5219186  75.4506066  53.8314109   5.1830345  75.0061228
  55.2876147   5.5271809  74.7761031  46.0135727   4.6184357  69.9940601
  45.1062789   4.3873610  70.1931750  46.5106759   3.8221976  70.1814582
  48.9203806  13.3281864  72.9137287  48.2465505  13.6313561  73.5222245
  49.3069628  14.1310944  72.5642744  46.8900048   6.2605695  71.8552669
  46.4519478   5.5441554  71.3958307  47.6310489   6.4881810  71.2937761
  47.1195021  13.4961536  75.1284366  47.2946777  13.0249579  75.9429989
  46.4327809  14.1227302  75.3565627  51.0111276   5.1190077  71.4484727
  50.3940447   4.3936905  71.3517780  50.5427764   5.8799437  71.1051801
  51.8348961   8.4429249  75.5677367  52.1108805   8.3285843  76.4771241
  50.9653460   8.0446734  75.5289540  48.8045191  11.6183785  76.4725229
  49.3332957  11.1076239  75.8595391  49.0673410  11.3026315  77.3370762
  51.8985374  11.5900583  77.0880212  52.0722252  11.0247005  76.3354064
  52.3914265  12.3901478  76.9059702  52.8860547  10.9067347  74.1877110
  53.5811451  11.5274040  74.4064425  53.2283697  10.0562699  74.4629488
  54.7851970   8.3567053  75.7164441  55.3103294   8.6954326  74.9913761
  54.6974322   7.4214068  75.5327575  46.9775415  11.0129099  73.0952204
  46.4049382  11.6319286  72.6422675  47.5508209  11.5628461  73.6292125
  50.1972675  11.2966249  74.2260786  51.1303348  11.2311811  74.4293661
  50.1095888  12.1322516  73.7675318  52.8260692  10.6132120  71.1864733
  52.7474323  10.2791983  72.0800491  53.6470358  11.1053887  71.1856206
  47.3622214   2.3489912  70.4368256  48.3081318   2.2196120  70.5056674
  46.9836459   1.6104574  70.9137684  50.3964643   7.9300115  70.8074712
  51.1000494   8.1350117  71.4232367  49.6727292   8.4976877  71.0723795
  52.3051341   8.3682644  72.8573172  53.1396945   7.9363843  72.6750647
  52.1435684   8.1964658  73.7850066  51.9597233   4.8714757  74.2229511
  51.9046037   4.7059029  73.2817955  51.3343288   5.5790790  74.3791701
  53.6012138  20.6915200  78.8786764  53.0377003  20.6005137  78.1103052
  53.4864533  19.8715104  79.3589257  51.1476570  22.1866391  81.7170985
  51.9397862  21.8457216  81.3017284  51.3873220  22.2961366  82.6373138
  59.1811697  24.3586167  74.1901229  58.5299676  24.9440248  73.8035243
  59.9756059  24.8892362  74.2496267  53.1067324  21.4475305  74.5888363
  53.8798200  20.9004292  74.4501239  53.4592723  22.3119554  74.8002825
  55.4433602  17.6067971  72.2206813  55.6959122  17.0849492  71.4590276
  54.5058161  17.4434116  72.3233497  60.6586962  22.0476599  74.7270213
  60.0232795  22.1211226  75.4391118  60.3284368  22.6370198  74.0489293
  55.1629890  19.5096077  74.4231188  55.0466148  18.8340980  75.0912273
  55.2732150  19.0228451  73.6063341  57.5061431  18.9706224  78.1277878
  57.1419638  18.4436845  78.8390799  58.3628547  18.5804693  77.9544363
  57.1466918  13.9996123  73.1239226  57.3141321  14.8676360  73.4909697
  56.9564087  14.1623405  72.2000515  53.3554733  18.9126899  80.8241761
  52.4305229  18.7803113  81.0319453  53.6039146  19.6921118  81.3211703
  57.1256139  16.4553781  74.1085893  57.0055764  16.9010832  74.9471373
  56.4308727  16.8039099  73.5499431  50.7163544  18.5560173  81.6585550
  50.8455925  18.8094652  82.5724962  50.0360995  19.1487881  81.3390205
  54.8863031  29.2257423  77.7576024  54.8087061  30.1765248  77.8364505
  54.2824675  28.8803295  78.4150950  62.8241205  16.9275254  74.9366227
  63.7359061  17.1602641  74.7613924  62.3150852  17.5112298  74.3741306
  56.9838749  21.6475481  79.5929893  57.4477095  21.9263184  78.8034516
  56.7195548  20.7458925  79.4102984  53.8762831  21.1946962  82.5309657
  54.4464188  21.6234231  81.8927141  54.4670942  20.9129547  83.2293842
  55.9207636  17.7698633  76.4019459  56.6231679  18.2219677  76.8693385
  55.5888264  17.1282452  77.0299352  51.6147715  16.3926765  78.6620069
  50.8178878  16.5045459  79.1803565  51.3873307  16.7313417  77.7960959
  57.1601400  24.5839576  76.4781564  57.0247075  25.4291111  76.9066412
  57.7011213  24.7858853  75.7147498  50.6130798  22.1015014  77.0509489
  51.1255318  22.8958264  77.2015054  51.2653510  21.4041304  76.9843090
  52.4225682  25.2180770  79.1332242  52.5992311  26.1398735  78.9453226
  53.2182516  24.9039189  79.5626622  53.5456998  26.7358944  85.1342584
  54.0964423  26.6076007  84.3619578  52.7068474  27.0353833  84.7837477
  48.5779714  20.4303668  77.8269059  49.4154936  20.8400676  77.6102767
  48.7557982  19.4903110  77.7969253  60.4744146  18.0978749  73.5152892
  59.9590770  18.8683353  73.7541280  60.2021455  17.4243885  74.1385954
  58.0591257  12.9428449  78.5738131  57.2032854  12.5535300  78.3943769
  58.4718209  13.0220410  77.7137916  65.4478421  20.8511103  75.4506066
  64.6707863  20.5122263  75.0061228  66.1269902  20.8563726  74.7761031
  60.2630450  15.9705841  75.3412674  59.9580585  16.2851990  76.1922817
  61.2160892  16.0487261  75.3840007  58.7076881  22.1296064  76.9905628
  58.1798243  21.3948824  76.6778865  58.2064384  22.9070740  76.7445596
  53.4395609  12.7915730  79.3512239  54.0139361  12.5690912  78.6185432
  54.0266591  12.8604425  80.1040840  53.7665196  14.8220191  73.3708124
  52.9302508  15.1594878  73.6917399  53.6269966  14.6869171  72.4335261
  55.7418277   9.6656979  78.0787308  55.0882689   9.3505996  77.4543923
  55.6998751   9.0432720  78.8047131  56.8529482  19.9476274  69.9940601
  55.9456543  19.7165528  70.1931750  57.3500514  19.1513894  70.1814582
  59.7597561  28.6573782  72.9137287  59.0859259  28.9605478  73.5222245
  60.1463382  29.4602862  72.5642744  59.7591065  17.5530329  77.5337636
  60.5062884  18.0651726  77.2244758  60.0282654  17.2314381  78.3942030
  58.0317715  20.0488869  74.5164591  57.1228934  19.7647902  74.6137060
  58.0612799  20.4687948  73.6567898  63.2636982  23.6595459  78.2855758
  62.8099310  22.8186369  78.3420949  62.6330949  24.2956857  78.6230538
  61.7069922  25.4971955  79.2205576  61.9992896  26.0577013  78.5017942
  62.2168542  25.7900516  79.9758735  48.6005885  17.7694383  78.4979793
  48.4030285  17.1763744  77.7730859  48.0452549  17.4646594  79.2155732
  56.5802609  17.6617490  80.6174386  56.6351219  16.7091326  80.5416863
  55.7693811  17.8176929  81.1015684  57.7293803  21.5897613  71.8552669
  57.2913233  20.8733472  71.3958307  58.4704244  21.8173728  71.2937761
  54.5194969  16.2794550  78.3764765  53.7062835  16.5788720  78.7829957
  55.0153963  15.8850238  79.0939247  56.6703547  26.2752307  80.3099030
  56.6279726  26.5013153  79.3807562  57.5866246  26.0415681  80.4584831
  54.7869348  23.1515336  80.1060992  55.5809946  22.6565656  79.9043567
  54.0761040  22.6233199  79.7428698  59.6064192  25.5333431  84.4573360
  59.6601214  26.1024367  85.2251076  58.7378974  25.7035316  84.0927397
  51.0952111  17.2958417  76.1820745  50.1649699  17.2342873  76.3990707
  51.1909583  16.7734370  75.3857386  51.0137660  13.8213230  78.7698987
  51.2744478  14.7358563  78.6608147  51.8354833  13.3537673  78.9195599
  57.3640624  23.7244358  83.7858829  57.2251709  23.3563142  84.6584768
  56.5755220  24.2391997  83.6142787  57.9588776  28.8253454  75.1284366
  58.1340531  28.3541497  75.9429989  57.2721564  29.4519220  75.3565627
  58.9145839  23.1025960  81.1747667  58.5795671  23.0626730  82.0705317
  58.4149785  22.4370676  80.7018077  61.8505030  20.4481995  71.4484727
  61.2334201  19.7228823  71.3517780  61.3821519  21.2091355  71.1051801
  52.5249861  31.9742817  81.9024226  52.7646459  32.6061341  82.5803245
  51.6819057  31.6230857  82.1889585  53.6403576  14.6667419  70.5706031
  52.7633043  14.5456220  70.2068278  54.1161329  13.8753497  70.3184920
  45.1605717  19.4544579  80.6647538  45.8476756  19.1406309  80.0768554
  45.0053845  20.3585943  80.3914790  57.0377723  27.7821939  84.3065730
  56.9647894  28.5876911  84.8185035  56.5955116  27.9813905  83.4813751
  56.8267502  27.0193709  77.8168552  56.0435024  27.5615389  77.9106776
  57.5260248  27.5367689  78.2162793  59.4976406  27.6808773  86.4623889
  60.2104379  28.3156238  86.3899790  59.0066435  27.7772639  85.6463891
  61.2193933  21.5860026  78.0341180  60.2850212  21.7061488  77.8645885
  61.3970602  20.6832493  77.7701190  56.7199121  14.9705722  80.1874442
  56.3496909  14.4176762  80.8755347  57.2158214  14.3663855  79.6349442
  54.5488320  25.4303217  87.2829460  55.2497779  26.0639700  87.4358854
  54.0783435  25.7717948  86.5225099  62.6742716  23.7721166  75.5677367
  62.9502560  23.6577761  76.4771241  61.8047214  23.3738651  75.5289540
  59.3096780  28.0207517  79.2110180  59.4919174  27.2029173  79.6737933
  60.1329766  28.2375210  78.7735070  59.6438945  26.9475702  76.4725229
  60.1726712  26.4368157  75.8595391  59.9067165  26.6318233  77.3370762
  50.1456038  24.9639572  84.2160562  50.7309475  24.2183260  84.3488466
  49.9480876  25.2743528  85.0997226  52.9994693  27.9990819  79.2323005
  52.3305068  28.4836947  78.7487045  52.8607563  28.2460040  80.1466383
  57.1399962  30.0334563  85.8305663  57.6918270  30.1966184  86.5954748
  57.4806155  30.6239000  85.1585688  48.3682270  16.2609274  76.0118937
  48.6635711  15.3519952  75.9585990  47.4670306  16.2397014  75.6899939
  60.2768349  27.9816538  82.8169345  60.1519488  27.1806278  82.3080291
  60.9347440  28.4762732  82.3283315  50.0970112  13.9423372  76.1358262
  49.7682818  13.0620751  75.9533368  50.4509483  13.8871040  77.0234651
  59.3449691  25.5778274  80.6453247  59.1974653  24.6494982  80.8260818
  60.1703184  25.5998365  80.1610323  53.2111935  14.2296342  76.5033740
  53.5508007  14.7582263  75.7812348  53.6584055  14.5676748  77.2792306
  62.9483813  26.4006833  81.7318120  63.8730360  26.1949695  81.5942571
  62.7799116  26.1523234  82.6407462  55.1980082  12.7270963  74.7027032
  55.9188445  13.1052216  74.1990749  54.5745386  13.4459840  74.8062010
  59.3411205  13.4316112  75.6385365  59.5574819  14.3140750  75.3374193
  58.8605272  13.0402326  74.9091007  62.7379129  26.9192501  77.0880212
  62.9116006  26.3538923  76.3354064  63.2308020  27.7193396  76.9059702
  55.3443705  12.2618754  77.5324569  55.4659616  11.3335400  77.7315456
  55.0545748  12.2757440  76.6202884  63.7254301  26.2359265  74.1877110
  64.4205206  26.8565958  74.4064425  64.0677451  25.3854616  74.4629488
  65.6245724  23.6858971  75.7164441  66.1497048  24.0246243  74.9913761
  65.5368077  22.7505986  75.5327575  57.3086385  29.7530954  80.0759694
  56.8691375  29.2607333  80.7692551  58.0594502  29.2103922  79.8351769
  49.7878724  25.9442495  80.0784322  50.6136744  25.6446267  79.6982966
  49.4372776  25.1750117  80.5274111  54.7560257  25.2968963  82.1481996
  54.1340267  24.6339668  81.8484223  55.4265124  25.3230095  81.4655643
  47.9887329  23.8628821  81.0373256  47.1519237  23.4350996  80.8557257
  47.9610975  24.0561265  81.9744047  54.3173764  23.8472886  75.6240456
  54.4661885  24.5308351  74.9707129  55.1240208  23.8277976  76.1389912
  52.0726397  19.8738064  76.6301525  51.8272439  18.9700394  76.8281735
  52.2422312  19.8755214  75.6881003  51.3422045  15.6066422  74.1287686
  50.6491290  15.6810776  73.4727722  51.0973797  14.8426765  74.6509203
  57.8169170  26.3421017  73.0952204  57.2443137  26.9611204  72.6422675
  58.3901963  26.8920378  73.6292125  61.0366429  26.6258167  74.2260786
  61.9697103  26.5603729  74.4293661  60.9489642  27.4614434  73.7675318
  63.6654446  25.9424037  71.1864733  63.5868078  25.6083901  72.0800491
  64.4864113  26.4345805  71.1856206  58.2015968  17.6781829  70.4368256
  59.1475073  17.5488038  70.5056674  57.8230213  16.9396491  70.9137684
  56.3858885  15.6031806  70.3723141  55.4790341  15.3064919  70.4485855
  56.6634866  15.3061624  69.5057427  55.1557670  12.4618741  70.5135120
  56.0176834  12.7873639  70.7730938  55.3408014  11.6750237  70.0008186
  49.0861828  20.4759335  80.6681324  49.0632516  20.5747022  79.7163207
  49.3962465  21.3224485  80.9898490  50.0999435  28.0755109  81.7998136
  49.9653903  27.3155510  81.2336134  49.6831497  28.7996009  81.3326925
  61.2358398  23.2592033  70.8074712  61.9394248  23.4642035  71.4232367
  60.5121047  23.8268795  71.0723795  62.0656208  19.0101894  76.9276982
  62.0091410  19.4670445  76.0884614  62.6184551  18.2492578  76.7499825
  53.2568561  28.9724426  82.0116579  53.1400945  29.9169859  81.9095269
  52.4361007  28.6697988  82.4002378  63.1445095  23.6974562  72.8573172
  63.9790699  23.2655760  72.6750647  62.9829438  23.5256575  73.7850066
  62.7990988  20.2006675  74.2229511  62.7439791  20.0350947  73.2817955
  62.1737043  20.9082708  74.3791701  56.1087113   9.7014784  73.8014829
  56.0965783  10.6456624  73.9583100  57.0010535   9.5184930  73.5074291
  54.2823075  29.6252688  85.2272507  55.1850322  29.6576298  85.5439002
  54.0560445  28.6953139  85.2418843  56.0376677  28.3783675  81.8882586
  55.0872308  28.3785536  81.7746958  56.3409163  27.6316409  81.3718621
  64.4405892  36.0207117  78.8786764  63.8770758  35.9297054  78.1103052
  64.3258287  35.2007022  79.3589257  61.9870324  37.5158309  81.7170985
  62.7791616  37.1749134  81.3017284  62.2266974  37.6253284  82.6373138
  70.0205451  39.6878085  74.1901229  69.3693431  40.2732166  73.8035243
  70.8149814  40.2184280  74.2496267  63.9461078  36.7767222  74.5888363
  64.7191954  36.2296209  74.4501239  64.2986477  37.6411472  74.8002825
  66.2827356  32.9359888  72.2206813  66.5352877  32.4141410  71.4590276
  65.3451915  32.7726034  72.3233497  71.4980716  37.3768517  74.7270213
  70.8626549  37.4503144  75.4391118  71.1678123  37.9662116  74.0489293
  66.0023645  34.8387994  74.4231188  65.8859903  34.1632898  75.0912273
  66.1125905  34.3520368  73.6063341  68.3455186  34.2998141  78.1277878
  67.9813393  33.7728762  78.8390799  69.2022302  33.9096611  77.9544363
  67.9860673  29.3288041  73.1239226  68.1535075  30.1968278  73.4909697
  67.7957842  29.4915323  72.2000515  64.1948487  34.2418817  80.8241761
  63.2698984  34.1095031  81.0319453  64.4432901  35.0213036  81.3211703
  67.9649894  31.7845699  74.1085893  67.8449519  32.2302749  74.9471373
  67.2702482  32.1331016  73.5499431  61.5557298  33.8852090  81.6585550
  61.6849680  34.1386569  82.5724962  60.8754750  34.4779798  81.3390205
  65.7256786  44.5549340  77.7576024  65.6480815  45.5057165  77.8364505
  65.1218429  44.2095213  78.4150950  73.6634960  32.2567172  74.9366227
  74.5752816  32.4894559  74.7613924  73.1544607  32.8404216  74.3741306
  67.8232504  36.9767398  79.5929893  68.2870849  37.2555101  78.8034516
  67.5589302  36.0750843  79.4102984  64.7156585  36.5238880  82.5309657
  65.2857942  36.9526148  81.8927141  65.3064697  36.2421465  83.2293842
  66.7601390  33.0990551  76.4019459  67.4625433  33.5511594  76.8693385
  66.4282019  32.4574370  77.0299352  60.5026724  31.3574103  81.7036592
  59.7125778  31.6131632  81.2276703  60.9937971  32.1722441  81.8088633
  62.4541469  31.7218683  78.6620069  61.6572633  31.8337377  79.1803565
  62.2267062  32.0605335  77.7960959  58.7864427  31.6104594  84.1351583
  59.0372465  32.4951604  84.4009159  59.3223975  31.4309195  83.3626675
  67.9995155  39.9131493  76.4781564  67.8640829  40.7583029  76.9066412
  68.5404967  40.1150771  75.7147498  61.4524552  37.4306931  77.0509489
  61.9649073  38.2250182  77.2015054  62.1047265  36.7333222  76.9843090
  63.2619437  40.5472688  79.1332242  63.4386065  41.4690652  78.9453226
  64.0576270  40.2331107  79.5626622  59.4173469  35.7595586  77.8269059
  60.2548691  36.1692594  77.6102767  59.5951737  34.8195028  77.7969253
  71.3137901  33.4270666  73.5152892  70.7984524  34.1975271  73.7541280
  71.0415209  32.7535803  74.1385954  68.8985012  28.2720367  78.5738131
  68.0426608  27.8827218  78.3943769  69.3111964  28.3512328  77.7137916
  76.2872175  36.1803021  75.4506066  75.5101618  35.8414181  75.0061228
  76.9663656  36.1855644  74.7761031  71.1024204  31.2997758  75.3412674
  70.7974340  31.6143908  76.1922817  72.0554646  31.3779178  75.3840007
  69.5470636  37.4587982  76.9905628  69.0191998  36.7240741  76.6778865
  69.0458139  38.2362658  76.7445596  64.2789364  28.1207648  79.3512239
  64.8533115  27.8982830  78.6185432  64.8660346  28.1896343  80.1040840
  64.6058951  30.1512109  73.3708124  63.7696263  30.4886796  73.6917399
  64.4663720  30.0161089  72.4335261  66.5812031  24.9948897  78.0787308
  65.9276444  24.6797914  77.4543923  66.5392505  24.3724637  78.8047131
  67.6923236  35.2768192  69.9940601  66.7850298  35.0457445  70.1931750
  68.1894268  34.4805811  70.1814582  70.5991315  43.9865699  72.9137287
  69.9253014  44.2897396  73.5222245  70.9857137  44.7894780  72.5642744
  70.5984819  32.8822246  77.5337636  71.3456638  33.3943643  77.2244758
  70.8676409  32.5606299  78.3942030  68.8711470  35.3780787  74.5164591
  67.9622689  35.0939820  74.6137060  68.9006553  35.7979865  73.6567898
  74.1030737  38.9887376  78.2855758  73.6493064  38.1478286  78.3420949
  73.4724704  39.6248775  78.6230538  72.5463676  40.8263873  79.2205576
  72.8386651  41.3868930  78.5017942  73.0562297  41.1192434  79.9758735
  59.4399640  33.0986301  78.4979793  59.2424040  32.5055662  77.7730859
  58.8846304  32.7938511  79.2155732  67.4196364  32.9909408  80.6174386
  67.4744973  32.0383244  80.5416863  66.6087566  33.1468847  81.1015684
  68.5687557  36.9189531  71.8552669  68.1306987  36.2025390  71.3958307
  69.3097998  37.1465645  71.2937761  65.3588724  31.6086467  78.3764765
  64.5456589  31.9080638  78.7829957  65.8547718  31.2142156  79.0939247
  67.5097301  41.6044224  80.3099030  67.4673480  41.8305070  79.3807562
  68.4260000  41.3707599  80.4584831  65.6263102  38.4807253  80.1060992
  66.4203701  37.9857573  79.9043567  64.9154795  37.9525116  79.7428698
  61.9345866  32.6250335  76.1820745  61.0043454  32.5634790  76.3990707
  62.0303338  32.1026288  75.3857386  61.8531415  29.1505148  78.7698987
  62.1138232  30.0650481  78.6608147  62.6748587  28.6829590  78.9195599
  68.7982530  44.1545372  75.1284366  68.9734286  43.6833415  75.9429989
  68.1115318  44.7811138  75.3565627  69.7539593  38.4317878  81.1747667
  69.4189426  38.3918648  82.0705317  69.2543539  37.7662594  80.7018077
  72.6898785  35.7773912  71.4484727  72.0727956  35.0520740  71.3517780
  72.2215273  36.5383272  71.1051801  64.4797331  29.9959337  70.5706031
  63.6026797  29.8748137  70.2068278  64.9555084  29.2045415  70.3184920
  55.9999471  34.7836496  80.6647538  56.6870511  34.4698226  80.0768554
  55.8447600  35.6877861  80.3914790  60.8034193  29.6726693  85.0932562
  60.7192382  29.0652362  84.3582972  59.9816900  30.1635711  85.0942058
  67.6661257  42.3485627  77.8168552  66.8828779  42.8907307  77.9106776
  68.3654002  42.8659607  78.2162793  72.0587688  36.9151944  78.0341180
  71.1243966  37.0353406  77.8645885  72.2364356  36.0124410  77.7701190
  67.5592876  30.2997639  80.1874442  67.1890663  29.7468680  80.8755347
  68.0551968  29.6955773  79.6349442  73.5136470  39.1013084  75.5677367
  73.7896314  38.9869679  76.4771241  72.6440969  38.7030569  75.5289540
  70.1490534  43.3499435  79.2110180  70.3312929  42.5321091  79.6737933
  70.9723520  43.5667127  78.7735070  70.4832700  42.2767620  76.4725229
  71.0120466  41.7660075  75.8595391  70.7460919  41.9610150  77.3370762
  60.9849792  40.2931489  84.2160562  61.5703229  39.5475177  84.3488466
  60.7874631  40.6035446  85.0997226  63.8388448  43.3282737  79.2323005
  63.1698823  43.8128864  78.7487045  63.7001317  43.5751957  80.1466383
  55.5767447  32.8637090  82.9365005  55.6151547  32.3300680  83.7302123
  55.0707740  32.3372295  82.3175983  59.2076025  31.5901192  76.0118937
  59.5029466  30.6811870  75.9585990  58.3064060  31.5688931  75.6899939
  62.7370272  29.6657188  81.9946485  62.0156857  30.2793156  81.8553959
  63.5263527  30.2014953  81.9163131  60.9363866  29.2715289  76.1358262
  60.6076572  28.3912668  75.9533368  61.2903237  29.2162958  77.0234651
  70.1843445  40.9070192  80.6453247  70.0368408  39.9786900  80.8260818
  71.0096939  40.9290283  80.1610323  64.0505689  29.5588259  76.5033740
  64.3901762  30.0874180  75.7812348  64.4977810  29.8968665  77.2792306
  66.0373837  28.0562881  74.7027032  66.7582199  28.4344134  74.1990749
  65.4139141  28.7751758  74.8062010  70.1804959  28.7608030  75.6385365
  70.3968574  29.6432668  75.3374193  69.6999027  28.3694243  74.9091007
  64.9204181  31.7193743  82.2156109  64.7748762  32.0334046  83.1080391
  64.4429385  32.3378643  81.6627008  73.5772883  42.2484418  77.0880212
  73.7509761  41.6830841  76.3354064  74.0701774  43.0485313  76.9059702
  59.3949843  34.2599087  85.1543770  58.8503311  35.0358895  85.2864045
  60.2729193  34.6069892  84.9962892  66.1837460  27.5910671  77.5324569
  66.3053371  26.6627317  77.7315456  65.8939502  27.6049357  76.6202884
  74.5648056  41.5651183  74.1877110  75.2598960  42.1857875  74.4064425
  74.9071206  40.7146534  74.4629488  60.1815865  33.3868984  88.0473927
  59.4397601  33.5351619  88.6338558  59.8608609  33.6477249  87.1840677
  76.4639479  39.0150888  75.7164441  76.9890803  39.3538161  74.9913761
  76.3761831  38.0797904  75.5327575  60.6272479  41.2734412  80.0784322
  61.4530498  40.9738184  79.6982966  60.2766531  40.5042035  80.5274111
  65.5954012  40.6260881  82.1481996  64.9734021  39.9631586  81.8484223
  66.2658879  40.6522013  81.4655643  58.8281084  39.1920739  81.0373256
  57.9912992  38.7642913  80.8557257  58.8004729  39.3853182  81.9744047
  65.1567519  39.1764804  75.6240456  65.3055639  39.8600268  74.9707129
  65.9633962  39.1569894  76.1389912  62.9120152  35.2029982  76.6301525
  62.6666194  34.2992312  76.8281735  63.0816066  35.2047132  75.6881003
  62.1815799  30.9358339  74.1287686  61.4885044  31.0102694  73.4727722
  61.9367551  30.1718683  74.6509203  68.6562924  41.6712934  73.0952204
  68.0836891  42.2903122  72.6422675  69.2295718  42.2212296  73.6292125
  71.8760184  41.9550085  74.2260786  72.8090857  41.8895646  74.4293661
  71.7883397  42.7906351  73.7675318  74.5048201  41.2715955  71.1864733
  74.4261832  40.9375818  72.0800491  75.3257867  41.7637723  71.1856206
  69.0409723  33.0073747  70.4368256  69.9868827  32.8779955  70.5056674
  68.6623968  32.2688409  70.9137684  67.2252640  30.9323724  70.3723141
  66.3184095  30.6356836  70.4485855  67.5028621  30.6353542  69.5057427
  58.1430580  32.2530087  80.8222188  57.8233365  31.3995395  80.5296562
  57.5964008  32.4678665  81.5780155  61.9210488  34.9692528  84.5391694
  62.1396498  35.9009636  84.5579728  62.3336262  34.6100502  85.3246498
  65.9951424  27.7910659  70.5135120  66.8570588  28.1165557  70.7730938
  66.1801769  27.0042155  70.0008186  58.0118840  35.8732998  82.7915309
  57.3182312  35.4586951  82.2785264  58.7591831  35.9153535  82.1948728
  59.9255583  35.8051252  80.6681324  59.9026271  35.9038940  79.7163207
  60.2356219  36.6516403  80.9898490  62.5842961  37.8627407  84.7827939
  63.5386214  37.8311350  84.7157870  62.3855484  37.4018031  85.5978164
  60.9393189  43.4047027  81.7998136  60.8047657  42.6447428  81.2336134
  60.5225252  44.1287927  81.3326925  72.0752152  38.5883950  70.8074712
  72.7788003  38.7933953  71.4232367  71.3514801  39.1560712  71.0723795
  72.9049963  34.3393812  76.9276982  72.8485164  34.7962363  76.0884614
  73.4578305  33.5784496  76.7499825  73.9838850  39.0266479  72.8573172
  74.8184454  38.5947678  72.6750647  73.8223193  38.8548493  73.7850066
  73.6384742  35.5298593  74.2229511  73.5833546  35.3642864  73.2817955
  73.0130797  36.2374626  74.3791701  58.4277257  30.7666657  88.0490933
  59.0736121  30.2565611  88.5378158  58.2194408  31.5035339  88.6234359
  66.9480867  25.0306702  73.8014829  66.9359537  25.9748542  73.9583100
  67.8404289  24.8476847  73.5074291  77.1221111  48.2651806  72.2206813
  77.3746631  47.7433327  71.4590276  76.1845670  48.1017952  72.3233497
  78.8254427  44.6579959  73.1239226  78.9928830  45.5260195  73.4909697
  78.6351596  44.8207241  72.2000515  75.4452705  45.4804027  73.3708124
  74.6090017  45.8178713  73.6917399  75.3057475  45.3453007  72.4335261
  77.4205786  40.3240815  78.0787308  76.7670198  40.0089832  77.4543923
  77.3786260  39.7016555  78.8047131  78.5316991  50.6060110  69.9940601
  77.6244052  50.3749363  70.1931750  79.0288023  49.8097729  70.1814582
  72.7739620  47.9542253  76.1820745  71.8437208  47.8926708  76.3990707
  72.8697092  47.4318205  75.3857386  75.3191085  45.3251254  70.5706031
  74.4420552  45.2040055  70.2068278  75.7948838  44.5337332  70.3184920
  70.0469779  46.9193109  76.0118937  70.3423220  46.0103788  75.9585990
  69.1457815  46.8980849  75.6899939  71.7757621  44.6007207  76.1358262
  71.4470327  43.7204586  75.9533368  72.1296991  44.5454876  77.0234651
  76.8767591  43.3854798  74.7027032  77.5975954  43.7636051  74.1990749
  76.2532895  44.1043675  74.8062010  77.0231214  42.9202589  77.5324569
  77.1447125  41.9919235  77.7315456  76.7333257  42.9341275  76.6202884
  73.0209554  46.2650257  74.1287686  72.3278799  46.3394612  73.4727722
  72.7761306  45.5010600  74.6509203  79.8803477  48.3365665  70.4368256
  80.8262582  48.2071873  70.5056674  79.5017722  47.5980327  70.9137684
  78.0646394  46.2615641  70.3723141  77.1577850  45.9648754  70.4485855
  78.3422375  45.9645459  69.5057427  76.8345179  43.1202576  70.5135120
  77.6964343  43.4457475  70.7730938  77.0195523  42.3334072  70.0008186
  77.7874622  40.3598619  73.8014829  77.7753292  41.3040459  73.9583100
  78.6798044  40.1768765  73.5074291  54.8863032   6.2319545  64.4821331
  54.8087062   7.1827370  64.5609811  54.2824676   5.8865418  65.1396257
  53.5456999   3.7421066  71.8587891  54.0964424   3.6138130  71.0864885
  52.7068475   4.0415955  71.5082784  59.7597562   5.6635904  59.6382593
  59.0859261   5.9667601  60.2467551  60.1463384   6.4664984  59.2888050
  57.9588777   5.8315577  61.8529673  58.1340533   5.3603620  62.6675295
  57.2721565   6.4581343  62.0810933  52.5249862   8.9804939  68.6269533
  52.7646460   9.6123463  69.3048551  51.6819059   8.6292979  68.9134892
  57.0377724   4.7884062  71.0311037  56.9647896   5.5939033  71.5430341
  56.5955117   4.9876028  70.2059058  56.8267504   4.0255832  64.5413858
  56.0435026   4.5677512  64.6352083  57.5260249   4.5429811  64.9408099
  59.4976408   4.6870896  73.1869195  60.2104380   5.3218361  73.1145097
  59.0066436   4.7834762  72.3709197  50.1456039   1.9701694  70.9405869
  50.7309476   1.2245382  71.0733773  49.9480878   2.2805651  71.8242533
  52.9994694   5.0052942  65.9568311  52.3305070   5.4899069  65.4732351
  52.8607564   5.2522162  66.8711690  57.1399963   7.0396685  72.5550970
  57.6918271   7.2028307  73.3200055  57.4806156   7.6301123  71.8830994
  57.3086386   6.7593076  66.8005001  56.8691377   6.2669455  67.4937857
  58.0594503   6.2166044  66.5597076  49.7878725   2.9504617  66.8029629
  50.6136745   2.6508389  66.4228272  49.4372777   2.1812240  67.2519417
  47.9887330   0.8690944  67.7618562  47.1519239   0.4413118  67.5802563
  47.9610976   1.0623387  68.6989353  50.0999436   5.0817232  68.5243443
  49.9653904   4.3217633  67.9581441  49.6831498   5.8058132  68.0572232
  53.2568562   5.9786549  68.7361886  53.1400946   6.9231981  68.6340576
  52.4361008   5.6760110  69.1247685  54.2823076   6.6314811  71.9517814
  55.1850323   6.6638421  72.2684309  54.0560446   5.7015262  71.9664150
  56.0376678   5.3845797  68.6127893  55.0872309   5.3847659  68.4992265
  56.3409164   4.6378532  68.0963927  64.4405894  13.0269240  65.6032071
  63.8770759  12.9359177  64.8348359  64.3258289  12.2069144  66.0834563
  61.9870326  14.5220432  68.4416291  62.7791618  14.1811256  68.0262591
  62.2266976  14.6315407  69.3618445  70.0205452  16.6940208  60.9146536
  69.3693432  17.2794288  60.5280549  70.8149815  17.2246403  60.9741573
  63.9461080  13.7829345  61.3133670  64.7191956  13.2358332  61.1746546
  64.2986478  14.6473594  61.5248131  66.2827357   9.9422011  58.9452120
  66.5352878   9.4203532  58.1835583  65.3451916   9.7788156  59.0478804
  71.4980718  14.3830640  61.4515520  70.8626550  14.4565266  62.1636425
  71.1678124  14.9724239  60.7734599  66.0023646  11.8450117  61.1476495
  65.8859904  11.1695020  61.8157579  66.1125906  11.3582491  60.3308648
  68.3455187  11.3060264  64.8523184  67.9813394  10.7790885  65.5636106
  69.2022303  10.9158733  64.6789670  64.1948489  11.2480940  67.5487067
  63.2698985  11.1157154  67.7564759  64.4432902  12.0275159  68.0457010
  67.9649895   8.7907821  60.8331199  67.8449520   9.2364872  61.6716680
  67.2702483   9.1393139  60.2744738  61.5557300  10.8914213  68.3830857
  61.6849681  11.1448692  69.2970268  60.8754751  11.4841921  68.0635512
  65.7256787  21.5611463  64.4821331  65.6480817  22.5119288  64.5609811
  65.1218431  21.2157336  65.1396257  67.8232505  13.9829521  66.3175200
  68.2870851  14.2617224  65.5279823  67.5589303  13.0812966  66.1348291
  64.7156586  13.5301003  69.2554963  65.2857943  13.9588271  68.6172448
  65.3064698  13.2483587  69.9539149  66.7601391  10.1052673  63.1264765
  67.4625435  10.5573717  63.5938692  66.4282020   9.4636492  63.7544658
  60.5026725   8.3636226  68.4281899  59.7125779   8.6193755  67.9522009
  60.9937973   9.1784564  68.5333939  62.4541471   8.7280805  65.3865375
  61.6572634   8.8399500  65.9048871  62.2267063   9.0667457  64.5206266
  58.7864428   8.6166716  70.8596890  59.0372467   9.5013726  71.1254466
  59.3223977   8.4371318  70.0871981  67.9995156  16.9193616  63.2026870
  67.8640831  17.7645152  63.6311718  68.5404968  17.1212894  62.4392804
  61.4524553  14.4369054  63.7754796  61.9649074  15.2312304  63.9260360
  62.1047266  13.7395344  63.7088397  63.2619438  17.5534810  65.8577549
  63.4386066  18.4752775  65.6698533  64.0576272  17.2393229  66.2871929
  64.3850753  19.0712984  71.8587891  64.9358179  18.9430047  71.0864885
  63.5462229  19.3707873  71.5082784  59.4173470  12.7657708  64.5514366
  60.2548692  13.1754717  64.3348074  59.5951738  11.8257150  64.5214560
  71.3137902  10.4332789  60.2398199  70.7984526  11.2037394  60.4786586
  71.0415211   9.7597925  60.8631260  76.2872176  13.1865144  62.1751373
  75.5101619  12.8476303  61.7306535  76.9663657  13.1917767  61.5006338
  69.5470637  14.4650104  63.7150934  69.0191999  13.7302864  63.4024172
  69.0458140  15.2424781  63.4690903  64.6058952   7.1574232  60.0953431
  63.7696264   7.4948918  60.4162706  64.4663722   7.0223211  59.1580568
  67.6923237  12.2830315  56.7185907  66.7850299  12.0519568  56.9177056
  68.1894269  11.4867934  56.9059889  70.5991316  20.9927822  59.6382593
  69.9253015  21.2959519  60.2467551  70.9857138  21.7956902  59.2888050
  70.5984821   9.8884369  64.2582943  71.3456640  10.4005766  63.9490065
  70.8676410   9.5668422  65.1187337  68.8711471  12.3842910  61.2409897
  67.9622690  12.1001942  61.3382367  68.9006555  12.8041988  60.3813204
  74.1030738  15.9949499  65.0101065  73.6493065  15.1540409  65.0666255
  73.4724705  16.6310897  65.3475845  72.5463677  17.8325996  65.9450883
  72.8386652  18.3931053  65.2263249  73.0562298  18.1254557  66.7004042
  59.4399641  10.1048424  65.2225100  59.2424041   9.5117784  64.4976166
  58.8846305   9.8000634  65.9401038  67.4196365   9.9971530  67.3419693
  67.4744975   9.0445367  67.2662169  66.6087567  10.1530969  67.8260991
  68.5687559  13.9251653  58.5797976  68.1306989  13.2087512  58.1203613
  69.3097999  14.1527768  58.0183067  65.3588725   8.6148590  65.1010072
  64.5456590   8.9142760  65.5075264  65.8547719   8.2204279  65.8184554
  67.5097303  18.6106347  67.0344336  67.4673481  18.8367193  66.1052868
  68.4260002  18.3769721  67.1830137  65.6263103  15.4869376  66.8306299
  66.4203702  14.9919696  66.6288874  64.9154796  14.9587239  66.4674005
  70.4457948  17.8687471  71.1818667  70.4994970  18.4378408  71.9496382
  69.5772729  18.0389356  70.8172704  61.9345867   9.6312458  62.9066052
  61.0043455   9.5696913  63.1236014  62.0303339   9.1088410  62.1102693
  61.8531416   6.1567270  65.4944293  62.1138233   7.0712604  65.3853454
  62.6748588   5.6891713  65.6440906  68.2034379  16.0598398  70.5104136
  68.0645465  15.6917182  71.3830074  67.4148976  16.5746037  70.3388094
  68.7982531  21.1607494  61.8529673  68.9734287  20.6895537  62.6675295
  68.1115319  21.7873260  62.0810933  69.7539595  15.4380000  67.8992974
  69.4189427  15.3980770  68.7950624  69.2543540  14.7724716  67.4263384
  72.6898786  12.7836035  58.1730033  72.0727957  12.0582863  58.0763086
  72.2215275  13.5445395  57.8297108  63.3643617  24.3096857  68.6269533
  63.6040215  24.9415381  69.3048551  62.5212813  23.9584897  68.9134892
  55.9999472  11.7898619  67.3892845  56.6870512  11.4760349  66.8013860
  55.8447601  12.6939983  67.1160096  60.8034194   6.6788815  71.8177869
  60.7192383   6.0714485  71.0828279  59.9816901   7.1697834  71.8187365
  67.8771479  20.1175979  71.0311037  67.8041650  20.9230951  71.5430341
  67.4348872  20.3167945  70.2059058  67.6661258  19.3547749  64.5413858
  66.8828780  19.8969430  64.6352083  68.3654003  19.8721729  64.9408099
  70.3370162  20.0162813  73.1869195  71.0498134  20.6510278  73.1145097
  69.8460191  20.1126679  72.3709197  72.0587689  13.9214066  64.7586487
  71.1243968  14.0415529  64.5891191  72.2364357  13.0186533  64.4946497
  65.3882076  17.7657257  74.0074766  66.0891535  18.3993740  74.1604160
  64.9177191  18.1071988  73.2470405  73.5136471  16.1075207  62.2922673
  73.7896315  15.9931801  63.2016547  72.6440970  15.7092692  62.2534846
  70.1490535  20.3561558  65.9355487  70.3312930  19.5383214  66.3983239
  70.9723521  20.5729250  65.4980377  70.4832701  19.2829743  63.1970535
  71.0120467  18.7722197  62.5840697  70.7460921  18.9672273  64.0616068
  60.9849794  17.2993612  70.9405869  61.5703230  16.5537300  71.0733773
  60.7874632  17.6097569  71.8242533  63.8388449  20.3344859  65.9568311
  63.1698824  20.8190987  65.4732351  63.7001319  20.5814080  66.8711690
  55.5767448   9.8699212  69.6610312  55.6151548   9.3362803  70.4547430
  55.0707741   9.3434418  69.0421289  67.9793717  22.3688603  72.5550970
  68.5312026  22.5320224  73.3200055  68.3199911  22.9593041  71.8830994
  59.2076026   8.5963314  62.7364243  59.5029467   7.6873993  62.6831297
  58.3064062   8.5751054  62.4145246  71.1162105  20.3170578  69.5414652
  70.9913244  19.5160318  69.0325597  71.7741196  20.8116772  69.0528622
  62.7370273   6.6719311  68.7191792  62.0156859   7.2855279  68.5799265
  63.5263529   7.2077076  68.6408438  60.9363868   6.2777412  62.8603569
  60.6076574   5.3974791  62.6778674  61.2903238   6.2225081  63.7479958
  70.1843446  17.9132315  67.3698554  70.0368409  16.9849022  67.5506124
  71.0096940  17.9352405  66.8855629  64.0505691   6.5650382  63.2279046
  64.3901763   7.0936303  62.5057655  64.4977811   6.9030788  64.0037613
  73.7877568  18.7360873  68.4563427  74.7124116  18.5303735  68.3187878
  73.6192872  18.4877275  69.3652768  64.9204182   8.7255866  68.9401416
  64.7748763   9.0396169  69.8325697  64.4429386   9.3440766  68.3872315
  73.5772884  19.2546541  63.8125518  73.7509762  18.6892963  63.0599371
  74.0701776  20.0547436  63.6305008  59.3949844  11.2661210  71.8789077
  58.8503312  12.0421018  72.0109351  60.2729194  11.6132014  71.7208199
  74.5648057  18.5713305  60.9122417  75.2598962  19.1919998  61.1309731
  74.9071207  17.7208657  61.1874794  60.1815866  10.3931106  74.7719234
  59.4397602  10.5413742  75.3583864  59.8608610  10.6539372  73.9085983
  76.4639480  16.0213011  62.4409747  76.9890804  16.3600284  61.7159067
  76.3761833  15.0860026  62.2572882  68.1480141  22.0884994  66.8005001
  67.7085131  21.5961373  67.4937857  68.8988258  21.5457962  66.5597076
  60.6272480  18.2796535  66.8029629  61.4530500  17.9800307  66.4228272
  60.2766532  17.5104157  67.2519417  65.5954013  17.6323003  68.8727302
  64.9734022  16.9693708  68.5729530  66.2658880  17.6584135  68.1900950
  58.8281085  16.1982861  67.7618562  57.9912993  15.7705036  67.5802563
  58.8004730  16.3915305  68.6989353  65.1567520  16.1826927  62.3485763
  65.3055640  16.8662391  61.6952435  65.9633963  16.1632017  62.8635218
  62.9120153  12.2092104  63.3546832  62.6666195  11.3054434  63.5527042
  63.0816067  12.2109255  62.4126310  62.1815800   7.9420462  60.8532993
  61.4885045   8.0164817  60.1973029  61.9367552   7.1780805  61.3754510
  68.6562925  18.6775057  59.8197510  68.0836893  19.2965244  59.3667982
  69.2295719  19.2274419  60.3537432  71.8760185  18.9612207  60.9506092
  72.8090858  18.8957769  61.1538968  71.7883398  19.7968474  60.4920625
  74.5048202  18.2778077  57.9110040  74.4261833  17.9437941  58.8045798
  75.3257869  18.7699845  57.9101512  69.0409724  10.0135870  57.1613563
  69.9868829   9.8842078  57.2301981  68.6623969   9.2750532  57.6382991
  67.2252641   7.9385846  57.0968448  66.3184096   7.6418959  57.1731161
  67.5028622   7.6415664  56.2302734  58.1430581   9.2592210  67.5467494
  57.8233366   8.4057518  67.2541868  57.5964010   9.4740788  68.3025462
  61.9210489  11.9754651  71.2637001  62.1396499  12.9071758  71.2825035
  62.3336263  11.6162625  72.0491805  58.0118841  12.8795121  69.5160616
  57.3182313  12.4649074  69.0030570  58.7591832  12.9215658  68.9194035
  59.9255584  12.8113375  67.3926631  59.9026272  12.9101062  66.4408514
  60.2356220  13.6578526  67.7143797  62.5842962  14.8689530  71.5073245
  63.5386215  14.8373472  71.4403177  62.3855485  14.4080154  72.3223471
  63.1742344  13.4390646  74.0744043  63.9935233  13.9334725  74.0978880
  63.4479152  12.5222614  74.0461610  60.9393191  20.4109149  68.5243443
  60.8047659  19.6509550  67.9581441  60.5225253  21.1350049  68.0572232
  72.0752154  15.5946073  57.5320018  72.7788004  15.7996075  58.1477674
  71.3514802  16.1622835  57.7969102  72.9049964  11.3455934  63.6522288
  72.8485165  11.8024486  62.8129921  73.4578306  10.5846619  63.4745131
  64.0962317  21.3078466  68.7361886  63.9794701  22.2523899  68.6340576
  63.2754763  21.0052028  69.1247685  73.9838851  16.0328602  59.5818478
  74.8184455  15.6009801  59.3995953  73.8223194  15.8610616  60.5095373
  73.6384743  12.5360715  60.9474818  73.5833547  12.3704987  60.0063262
  73.0130799  13.2436748  61.1037007  58.4277258   7.7728780  74.7736240
  59.0736122   7.2627734  75.2623465  58.2194409   8.5097461  75.3479665
  65.1216831  21.9606728  71.9517814  66.0244077  21.9930339  72.2684309
  64.8954201  21.0307179  71.9664150  66.8770433  20.7137715  68.6127893
  65.9266064  20.7139576  68.4992265  67.1802919  19.9670449  68.0963927
  75.2799648  28.3561158  65.6032071  74.7164513  28.2651095  64.8348359
  75.1652043  27.5361062  66.0834563  72.8264080  29.8512349  68.4416291
  73.6185372  29.5103174  68.0262591  73.0660730  29.9607324  69.3618445
  80.8599207  32.0232125  60.9146536  80.2087187  32.6086206  60.5280549
  81.6543570  32.5538320  60.9741573  74.7854834  29.1121263  61.3133670
  75.5585710  28.5650250  61.1746546  75.1380233  29.9765512  61.5248131
  77.1221112  25.2713929  58.9452120  77.3746633  24.7495450  58.1835583
  76.1845671  25.1080074  59.0478804  82.3374472  29.7122557  61.4515520
  81.7020305  29.7857184  62.1636425  82.0071878  30.3016156  60.7734599
  76.8417401  27.1742035  61.1476495  76.7253659  26.4986938  61.8157579
  76.9519660  26.6874409  60.3308648  79.1848942  26.6352182  64.8523184
  78.8207149  26.1082803  65.5636106  80.0416057  26.2450651  64.6789670
  78.8254428  21.6642081  59.8484533  78.9928831  22.5322318  60.2155004
  78.6351598  21.8269363  58.9245822  75.0342243  26.5772857  67.5487067
  74.1092740  26.4449071  67.7564759  75.2826656  27.3567076  68.0457010
  78.8043649  24.1199739  60.8331199  78.6843275  24.5656790  61.6716680
  78.1096238  24.4685057  60.2744738  72.3951054  26.2206131  68.3830857
  72.5243435  26.4740610  69.2970268  71.7148505  26.8133839  68.0635512
  76.5650541  36.8903381  64.4821331  76.4874571  37.8411206  64.5609811
  75.9612185  36.5449253  65.1396257  78.6626260  29.3121439  66.3175200
  79.1264605  29.5909142  65.5279823  78.3983058  28.4104883  66.1348291
  75.5550341  28.8592920  69.2554963  76.1251698  29.2880189  68.6172448
  76.1458453  28.5775505  69.9539149  77.5995146  25.4344591  63.1264765
  78.3019189  25.8865635  63.5938692  77.2675774  24.7928410  63.7544658
  71.3420480  23.6928144  68.4281899  70.5519534  23.9485672  67.9522009
  71.8331727  24.5076482  68.5333939  73.2935225  24.0572723  65.3865375
  72.4966388  24.1691417  65.9048871  73.0660817  24.3959375  64.5206266
  69.6258183  23.9458634  70.8596890  69.8766221  24.8305644  71.1254466
  70.1617731  23.7663236  70.0871981  78.8388910  32.2485534  63.2026870
  78.7034585  33.0937069  63.6311718  79.3798723  32.4504811  62.4392804
  72.2918308  29.7660972  63.7754796  72.8042828  30.5604222  63.9260360
  72.9441021  29.0687262  63.7088397  74.1013192  32.8826728  65.8577549
  74.2779821  33.8044693  65.6698533  74.8970026  32.5685147  66.2871929
  75.2244508  34.4004902  71.8587891  75.7751933  34.2721965  71.0864885
  74.3855984  34.6999791  71.5082784  70.2567225  28.0949626  64.5514366
  71.0942447  28.5046634  64.3348074  70.4345492  27.1549068  64.5214560
  82.1531657  25.7624707  60.2398199  81.6378280  26.5329311  60.4786586
  81.8808965  25.0889843  60.8631260  79.7378768  20.6074407  65.2983437
  78.8820364  20.2181258  65.1189076  80.1505719  20.6866368  64.4383223
  81.9417960  23.6351799  62.0657980  81.6368095  23.9497948  62.9168123
  82.8948402  23.7133219  62.1085313  80.3864392  29.7942022  63.7150934
  79.8585753  29.0594782  63.4024172  79.8851894  30.5716698  63.4690903
  75.1183119  20.4561688  66.0757546  75.6926871  20.2336870  65.3430739
  75.7054102  20.5250383  66.8286147  75.4452706  22.4866149  60.0953431
  74.6090019  22.8240836  60.4162706  75.3057476  22.3515129  59.1580568
  77.4205787  17.3302937  64.8032615  76.7670199  17.0151954  64.1789230
  77.3786261  16.7078678  65.5292438  78.5316992  27.6122232  56.7185907
  77.6244054  27.3811486  56.9177056  79.0288024  26.8159852  56.9059889
  81.4385071  36.3219740  59.6382593  80.7646770  36.6251436  60.2467551
  81.8250893  37.1248820  59.2888050  81.4378575  25.2176286  64.2582943
  82.1850394  25.7297684  63.9490065  81.7070165  24.8960339  65.1187337
  79.7105225  27.7134827  61.2409897  78.8016445  27.4293860  61.3382367
  79.7400309  28.1333906  60.3813204  70.2793396  25.4340341  65.2225100
  70.0817796  24.8409702  64.4976166  69.7240060  25.1292551  65.9401038
  78.2590119  25.3263448  67.3419693  78.3138729  24.3737284  67.2662169
  77.4481321  25.4822887  67.8260991  79.4081313  29.2543571  58.5797976
  78.9700743  28.5379430  58.1203613  80.1491754  29.4819686  58.0183067
  76.1982479  23.9440508  65.1010072  75.3850345  24.2434678  65.5075264
  76.6941473  23.5496196  65.8184554  78.3491057  33.9398264  67.0344336
  78.3067236  34.1659111  66.1052868  79.2653756  33.7061639  67.1830137
  76.4656858  30.8161293  66.8306299  77.2597456  30.3211614  66.6288874
  75.7548550  30.2879157  66.4674005  81.2851702  33.1979389  71.1818667
  81.3388725  33.7670325  71.9496382  80.4166484  33.3681274  70.8172704
  72.7739621  24.9604375  62.9066052  71.8437209  24.8988831  63.1236014
  72.8697093  24.4380328  62.1102693  72.6925170  21.4859188  65.4944293
  72.9531988  22.4004521  65.3853454  73.5142343  21.0183631  65.6440906
  79.0428134  31.3890315  70.5104136  78.9039220  31.0209100  71.3830074
  78.2542730  31.9037955  70.3388094  79.6376286  36.4899412  61.8529673
  79.8128042  36.0187455  62.6675295  78.9509074  37.1165178  62.0810933
  80.5933349  30.7671918  67.8992974  80.2583182  30.7272688  68.7950624
  80.0937295  30.1016634  67.4263384  74.2037371  39.6388775  68.6269533
  74.4433969  40.2707299  69.3048551  73.3606568  39.2876815  68.9134892
  75.3191087  22.3313377  57.2951338  74.4420553  22.2102178  56.9313584
  75.7948840  21.5399455  57.0430226  66.8393227  27.1190537  67.3892845
  67.5264267  26.8052267  66.8013860  66.6841355  28.0231901  67.1160096
  71.6427949  22.0080733  71.8177869  71.5586138  21.4006403  71.0828279
  70.8210655  22.4989751  71.8187365  78.7165233  35.4467897  71.0311037
  78.6435405  36.2522869  71.5430341  78.2742626  35.6459863  70.2059058
  78.5055013  34.6839667  64.5413858  77.7222535  35.2261347  64.6352083
  79.2047758  35.2013647  64.9408099  81.1763917  35.3454731  73.1869195
  81.8891889  35.9802196  73.1145097  80.6853945  35.4418597  72.3709197
  82.8981443  29.2505984  64.7586487  81.9637722  29.3707446  64.5891191
  83.0758112  28.3478451  64.4946497  78.3986632  22.6351680  66.9119748
  78.0284419  22.0822720  67.6000654  78.8945724  22.0309813  66.3594748
  76.2275830  33.0949175  74.0074766  76.9285290  33.7285658  74.1604160
  75.7570945  33.4363906  73.2470405  80.9884290  35.6853475  65.9355487
  81.1706684  34.8675131  66.3983239  81.8117276  35.9021168  65.4980377
  81.3226455  34.6121660  63.1970535  81.8514222  34.1014115  62.5840697
  81.5854675  34.2964191  64.0616068  71.8243548  32.6285530  70.9405869
  72.4096985  31.8829218  71.0733773  71.6268387  32.9389486  71.8242533
  74.6782203  35.6636777  65.9568311  74.0092579  36.1482905  65.4732351
  74.5395073  35.9105998  66.8711690  66.4161203  25.1991130  69.6610312
  66.4545302  24.6654721  70.4547430  65.9101496  24.6726335  69.0421289
  78.8187472  37.6980521  72.5550970  79.3705780  37.8612142  73.3200055
  79.1593665  38.2884958  71.8830994  70.0469780  23.9255232  62.7364243
  70.3423222  23.0165910  62.6831297  69.1457816  23.9042971  62.4145246
  81.9555859  35.6462496  69.5414652  81.8306999  34.8452236  69.0325597
  82.6134950  36.1408689  69.0528622  73.5764027  22.0011229  68.7191792
  72.8550613  22.6147196  68.5799265  74.3657283  22.5368993  68.6408438
  71.7757622  21.6069330  62.8603569  71.4470328  20.7266709  62.6778674
  72.1296993  21.5516998  63.7479958  81.0237201  33.2424232  67.3698554
  80.8762163  32.3140940  67.5506124  81.8490694  33.2644323  66.8855629
  74.8899445  21.8942299  63.2279046  75.2295518  22.4228221  62.5057655
  75.3371566  22.2322706  64.0037613  76.8767592  20.3916921  61.4272339
  77.5975955  20.7698174  60.9236056  76.2532896  21.1105798  61.5307317
  81.0198715  21.0962070  62.3630671  81.2362330  21.9786708  62.0619499
  80.5392782  20.7048283  61.6336313  75.7597937  24.0547783  68.9401416
  75.6142517  24.3688086  69.8325697  75.2823140  24.6732684  68.3872315
  70.2343599  26.5953128  71.8789077  69.6897067  27.3712936  72.0109351
  71.1122949  26.9423932  71.7208199  77.0231215  19.9264712  64.2569876
  77.1447127  18.9981358  64.4560763  76.7333258  19.9403398  63.3448191
  71.0209621  25.7223024  74.7719234  70.2791357  25.8705659  75.3583864
  70.7002365  25.9831290  73.9085983  78.9873895  37.4176912  66.8005001
  78.5478886  36.9253291  67.4937857  79.7382012  36.8749879  66.5597076
  71.4666234  33.6088453  66.8029629  72.2924254  33.3092225  66.4228272
  71.1160286  32.8396075  67.2519417  76.4347767  32.9614921  68.8727302
  75.8127777  32.2985626  68.5729530  77.1052634  32.9876053  68.1900950
  69.6674839  31.5274779  67.7618562  68.8306748  31.0996953  67.5802563
  69.6398485  31.7207222  68.6989353  75.9961274  31.5118844  62.3485763
  76.1449395  32.1954309  61.6952435  76.8027718  31.4923934  62.8635218
  73.7513907  27.5384022  63.3546832  73.5059949  26.6346352  63.5527042
  73.9209822  27.5401172  62.4126310  73.0209555  23.2712379  60.8532993
  72.3278800  23.3456734  60.1973029  72.7761307  22.5072723  61.3754510
  79.4956680  34.0066975  59.8197510  78.9230647  34.6257162  59.3667982
  80.0689474  34.5566336  60.3537432  79.8803478  25.3427787  57.1613563
  80.8262583  25.2133996  57.2301981  79.5017723  24.6042449  57.6382991
  78.0646396  23.2677764  57.0968448  77.1577851  22.9710877  57.1731161
  78.3422377  22.9707582  56.2302734  68.9824336  24.5884127  67.5467494
  68.6627120  23.7349435  67.2541868  68.4357764  24.8032705  68.3025462
  72.7604244  27.3046568  71.2637001  72.9790253  28.2363676  71.2825035
  73.1730017  26.9454543  72.0491805  76.8345180  20.1264699  57.2380427
  77.6964344  20.4519597  57.4976244  77.0195524  19.3396195  56.7253493
  68.8512596  28.2087039  69.5160616  68.1576067  27.7940992  69.0030570
  69.5985587  28.2507575  68.9194035  70.7649338  28.1405293  67.3926631
  70.7420027  28.2392980  66.4408514  71.0749975  28.9870443  67.7143797
  73.4236716  30.1981448  71.5073245  74.3779970  30.1665390  71.4403177
  73.2249240  29.7372071  72.3223471  74.0136098  28.7682564  74.0744043
  74.8328987  29.2626642  74.0978880  74.2872906  27.8514532  74.0461610
  71.7786945  35.7401067  68.5243443  71.6441413  34.9801468  67.9581441
  71.3619007  36.4641967  68.0572232  74.9356071  36.6370384  68.7361886
  74.8188455  37.5815817  68.6340576  74.1148517  36.3343946  69.1247685
  69.2671013  23.1020697  74.7736240  69.9129876  22.5919651  75.2623465
  69.0588164  23.8389379  75.3479665  77.7874623  17.3660742  60.5260136
  77.7753293  18.3102582  60.6828407  78.6798045  17.1830887  60.2319597
  75.9610585  37.2898646  71.9517814  76.8637832  37.3222256  72.2684309
  75.7347955  36.3599097  71.9664150  77.7164187  36.0429632  68.6127893
  76.7659818  36.0431494  68.4992265  78.0196673  35.2962367  68.0963927
  82.1814234  39.0220061  68.4281899  81.3913288  39.2777590  67.9522009
  82.6725482  39.8368399  68.5333939  80.4651937  39.2750552  70.8596890
  80.7159976  40.1597562  71.1254466  81.0011486  39.0955153  70.0871981
  81.0960979  43.4241544  64.5514366  81.9336201  43.8338552  64.3348074
  81.2739247  42.4840986  64.5214560  81.1187150  40.7632259  65.2225100
  80.9211550  40.1701620  64.4976166  80.5633814  40.4584469  65.9401038
  77.6786981  42.4482454  67.3892845  78.3658021  42.1344184  66.8013860
  77.5235110  43.3523819  67.1160096  82.4821703  37.3372651  71.8177869
  82.3979892  36.7298320  71.0828279  81.6604410  37.8281669  71.8187365
  77.2554957  40.5283048  69.6610312  77.2939057  39.9946638  70.4547430
  76.7495250  40.0018253  69.0421289  80.8863535  39.2547150  62.7364243
  81.1816976  38.3457828  62.6831297  79.9851571  39.2334889  62.4145246
  82.6151377  36.9361247  62.8603569  82.2864083  36.0558626  62.6778674
  82.9690747  36.8808916  63.7479958  81.0737353  41.9245045  71.8789077
  80.5290821  42.7004853  72.0109351  81.9516703  42.2715850  71.7208199
  81.8603375  41.0514942  74.7719234  81.1185111  41.1997577  75.3583864
  81.5396119  41.3123207  73.9085983  82.3059989  48.9380370  66.8029629
  83.1318009  48.6384142  66.4228272  81.9554041  48.1687993  67.2519417
  80.5068594  46.8566697  67.7618562  79.6700502  46.4288871  67.5802563
  80.4792239  47.0499140  68.6989353  79.8218090  39.9176045  67.5467494
  79.5020875  39.0641353  67.2541868  79.2751519  40.1324623  68.3025462
  79.6906350  43.5378956  69.5160616  78.9969822  43.1232909  69.0030570
  80.4379341  43.5799493  68.9194035  81.6043093  43.4697210  67.3926631
  81.5813781  43.5684897  66.4408514  81.9143729  44.3162361  67.7143797
  82.6180700  51.0692985  68.5243443  82.4835168  50.3093386  67.9581441
  82.2012762  51.7933885  68.0572232  80.1064767  38.4312615  74.7736240
  80.7523631  37.9211569  75.2623465  79.8981918  39.1681297  75.3479665
  76.5650543  13.8965503  51.2066637  76.4874572  14.8473328  51.2855118
  75.9612186  13.5511376  51.8641564  75.2244509  11.4067024  58.5833198
  75.7751934  11.2784088  57.8110192  74.3855985  11.7061913  58.2328090
  81.4385072  13.3281862  46.3627900  80.7646771  13.6313559  46.9712858
  81.8250894  14.1310942  46.0133357  79.6376287  13.4961535  48.5774979
  79.8128043  13.0249578  49.3920602  78.9509075  14.1227301  48.8056240
  74.2037372  16.6450897  55.3514839  74.4433971  17.2769421  56.0293858
  73.3606569  16.2938937  55.6380199  78.7165234  12.4530020  57.7556343
  78.6435406  13.2584991  58.2675648  78.2742627  12.6521986  56.9304365
  78.5055014  11.6901790  51.2659165  77.7222536  12.2323470  51.3597389
  79.2047759  12.2075769  51.6653406  81.1763918  12.3516854  59.9114502
  81.8891890  12.9864319  59.8390403  80.6853946  12.4480720  59.0954504
  71.8243549   9.6347652  57.6651176  72.4096986   8.8891340  57.7979080
  71.6268388   9.9451609  58.5487839  74.6782205  12.6698900  52.6813618
  74.0092580  13.1545027  52.1977658  74.5395074  12.9168120  53.5956996
  78.8187473  14.7042643  59.2796276  79.3705781  14.8674265  60.0445361
  79.1593667  15.2947081  58.6076301  78.9873897  14.4239034  53.5250307
  78.5478887  13.9315413  54.2183164  79.7382014  13.8812002  53.2842382
  71.4666236  10.6150575  53.5274935  72.2924255  10.3154347  53.1473579
  71.1160288   9.8458198  53.9764724  69.6674841   8.5336902  54.4863869
  68.8306749   8.1059076  54.3047870  69.6398486   8.7269345  55.4234660
  71.7786946  12.7463190  55.2488750  71.6441414  11.9863591  54.6826748
  71.3619009  13.4704089  54.7817539  74.9356072  13.6432507  55.4607192
  74.8188456  14.5877939  55.3585883  74.1148519  13.3406068  55.8492992
  75.9610586  14.2960769  58.6763121  76.8637833  14.3284379  58.9929616
  75.7347956  13.3661219  58.6909457  77.7164188  13.0491755  55.3373199
  76.7659819  13.0493617  55.2237572  78.0196675  12.3024490  54.8209234
  82.1814235  16.0282184  55.1527205  81.3913289  16.2839712  54.6767316
  82.6725483  16.8430522  55.2579246  80.4651938  16.2812674  57.5842196
  80.7159977  17.1659684  57.8499772  81.0011487  16.1017276  56.8117288
  81.0960980  20.4303666  51.2759673  81.9336202  20.8400675  51.0593380
  81.2739248  19.4903108  51.2459867  81.1187151  17.7694382  51.9470406
  80.9211551  17.1763742  51.2221473  80.5633815  17.4646592  52.6646345
  77.6786983  19.4544577  54.1138152  78.3658022  19.1406307  53.5259167
  77.5235111  20.3585941  53.8405403  82.4821705  14.3434773  58.5423175
  82.3979893  13.7360443  57.8073585  81.6604411  14.8343792  58.5432672
  77.2554959  17.5345170  56.3855619  77.2939058  17.0008761  57.1792737
  76.7495251  17.0080376  55.7666596  80.8863536  16.2609272  49.4609550
  81.1816977  15.3519951  49.4076604  79.9851572  16.2397012  49.1390552
  82.6151378  13.9423370  49.5848875  82.2864084  13.0620749  49.4023981
  82.9690748  13.8871039  50.4725264  81.0737355  18.9307168  58.6034384
  80.5290823  19.7066976  58.7354658  81.9516704  19.2777972  58.4453505
  81.8603376  18.0577064  61.4964541  81.1185112  18.2059700  62.0829171
  81.5396121  18.3185330  60.6331290  82.3059990  25.9442493  53.5274935
  83.1318010  25.6446265  53.1473579  81.9554042  25.1750115  53.9764724
  80.5068595  23.8628819  54.4863869  79.6700503  23.4350994  54.3047870
  80.4792241  24.0561263  55.4234660  79.8218092  16.9238168  54.2712801
  79.5020876  16.0703476  53.9787175  79.2751520  17.1386746  55.0270768
  79.6906352  20.5441079  56.2405923  78.9969823  20.1295032  55.7275877
  80.4379343  20.5861616  55.6439341  81.6043094  20.4759333  54.1171937
  81.5813782  20.5747020  53.1653820  81.9143731  21.3224484  54.4389104
  82.6180701  28.0755107  55.2488750  82.4835169  27.3155508  54.6826748
  82.2012763  28.7996007  54.7817539  80.1064768  15.4374738  61.4981547
  80.7523632  14.9273692  61.9868772  79.8981920  16.1743419  62.0724972
  26.6630432  47.3524045  87.4655919  26.0118412  47.9378125  87.0789933
  27.4574795  47.8830240  87.5250957  32.9297156  43.8448981  88.7260756
  32.1526599  43.5060140  88.2815918  33.6088637  43.8501604  88.0515721
  24.3348217  42.9414152  83.2695291  23.4275279  42.7103405  83.4686440
  24.8319249  42.1451771  83.4569272  27.2416296  51.6511659  86.1891977
  26.5677995  51.9543356  86.7976935  27.6282118  52.4540739  85.8397434
  25.2112538  44.5835490  85.1307360  24.7731968  43.8671349  84.6712997
  25.9522979  44.8111605  84.5692451  25.4407511  51.8191331  88.4039056
  25.6159267  51.3479375  89.2184679  24.7540299  52.4457098  88.6320317
  29.3323766  43.4419872  84.7239417  28.7152936  42.7166700  84.6272470
  28.8640254  44.2029232  84.3806491  30.1561451  46.7659044  88.8432057
  30.4321295  46.6515638  89.7525931  29.2865950  46.3676529  88.8044230
  27.1257680  49.9413580  89.7479919  27.6545447  49.4306034  89.1350081
  27.3885900  49.6256110  90.6125452  30.2197864  49.9130378  90.3634902
  30.3934742  49.3476801  89.6108754  30.7126755  50.7131273  90.1814392
  31.2073037  49.2297142  87.4631800  31.9023941  49.8503835  87.6819115
  31.5496187  48.3792494  87.7384178  33.1064460  46.6796848  88.9919131
  33.6315784  47.0184121  88.2668451  33.0186812  45.7443863  88.8082266
  25.2987905  49.3358894  86.3706894  24.7261872  49.9549081  85.9177366
  25.8720699  49.8858256  86.9046816  28.5185165  49.6196044  87.5015476
  29.4515838  49.5541606  87.7048352  28.4308378  50.4552311  87.0430009
  31.1473181  48.9361915  84.4619424  31.0686813  48.6021778  85.3555182
  31.9682848  49.4283683  84.4610896  25.6834703  40.6719707  83.7122946
  26.6293808  40.5425915  83.7811364  25.3048948  39.9334369  84.1892374
  28.7177133  46.2529910  84.0829402  29.4212983  46.4579913  84.6987058
  27.9939782  46.8206672  84.3478486  30.6263831  46.6912439  86.1327862
  31.4609435  46.2593638  85.9505337  30.4648174  46.5194453  87.0604757
  30.2809723  43.1944553  87.4984201  30.2258527  43.0288824  86.5572645
  29.6555778  43.9020585  87.6546391  33.7646091  55.9297766  85.4961504
  34.0171612  55.4079287  84.7344967  32.8270650  55.7663911  85.5988187
  35.4679408  52.3225919  86.3993916  35.6353810  53.1906155  86.7664387
  35.2776577  52.4853200  85.4755206  32.0877686  53.1449986  86.6462815
  31.2514998  53.4824673  86.9672089  31.9482456  53.0098966  85.7089952
  34.0630767  47.9886774  91.3541999  33.4095179  47.6735792  90.7298614
  34.0211241  47.3662515  92.0801822  35.1741971  58.2706069  83.2695291
  34.2669033  58.0395323  83.4686440  35.6713003  57.4743689  83.4569272
  29.4164601  55.6188212  89.4575435  28.4862189  55.5572668  89.6745397
  29.5122073  55.0964165  88.6612077  31.9616066  52.9897214  83.8460721
  31.0845532  52.8686015  83.4822968  32.4373819  52.1983292  83.5939610
  26.6894760  54.5839069  89.2873627  26.9848201  53.6749748  89.2340681
  25.7882796  54.5626809  88.9654629  28.4182602  52.2653167  89.4112952
  28.0895308  51.3850546  89.2288058  28.7721972  52.2100836  90.2989341
  33.5192572  51.0500758  87.9781723  34.2400934  51.4282011  87.4745440
  32.8957876  51.7689635  88.0816701  33.6656195  50.5848549  90.8079259
  33.7872106  49.6565195  91.0070147  33.3758237  50.5987235  89.8957575
  29.6634534  53.9296217  87.4042377  28.9703779  54.0040572  86.7482413
  29.4186286  53.1656560  87.9263894  36.5228458  56.0011625  83.7122946
  37.4687563  55.8717833  83.7811364  36.1442703  55.2626286  84.1892374
  34.7071375  53.9261601  83.6477832  33.8002830  53.6294714  83.7240545
  34.9847356  53.6291419  82.7812118  36.3233441  48.4698491  89.8022073
  35.5134169  48.1245576  90.1777319  37.0117858  48.1606034  90.3909684
  33.4770160  50.7848536  83.7889811  34.3389324  51.1103434  84.0485628
  33.6620504  49.9980032  83.2762877  34.4299603  48.0244579  87.0769520
  34.4178273  48.9686419  87.2337791  35.3223025  47.8414725  86.7828981
  38.2451722  44.6187356  91.3315457  37.4784118  44.0645843  91.4772139
  38.6562427  44.6909225  92.1929608  26.6630433  24.3586167  74.1901226
  26.0118413  24.9440248  73.8035240  27.4574796  24.8892362  74.2496263
  32.9297157  20.8511103  75.4506063  32.1526600  20.5122263  75.0061225
  33.6088638  20.8563726  74.7761028  24.3348218  19.9476274  69.9940597
  23.4275280  19.7165528  70.1931746  24.8319250  19.1513894  70.1814579
  27.2416297  28.6573782  72.9137284  26.5677996  28.9605478  73.5222241
  27.6282119  29.4602862  72.5642741  25.2112539  21.5897613  71.8552666
  24.7731969  20.8733472  71.3958304  25.9522980  21.8173728  71.2937758
  25.4407512  28.8253454  75.1284363  25.6159268  28.3541497  75.9429986
  24.7540300  29.4519220  75.3565624  29.3323767  20.4481995  71.4484724
  28.7152938  19.7228823  71.3517776  28.8640255  21.2091355  71.1051798
  30.1561452  23.7721166  75.5677364  30.4321296  23.6577761  76.4771238
  29.2865951  23.3738651  75.5289537  27.1257682  26.9475702  76.4725226
  27.6545448  26.4368157  75.8595388  27.3885901  26.6318233  77.3370759
  30.2197865  26.9192501  77.0880209  30.3934743  26.3538923  76.3354061
  30.7126757  27.7193396  76.9059699  31.2073038  26.2359265  74.1877107
  31.9023942  26.8565958  74.4064422  31.5496188  25.3854616  74.4629485
  33.1064461  23.6858971  75.7164438  33.6315785  24.0246243  74.9913758
  33.0186813  22.7505986  75.5327572  25.2987906  26.3421017  73.0952200
  24.7261873  26.9611204  72.6422672  25.8720700  26.8920378  73.6292122
  28.5185166  26.6258167  74.2260783  29.4515839  26.5603729  74.4293658
  28.4308379  27.4614434  73.7675315  31.1473183  25.9424037  71.1864730
  31.0686814  25.6083901  72.0800488  31.9682849  26.4345805  71.1856203
  25.6834705  17.6781829  70.4368253  26.6293809  17.5488038  70.5056671
  25.3048950  16.9396491  70.9137681  28.7177134  23.2592033  70.8074709
  29.4212985  23.4642035  71.4232364  27.9939783  23.8268795  71.0723792
  30.6263832  23.6974562  72.8573169  31.4609436  23.2655760  72.6750643
  30.4648175  23.5256575  73.7850063  30.2809724  20.2006675  74.2229508
  30.2258528  20.0350947  73.2817952  29.6555779  20.9082708  74.3791698
  39.2548107  34.2144213  82.9528345  39.8926517  34.0950960  82.2491685
  39.1368950  35.1625057  83.0116298  36.0637813  34.1671641  82.8889870
  35.7256325  34.0512706  82.0010405  36.9327581  33.7662806  82.8690876
  31.9224629  36.0207117  78.8786761  31.3589494  35.9297054  78.1103049
  31.8077024  35.2007022  79.3589254  29.4689061  37.5158309  81.7170982
  30.2610353  37.1749134  81.3017281  29.7085711  37.6253284  82.6373135
  37.5024188  39.6878085  74.1901226  36.8512167  40.2732166  73.8035240
  38.2968550  40.2184280  74.2496263  31.4279815  36.7767222  74.5888360
  32.2010691  36.2296209  74.4501236  31.7805214  37.6411472  74.8002822
  34.1921064  35.4820453  84.3856619  34.7884636  35.2576475  83.6713582
  34.2496036  34.7405199  84.9882067  33.7646093  32.9359888  72.2206810
  34.0171613  32.4141410  71.4590273  32.8270652  32.7726034  72.3233494
  38.8089375  31.9395667  80.0281553  39.5952465  31.5215090  79.6771970
  39.0728080  32.8441759  80.1963202  38.9799453  37.3768517  74.7270210
  38.3445286  37.4503144  75.4391115  38.6496859  37.9662116  74.0489290
  44.2097803  31.8770900  80.9314532  44.9422975  31.3070117  81.1652361
  43.4537158  31.4892500  81.3721038  33.4842381  34.8387994  74.4231185
  33.3678639  34.1632898  75.0912270  33.5944641  34.3520368  73.6063338
  35.8273922  34.2998141  78.1277874  35.4632130  33.7728762  78.8390796
  36.6841038  33.9096611  77.9544360  35.4679409  29.3288041  73.1239223
  35.6353812  30.1968278  73.4909694  35.2776578  29.4915323  72.2000512
  38.2254742  37.7905020  84.7905053  37.9255466  38.6930059  84.6820861
  37.8805802  37.5237203  85.6426206  31.6767224  34.2418817  80.8241758
  30.7517720  34.1095031  81.0319450  31.9251637  35.0213036  81.3211700
  41.6251886  30.3087560  82.4702491  40.7168764  30.2402969  82.1761252
  41.5739482  30.7859505  83.2984316  35.4468630  31.7845699  74.1085890
  35.3268255  32.2302749  74.9471370  34.7521219  32.1331016  73.5499428
  29.0376035  33.8852090  81.6585547  29.1668416  34.1386569  82.5724959
  28.3573486  34.4779798  81.3390202  33.2075522  44.5549340  77.7576021
  33.1299552  45.5057165  77.8364502  32.6037166  44.2095213  78.4150947
  43.4913533  28.5103999  84.2480365  42.8487913  28.8036532  83.6020159
  42.9868461  28.3956919  85.0533561  41.1453696  32.2567172  74.9366224
  42.0571552  32.4894559  74.7613921  40.6363343  32.8404216  74.3741302
  39.7523279  37.2392990  82.3279805  39.1232141  37.4038704  81.6255873
  39.3648941  37.6534600  83.0990769  43.6312511  38.1747428  79.6824169
  42.9463549  38.5546330  79.1321202  43.7156360  38.7842755  80.4156117
  40.8863442  35.8207387  86.2819513  41.0980337  36.4639147  85.6053894
  40.8393190  34.9869704  85.8141443  35.3051240  36.9767398  79.5929890
  35.7689586  37.2555101  78.8034513  35.0408039  36.0750843  79.4102981
  32.1975322  36.5238880  82.5309654  32.7676679  36.9526148  81.8927138
  32.7883433  36.2421465  83.2293839  34.2420127  33.0990551  76.4019456
  34.9444170  33.5511594  76.8693382  33.9100755  32.4574370  77.0299349
  42.0009270  38.6979343  84.4541870  42.8226714  38.2959530  84.1724552
  41.9971673  38.5947577  85.4057986  29.9360206  31.7218683  78.6620066
  29.1391369  31.8337377  79.1803561  29.7085798  32.0605335  77.7960956
  35.7665873  38.2463386  86.6102580  35.8310306  38.7083793  87.4460752
  35.0576797  37.6160751  86.7384890  50.0915263  35.0418091  80.8026841
  49.3378971  34.4725489  80.6470846  50.2262804  35.0080756  81.7497476
  35.4813891  39.9131493  76.4781561  35.3459566  40.7583029  76.9066409
  36.0223704  40.1150771  75.7147495  28.9343289  37.4306931  77.0509486
  29.4467809  38.2250182  77.2015051  29.5866001  36.7333222  76.9843087
  30.7438173  40.5472688  79.1332239  30.9204802  41.4690652  78.9453223
  31.5395007  40.2331107  79.5626619  31.8669489  42.0650861  85.1342581
  32.4176914  41.9367925  84.3619575  31.0280965  42.3645750  84.7837474
  39.2063606  40.8157860  88.6363304  39.1882081  41.6366741  88.1443573
  40.1283526  40.6911935  88.8613445  26.8992205  35.7595586  77.8269056
  27.7367427  36.1692594  77.6102764  27.0770473  34.8195028  77.7969250
  38.7956637  33.4270666  73.5152889  38.2803261  34.1975271  73.7541277
  38.5233946  32.7535803  74.1385951  36.3803748  28.2720367  78.5738128
  35.5245345  27.8827218  78.3943766  36.7930700  28.3512328  77.7137913
  43.7690912  36.1803021  75.4506063  42.9920354  35.8414181  75.0061225
  44.4482393  36.1855644  74.7761028  38.5842941  31.2997758  75.3412670
  38.2793076  31.6143908  76.1922814  39.5373383  31.3779178  75.3840003
  37.0289372  37.4587982  76.9905624  36.5010734  36.7240741  76.6778862
  36.5276875  38.2362658  76.7445593  42.0082218  35.6537002  82.1072671
  41.3505893  36.3436264  82.1952799  42.8122618  36.0433434  82.4506657
  31.7608100  28.1207648  79.3512236  32.3351852  27.8982830  78.6185429
  32.3479083  28.1896343  80.1040837  40.8187677  34.0081375  80.1576613
  41.3319559  34.6411367  80.6598322  41.4688901  33.4082570  79.7919973
  32.0877687  30.1512109  73.3708121  31.2514999  30.4886796  73.6917396
  31.9482457  30.0161089  72.4335258  34.0630768  24.9948897  78.0787305
  33.4095180  24.6797914  77.4543920  34.0211242  24.3724637  78.8047128
  35.1741973  35.2768192  69.9940597  34.2669034  35.0457445  70.1931746
  35.6713005  34.4805811  70.1814579  38.0810052  43.9865699  72.9137284
  37.4071750  44.2897396  73.5222241  38.4675873  44.7894780  72.5642741
  37.2968508  31.4830830  82.4034953  36.3791070  31.7045778  82.2456641
  37.7128652  31.5577141  81.5446660  38.0803556  32.8822246  77.5337633
  38.8275375  33.3943643  77.2244755  38.3495145  32.5606299  78.3942027
  36.3530206  35.3780787  74.5164588  35.4441425  35.0939820  74.6137057
  36.3825290  35.7979865  73.6567894  41.5849473  38.9887376  78.2855755
  41.1311801  38.1478286  78.3420946  40.9543440  39.6248775  78.6230535
  40.5282393  29.9179362  79.5156423  39.7905150  29.4056749  79.8466665
  40.7809167  29.4779744  78.7039699  40.0282413  40.8263873  79.2205573
  40.3205387  41.3868930  78.5017939  40.5381033  41.1192434  79.9758732
  40.6294020  22.6955614  80.1098192  40.9352897  21.8352978  79.8224107
  41.3546625  23.2873235  79.9097186  26.9218376  33.0986301  78.4979790
  26.7242776  32.5055662  77.7730856  26.3665040  32.7938511  79.2155729
  34.9015100  32.9909408  80.6174383  34.9563710  32.0383244  80.5416860
  34.0906302  33.1468847  81.1015681  36.0506294  36.9189531  71.8552666
  35.6125724  36.2025390  71.3958304  36.7916735  37.1465645  71.2937758
  32.8407460  31.6086467  78.3764762  32.0275326  31.9080638  78.7829954
  33.3366454  31.2142156  79.0939244  34.9916038  41.6044224  80.3099026
  34.9492217  41.8305070  79.3807559  35.9078737  41.3707599  80.4584828
  44.1679409  35.1946728  77.9128985  44.0297307  35.3848324  76.9850174
  43.8115627  35.9566110  78.3697036  44.1948788  37.2623255  82.9240256
  44.6285295  37.1698544  83.7723310  44.9080369  37.2380755  82.2860272
  33.1081839  38.4807253  80.1060989  33.9022437  37.9857573  79.9043564
  32.3973531  37.9525116  79.7428695  37.9276683  40.8625349  84.4573357
  37.9813705  41.4316285  85.2251073  37.0591465  41.0327234  84.0927394
  29.4164602  32.6250335  76.1820742  28.4862190  32.5634790  76.3990704
  29.5122074  32.1026288  75.3857383  29.3350151  29.1505148  78.7698984
  29.5956969  30.0650481  78.6608144  30.1567324  28.6829590  78.9195596
  45.0564338  37.3046955  85.4573142  45.2500228  38.2092766  85.7032417
  44.9564956  36.8454374  86.2911727  36.8864783  35.0285611  86.0160289
  37.8156843  35.1796770  85.8429256  36.4655813  35.1169632  85.1608935
  35.6853115  39.0536275  83.7858826  35.5464200  38.6855060  84.6584764
  34.8967711  39.5683915  83.6142784  36.2801267  44.1545372  75.1284363
  36.4553022  43.6833415  75.9429986  35.5934055  44.7811138  75.3565624
  37.2358330  38.4317878  81.1747664  36.9008162  38.3918648  82.0705314
  36.7362276  37.7662594  80.7018074  40.1717521  35.7773912  71.4484724
  39.5546692  35.0520740  71.3517776  39.7034010  36.5383272  71.1051798
  41.8271653  40.4872821  89.1090504  41.7684199  39.8032041  88.4421087
  42.2291172  41.2291811  88.6571130  30.8462352  47.3034734  81.9024223
  31.0858950  47.9353259  82.5803242  30.0031548  46.9522774  82.1889582
  31.9616067  29.9959337  70.5706028  31.0845534  29.8748137  70.2068275
  32.4373820  29.2045415  70.3184917  41.8289060  38.4512405  87.3404484
  40.9415839  38.1138326  87.4630883  42.3987611  37.7195436  87.5773249
  23.4818208  34.7836496  80.6647535  24.1689247  34.4698226  80.0768550
  23.3266336  35.6877861  80.3914787  35.3590214  43.1113857  84.3065727
  35.2860385  43.9168828  84.8185032  34.9167607  43.3105823  83.4813748
  35.1479993  42.3485627  77.8168549  34.3647515  42.8907307  77.9106773
  35.8472739  42.8659607  78.2162790  38.4576644  28.1580256  80.4602754
  38.9545343  27.4050219  80.1403824  37.6863625  28.1944573  79.8945963
  46.3106401  33.8620622  82.1021045  46.2996277  34.7445337  81.7314979
  45.4423780  33.5092173  81.9075582  37.8188897  43.0100691  86.4623886
  38.5316870  43.6448156  86.3899787  37.3278926  43.1064557  85.6463887
  39.5406424  36.9151944  78.0341177  38.6062703  37.0353406  77.8645882
  39.7183093  36.0124410  77.7701187  35.0411612  30.2997639  80.1874439
  34.6709400  29.7468680  80.8755344  35.5370705  29.6955773  79.6349439
  42.9278976  32.7569263  78.5691211  43.3939428  33.5897254  78.4951514
  43.3786476  32.2914244  79.2736470  32.8700811  40.7595134  87.2829456
  33.5710270  41.3931617  87.4358851  32.3995926  41.1009866  86.5225096
  40.9955207  39.1013084  75.5677364  41.2715051  38.9869679  76.4771238
  40.1259705  38.7030569  75.5289537  40.6702097  33.3139742  85.1082007
  40.0173547  33.5615649  84.4534460  41.0482477  32.5003880  84.7744484
  37.6309271  43.3499435  79.2110177  37.8131665  42.5321091  79.6737929
  38.4542257  43.5667127  78.7735067  37.9651436  42.2767620  76.4725226
  38.4939203  41.7660075  75.8595388  38.2279656  41.9610150  77.3370759
  28.4668529  40.2931489  84.2160559  29.0521966  39.5475177  84.3488463
  28.2693367  40.6035446  85.0997223  31.3207184  43.3282737  79.2323002
  30.6517559  43.8128864  78.7487042  31.1820054  43.5751957  80.1466380
  35.4612453  45.3626480  85.8305660  36.0130761  45.5258102  86.5954745
  35.8018646  45.9530918  85.1585685  26.6894761  31.5901192  76.0118934
  26.9848202  30.6811870  75.9585987  25.7882797  31.5688931  75.6899936
  38.5980840  43.3108456  82.8169342  38.4731979  42.5098196  82.3080288
  39.2559931  43.8054649  82.3283312  40.6615748  41.1117476  84.4448892
  39.7146084  40.9922827  84.3727219  41.0098522  40.2239974  84.5275154
  28.4182603  29.2715289  76.1358259  28.0895309  28.3912668  75.9533365
  28.7721974  29.2162958  77.0234648  37.6662182  40.9070192  80.6453244
  37.5187144  39.9786900  80.8260814  38.4915675  40.9290283  80.1610320
  31.5324426  29.5588259  76.5033737  31.8720498  30.0874180  75.7812345
  31.9796546  29.8968665  77.2792303  41.2696304  41.7298751  81.7318117
  42.1942851  41.5241612  81.5942568  41.1011607  41.4815152  82.6407459
  33.5192573  28.0562881  74.7027029  34.2400936  28.4344134  74.1990746
  32.8957877  28.7751758  74.8062007  37.6623696  28.7608030  75.6385362
  37.8787310  29.6432668  75.3374190  37.1817763  28.3694243  74.9091004
  41.0591620  42.2484418  77.0880209  41.2328497  41.6830841  76.3354061
  41.5520511  43.0485313  76.9059699  33.6656196  27.5910671  77.5324566
  33.7872107  26.6627317  77.7315453  33.3758239  27.6049357  76.6202881
  46.9131011  35.0120841  78.7070508  47.3562157  34.2628166  78.3089632
  46.0357521  35.0030978  78.3244240  42.0466792  41.5651183  74.1877107
  42.7417697  42.1857875  74.4064422  42.3889942  40.7146534  74.4629485
  43.9458215  39.0150888  75.7164438  44.4709539  39.3538161  74.9913758
  43.8580568  38.0797904  75.5327572  35.6078264  42.9284962  87.8454314
  35.9165391  42.6834109  88.7177014  36.4053746  43.1331600  87.3573184
  35.6298876  45.0822872  80.0759691  35.1903866  44.5899250  80.7692548
  36.3806993  44.5395839  79.8351766  28.1091215  41.2734412  80.0784319
  28.9349235  40.9738184  79.6982962  27.7585267  40.5042035  80.5274108
  33.0772748  40.6260881  82.1481992  32.4552758  39.9631586  81.8484220
  33.7477615  40.6522013  81.4655640  26.3099820  39.1920739  81.0373252
  25.4731728  38.7642913  80.8557254  26.2823466  39.3853182  81.9744044
  43.6352121  39.6483792  91.0215636  42.8447665  39.6307931  90.4820135
  43.3985476  40.1872086  91.7764672  43.7549996  36.4976258  88.3348364
  43.8048001  36.3326266  89.2763887  43.6463920  35.6303517  87.9446245
  32.6386255  39.1764804  75.6240453  32.7874376  39.8600268  74.9707126
  33.4452699  39.1569894  76.1389909  45.2568193  38.9173200  88.5790386
  44.9653002  39.2803180  89.4153847  44.6440325  38.2040208  88.4003718
  46.4563876  36.4826080  81.0992956  47.2910767  36.9215884  81.2630516
  46.5923004  36.0064733  80.2801202  43.5055382  34.0405814  87.0470444
  43.9809503  34.2333461  86.2389295  42.5820947  34.0965000  86.8013827
  30.3938888  35.2029982  76.6301522  30.1484930  34.2992312  76.8281732
  30.5634803  35.2047132  75.6881000  29.6634536  30.9358339  74.1287683
  28.9703781  31.0102694  73.4727719  29.4186288  30.1718683  74.6509200
  36.1381661  41.6712934  73.0952200  35.5655628  42.2903122  72.6422672
  36.7114454  42.2212296  73.6292122  42.2057051  30.9171574  85.2798749
  43.1574473  31.0169672  85.3010973  42.0360501  30.1249843  85.7896834
  39.3578920  41.9550085  74.2260783  40.2909594  41.8895646  74.4293658
  39.2702133  42.7906351  73.7675315  41.9866937  41.2715955  71.1864730
  41.9080569  40.9375818  72.0800488  42.8076604  41.7637723  71.1856203
  44.6845128  34.1377694  84.3941049  44.6521448  33.1993695  84.5800733
  45.2945752  34.2161731  83.6606874  36.5228459  33.0073747  70.4368253
  37.4687564  32.8779955  70.5056671  36.1442704  32.2688409  70.9137681
  44.8339617  30.9288738  84.4399332  44.3178665  30.1447194  84.2529261
  45.7179565  30.6007454  84.6045852  42.4950344  24.6729753  80.3995145
  42.2975165  24.3644841  81.2838477  43.1050049  25.3991392  80.5293075
  50.5021678  35.1993701  83.5347086  51.2325067  34.9378989  84.0954789
  49.8928624  34.4622423  83.5749154  48.5836975  33.3401564  84.1321537
  47.8570139  33.2057529  83.5238029  48.1684262  33.6478392  84.9378255
  34.7071376  30.9323724  70.3723138  33.8002832  30.6356836  70.4485852
  34.9847357  30.6353542  69.5057424  36.3233442  25.4760613  76.5267379
  35.5134170  25.1307698  76.9022626  37.0117859  25.1668157  77.1154991
  38.2523990  24.5538660  78.1491676  38.8055029  24.9734113  78.8081699
  38.4894077  23.6274408  78.1914632  33.4770161  27.7910659  70.5135117
  34.3389325  28.1165557  70.7730935  33.6620505  27.0042155  70.0008183
  41.6302797  26.6639185  77.6570340  41.0501467  27.3223989  77.2748393
  41.3638730  25.8416530  77.2457758  40.0806364  26.0644243  79.8591661
  40.5806142  26.1760777  79.0505980  40.7241972  25.7605296  80.4992469
  27.4074319  35.8051252  80.6681321  27.3845007  35.9038940  79.7163204
  27.7174956  36.6516403  80.9898487  40.4127675  28.8239276  76.7126689
  39.5253530  29.1088926  76.4946883  40.8281665  28.6633039  75.8653966
  43.7642212  28.8485797  80.4281028  44.5402602  29.3382249  80.7005645
  43.0390346  29.2743851  80.8852897  46.2014770  29.5613416  81.4854969
  46.7959261  29.3209152  80.7748277  46.2741354  28.8420546  82.1128505
  28.4211926  43.4047027  81.7998133  28.2866394  42.6447428  81.2336131
  28.0043988  44.1287927  81.3326922  39.5570889  38.5883950  70.8074709
  40.2606739  38.7933953  71.4232364  38.8333538  39.1560712  71.0723792
  40.3868699  34.3393812  76.9276979  40.3303901  34.7962363  76.0884611
  40.9397042  33.5784496  76.7499822  44.1973505  30.1283543  77.7527098
  43.9410439  29.7280179  78.5835306  43.5726373  30.8427337  77.6277237
  48.5085843  32.8679617  80.2598390  47.9485401  32.9372806  81.0329952
  47.9029346  32.6920601  79.5397886  31.5781052  44.3016344  82.0116576
  31.4613436  45.2461776  81.9095266  30.7573498  43.9989905  82.4002375
  41.4657586  39.0266479  72.8573169  42.3003190  38.5947678  72.6750643
  41.3041929  38.8548493  73.7850063  41.1203479  35.5298593  74.2229508
  41.0652282  35.3642864  73.2817952  40.4949534  36.2374626  74.3791698
  34.4299604  25.0306702  73.8014826  34.4178274  25.9748542  73.9583097
  35.3223026  24.8476847  73.5074288  32.6035566  44.9544606  85.2272504
  33.5062813  44.9868216  85.5438999  32.3772936  44.0245057  85.2418840
  34.3589168  43.7075592  81.8882583  33.4084799  43.7077454  81.7746955
  34.6621654  42.9608327  81.3718618  38.2451723  21.6249478  78.0560763
  37.4784119  21.0707965  78.2017446  38.6562428  21.6971347  78.9174915
  50.0941861  49.5436131  82.9528345  50.7320271  49.4242878  82.2491685
  49.9762704  50.4916975  83.0116298  46.9031568  49.4963559  82.8889870
  46.5650079  49.3804623  82.0010405  47.7721336  49.0954724  82.8690876
  42.7618383  51.3499035  78.8786761  42.1983249  51.2588972  78.1103049
  42.6470778  50.5298940  79.3589254  40.3082815  52.8450227  81.7170982
  41.1004107  52.5041051  81.3017281  40.5479466  52.9545202  82.6373135
  48.3417942  55.0170003  74.1901226  47.6905922  55.6024083  73.8035240
  49.1362305  55.5476198  74.2496263  42.2673569  52.1059140  74.5888360
  43.0404445  51.5588127  74.4501236  42.6198968  52.9703389  74.8002822
  45.0314819  50.8112371  84.3856619  45.6278391  50.5868393  83.6713582
  45.0889790  50.0697116  84.9882067  44.6039847  48.2651806  72.2206810
  44.8565368  47.7433327  71.4590273  43.6664406  48.1017952  72.3233494
  49.6483130  47.2687584  80.0281553  50.4346219  46.8507008  79.6771970
  49.9121834  48.1733677  80.1963202  49.8193207  52.7060435  74.7270210
  49.1839040  52.7795061  75.4391115  49.4890614  53.2954034  74.0489290
  55.0491557  47.2062818  80.9314532  55.7816729  46.6362034  81.1652361
  54.2930913  46.8184418  81.3721038  44.3236136  50.1679912  74.4231185
  44.2072394  49.4924815  75.0912270  44.4338396  49.6812286  73.6063338
  46.6667677  49.6290059  78.1277874  46.3025884  49.1020680  78.8390796
  47.5234793  49.2388528  77.9544360  52.5716977  40.9184392  85.3909141
  52.2400302  41.7879803  85.1670356  51.9762591  40.6020676  86.0703171
  46.3073164  44.6579959  73.1239223  46.4747566  45.5260195  73.4909694
  46.1170333  44.8207241  72.2000512  42.5160978  49.5710735  80.8241758
  41.5911475  49.4386949  81.0319450  42.7645392  50.3504954  81.3211700
  52.4645641  45.6379478  82.4702491  51.5562518  45.5694886  82.1761252
  52.4133237  46.1151423  83.2984316  46.2862385  47.1137616  74.1085890
  46.1662010  47.5594667  74.9471370  45.5914973  47.4622934  73.5499428
  39.8769789  49.2144008  81.6585547  40.0062171  49.4678487  82.5724959
  39.1967241  49.8071716  81.3390202  44.0469277  59.8841258  77.7576021
  43.9693306  60.8349083  77.8364502  43.4430920  59.5387131  78.4150947
  54.3307287  43.8395916  84.2480365  53.6881667  44.1328449  83.6020159
  53.8262216  43.7248837  85.0533561  51.9847451  47.5859090  74.9366224
  52.8965307  47.8186476  74.7613921  51.4757098  48.1696134  74.3741302
  46.6219288  46.9456324  85.9461073  47.4680484  47.3695738  86.0895722
  46.5617926  46.2889948  86.6399636  49.3283426  43.7617125  83.1856085
  48.4667905  44.0598379  83.4772822  49.3545860  43.9787524  82.2537117
  46.1444995  52.3059316  79.5929890  46.6083341  52.5847019  78.8034513
  45.8801793  51.4042761  79.4102981  43.0369076  51.8530798  82.5309654
  43.6070433  52.2818066  81.8927138  43.6277188  51.5713382  83.2293839
  45.0813881  48.4282468  76.4019456  45.7837924  48.8803512  76.8693382
  44.7494510  47.7866287  77.0299349  38.8239215  46.6866021  81.7036589
  38.0338269  46.9423550  81.2276700  39.3150462  47.5014359  81.8088630
  40.7753960  47.0510600  78.6620066  39.9785124  47.1629295  79.1803561
  40.5479553  47.3897253  77.7960956  37.1076918  46.9396512  84.1351580
  37.3584956  47.8243521  84.4009156  37.6436466  46.7601113  83.3626672
  46.3207646  55.2423411  76.4781561  46.1853320  56.0874947  76.9066409
  46.8617458  55.4442689  75.7147495  39.7737043  52.7598849  77.0509486
  40.2861564  53.5542099  77.2015051  40.4259756  52.0625140  76.9843087
  41.5831928  55.8764605  79.1332239  41.7598556  56.7982570  78.9453223
  42.3788761  55.5623025  79.5626619  40.8684284  47.9229237  89.0094402
  40.7537799  47.0214494  89.3101501  40.0128802  48.1692934  88.6579219
  49.6700109  38.7653973  85.0080454  49.3264379  39.6555615  84.9319565
  50.0379072  38.5755631  84.1450039  37.7385960  51.0887503  77.8269056
  38.5761182  51.4984512  77.6102764  37.9164228  50.1486946  77.7969250
  49.6350392  48.7562584  73.5152889  49.1197015  49.5267189  73.7541277
  49.3627700  48.0827720  74.1385951  47.2197503  43.6012285  78.5738128
  46.3639099  43.2119135  78.3943766  47.6324455  43.6804246  77.7137913
  48.7496650  41.1358628  82.9729687  48.2461445  41.0988763  82.1597493
  49.0427256  42.0451371  83.0326344  44.9939535  41.2197358  81.9795869
  45.8592532  41.0240166  81.6201759  45.0617044  40.9907710  82.9065226
  54.6084666  51.5094939  75.4506063  53.8314109  51.1706098  75.0061225
  55.2876147  51.5147562  74.7761028  49.4236695  46.6289676  75.3412670
  49.1186831  46.9435825  76.1922814  50.3767137  46.7071096  75.3840003
  47.8683127  52.7879899  76.9905624  47.3404489  52.0532659  76.6778862
  47.3670630  53.5654576  76.7445593  42.6001855  43.4499566  79.3512236
  43.1745606  43.2274747  78.6185429  43.1872837  43.5188260  80.1040837
  51.6581432  49.3373293  80.1576613  52.1713314  49.9703284  80.6598322
  52.3082656  48.7374488  79.7919973  42.9271442  45.4804027  73.3708121
  42.0908754  45.8178713  73.6917396  42.7876211  45.3453007  72.4335258
  44.9024522  40.3240815  78.0787305  44.2488935  40.0089832  77.4543920
  44.8604996  39.7016555  78.8047128  46.0135727  50.6060110  69.9940597
  45.1062789  50.3749363  70.1931746  46.5106759  49.8097729  70.1814579
  48.9203806  59.3157617  72.9137284  48.2465505  59.6189314  73.5222241
  49.3069628  60.1186697  72.5642741  48.1362263  46.8122748  82.4034953
  47.2184824  47.0337695  82.2456641  48.5522406  46.8869059  81.5446660
  48.9197310  48.2114164  77.5337633  49.6669129  48.7235561  77.2244755
  49.1888900  47.8898217  78.3942027  52.4243228  54.3179294  78.2855755
  51.9705555  53.4770204  78.3420946  51.7937195  54.9540692  78.6230535
  51.3676148  45.2471280  79.5156423  50.6298904  44.7348666  79.8466665
  51.6202921  44.8071662  78.7039699  50.8676167  56.1555791  79.2205573
  51.1599142  56.7160848  78.5017939  51.3774788  56.4484352  79.9758732
  51.4687775  38.0247532  80.1098192  51.7746652  37.1644896  79.8224107
  52.1940380  38.6165152  79.9097186  37.7612131  48.4278219  78.4979790
  37.5636531  47.8347579  77.7730856  37.2058795  48.1230429  79.2155729
  45.7408855  48.3201325  80.6174383  45.7957464  47.3675162  80.5416860
  44.9300057  48.4760764  81.1015681  46.8900048  52.2481448  71.8552666
  46.4519478  51.5317307  71.3958304  47.6310489  52.4757563  71.2937758
  43.6801215  46.9378385  78.3764762  42.8669080  47.2372555  78.7829954
  44.1760209  46.5434074  79.0939244  45.8309792  56.9336142  80.3099026
  45.7885971  57.1596988  79.3807559  46.7472491  56.6999516  80.4584828
  55.0073163  50.5238645  77.9128985  54.8691062  50.7140241  76.9850174
  54.6509382  51.2858028  78.3697036  43.1715289  44.5096740  83.9925997
  43.8114669  44.3685500  83.2948960  42.3392820  44.2231254  83.6164599
  43.9475593  53.8099171  80.1060989  44.7416192  53.3149491  79.9043564
  43.2367286  53.2817034  79.7428695  40.2558357  47.9542253  76.1820742
  39.3255945  47.8926708  76.3990704  40.3515829  47.4318205  75.3857383
  40.1743906  44.4797065  78.7698984  40.4350723  45.3942399  78.6608144
  40.9961078  44.0121508  78.9195596  41.6468831  45.8934823  85.9397808
  42.3191884  45.6852185  85.2910457  40.8198618  45.6956909  85.5003040
  47.5494403  42.5196764  87.9563469  46.9022318  43.2186713  87.8627945
  48.3195418  42.9532907  88.3239717  47.1195021  59.4837289  75.1284363
  47.2946777  59.0125333  75.9429986  46.4327809  60.1103056  75.3565624
  48.0752084  53.7609796  81.1747664  47.7401917  53.7210566  82.0705314
  47.5756030  53.0954511  80.7018074  42.0496328  49.1677426  86.7000245
  41.9116126  48.4357664  87.3011784  42.9601252  49.0786326  86.4184433
  51.0111276  51.1065830  71.4484724  50.3940447  50.3812658  71.3517776
  50.5427764  51.8675190  71.1051798  44.6778629  48.8797385  86.1883925
  45.3878247  48.2390577  86.1470543  44.6347937  49.1310280  87.1110106
  43.3907563  45.8662603  88.0079564  42.8544920  45.4153341  88.6601161
  42.8024271  46.0008512  87.2650029  42.8009822  45.3251254  70.5706028
  41.9239288  45.2040055  70.2068275  43.2767575  44.5337332  70.3184917
  34.3211962  50.1128414  80.6647535  35.0083002  49.7990144  80.0768550
  34.1660091  51.0169779  80.3914787  39.1246684  45.0018610  85.0932559
  39.0404873  44.3944280  84.3582969  38.3029391  45.4927629  85.0942055
  45.9873748  57.6777545  77.8168549  45.2041270  58.2199225  77.9106773
  46.6866493  58.1951524  78.2162790  49.2970398  43.4872174  80.4602754
  49.7939098  42.7342136  80.1403824  48.5257380  43.5236491  79.8945963
  50.3800179  52.2443861  78.0341177  49.4456457  52.3645324  77.8645882
  50.5576847  51.3416328  77.7701187  45.8805367  45.6289557  80.1874439
  45.5103154  45.0760597  80.8755344  46.3764459  45.0247690  79.6349439
  53.7672730  48.0861181  78.5691211  54.2333182  48.9189172  78.4951514
  54.2180231  47.6206162  79.2736470  51.8348961  54.4305002  75.5677364
  52.1108805  54.3161596  76.4771238  50.9653460  54.0322487  75.5289537
  51.7389393  40.4541768  82.6082113  50.8252473  40.6845994  82.7764320
  52.1682494  40.5380212  83.4596145  48.4703025  58.6791353  79.2110177
  48.6525420  57.8613009  79.6737929  49.2936011  58.8959045  78.7735067
  48.8045191  57.6059538  76.4725226  49.3332957  57.0951992  75.8595388
  49.0673410  57.2902068  77.3370759  39.3062283  55.6223407  84.2160559
  39.8915720  54.8767095  84.3488463  39.1087122  55.9327364  85.0997223
  42.1600939  58.6574654  79.2323002  41.4911314  59.1420782  78.7487042
  42.0213808  58.9043875  80.1466380  33.8979938  48.1929007  82.9365002
  33.9364038  47.6592598  83.7302120  33.3920231  47.6664213  82.3175979
  41.2770700  43.0393548  86.4327545  41.3412027  43.9008379  86.0204942
  41.2137821  42.4267549  85.6999903  40.7522973  45.1116680  90.0800579
  41.3795012  44.7293758  90.6938103  39.8950892  44.8930882  90.4456271
  37.5288516  46.9193109  76.0118934  37.8241957  46.0103788  75.9585987
  36.6276552  46.8980849  75.6899936  41.0582763  44.9949106  81.9946482
  40.3369348  45.6085074  81.8553956  41.8476019  45.5306871  81.9163128
  43.8609076  42.3303533  88.2687134  44.3843478  42.5765829  89.0313443
  43.6421410  43.1623567  87.8490271  39.2576357  44.6007207  76.1358259
  38.9289063  43.7204586  75.9533365  39.6115728  44.5454876  77.0234648
  48.5055936  56.2362110  80.6453244  48.3580899  55.3078817  80.8260814
  49.3309430  56.2582201  80.1610320  42.3718180  44.8880177  76.5033737
  42.7114253  45.4166098  75.7812345  42.8190301  45.2260583  77.2792303
  45.0661621  43.2717228  85.9536805  44.7258442  42.4725041  86.3557484
  44.3600628  43.5718938  85.3813638  45.7178093  40.3566540  84.4064128
  46.5404162  39.8827018  84.2843018  45.9616157  41.1357024  84.9062814
  44.3586328  43.3854798  74.7027029  45.0794690  43.7636051  74.1990746
  43.7351632  44.1043675  74.8062007  48.5017451  44.0899947  75.6385362
  48.7181065  44.9724585  75.3374190  48.0211518  43.6986161  74.9091004
  43.2416672  47.0485661  82.2156106  43.0961253  47.3625964  83.1080388
  42.7641876  47.6670561  81.6627005  45.1013055  44.0388209  82.2636996
  45.0874624  43.1429302  81.9269294  45.8185483  44.0458872  82.8975282
  46.9539185  44.4725549  84.3090123  46.6956963  45.3942620  84.3074454
  46.4224226  44.0755983  84.9990587  51.8985374  57.5776336  77.0880209
  52.0722252  57.0122758  76.3354061  52.3914265  58.3777231  76.9059699
  37.7162334  49.5891005  85.1543767  37.1715802  50.3650813  85.2864042
  38.5941684  49.9361810  84.9962889  44.5049951  42.9202589  77.5324566
  44.6265862  41.9919235  77.7315453  44.2151993  42.9341275  76.6202881
  47.3741141  40.6057499  80.6691286  47.3962838  40.6696832  79.7143265
  47.7909200  39.7662008  80.8631792  57.7524765  50.3412759  78.7070508
  58.1955911  49.5920084  78.3089632  56.8751276  50.3322895  78.3244240
  52.8860547  56.8943100  74.1877107  53.5811451  57.5149793  74.4064422
  53.2283697  56.0438452  74.4629485  38.5028356  48.7160901  88.0473924
  37.7610092  48.8643537  88.6338555  38.1821100  48.9769167  87.1840674
  54.7851970  54.3442806  75.7164438  55.3103294  54.6830079  74.9913758
  54.6974322  53.4089821  75.5327572  38.9484970  56.6026330  80.0784319
  39.7742990  56.3030102  79.6982962  38.5979022  55.8333953  80.5274108
  43.9166503  55.9552798  82.1481992  43.2946512  55.2923503  81.8484220
  44.5871370  55.9813930  81.4655640  37.1493575  54.5212657  81.0373252
  36.3125483  54.0934831  80.8557254  37.1217220  54.7145100  81.9744044
  43.4780010  54.5056722  75.6240453  43.6268130  55.1892186  74.9707126
  44.2846453  54.4861812  76.1389909  41.2332643  50.5321899  76.6301522
  40.9878685  49.6284229  76.8281732  41.4028557  50.5339050  75.6881000
  48.9229353  41.4045576  86.0126278  49.4411296  42.1406603  85.6872766
  48.5684485  41.7109569  86.8473037  40.5028290  46.2650257  74.1287683
  39.8097535  46.3394612  73.4727719  40.2580042  45.5010600  74.6509200
  49.1741947  37.8245858  81.5327174  49.4543700  37.1569047  82.1587601
  49.9592554  38.0174954  81.0201838  46.9775415  57.0004852  73.0952200
  46.4049382  57.6195039  72.6422672  47.5508209  57.5504214  73.6292122
  51.0665185  43.3319075  85.4658150  50.4715117  43.6124088  84.7704639
  50.7814881  43.8212976  86.2374891  50.1972675  57.2842002  74.2260783
  51.1303348  57.2187564  74.4293658  50.1095888  58.1198269  73.7675315
  52.8260692  56.6007873  71.1864730  52.7474323  56.2667736  72.0800488
  53.6470358  57.0929640  71.1856203  47.3622214  48.3365665  70.4368253
  48.3081318  48.2071873  70.5056671  46.9836459  47.5980327  70.9137681
  53.3344098  40.0021671  80.3995145  53.1368919  39.6936759  81.2838477
  53.9443804  40.7283310  80.5293075  45.5465131  46.2615641  70.3723138
  44.6396586  45.9648754  70.4485852  45.8241112  45.9645459  69.5057424
  36.4643071  47.5822005  80.8222185  36.1445856  46.7287313  80.5296559
  35.9176499  47.7970583  81.5780152  40.2422979  50.2984446  84.5391691
  40.4608989  51.2301553  84.5579725  40.6548753  49.9392420  85.3246495
  47.1627197  40.8052531  76.5267379  46.3527925  40.4599616  76.9022626
  47.8511613  40.4960075  77.1154991  49.0917745  39.8830578  78.1491676
  49.6448783  40.3026031  78.8081699  49.3287831  38.9566326  78.1914632
  44.3163915  43.1202576  70.5135117  45.1783079  43.4457475  70.7730935
  44.5014260  42.3334072  70.0008183  36.3331331  51.2024916  82.7915306
  35.6394803  50.7878869  82.2785261  37.0804322  51.2445453  82.1948725
  52.4696552  41.9931103  77.6570340  51.8895221  42.6515907  77.2748393
  52.2032485  41.1708448  77.2457758  50.9200118  41.3936161  79.8591661
  51.4199897  41.5052695  79.0505980  51.5635726  41.0897213  80.4992469
  38.2468074  51.1343170  80.6681321  38.2238762  51.2330857  79.7163204
  38.5568710  51.9808321  80.9898487  40.9055452  53.1919325  84.7827935
  41.8598705  53.1603267  84.7157867  40.7067975  52.7309949  85.5978161
  51.2521430  44.1531193  76.7126689  50.3647285  44.4380844  76.4946883
  51.6675419  43.9924957  75.8653966  54.6035966  44.1777714  80.4281028
  55.3796356  44.6674167  80.7005645  53.8784100  44.6035768  80.8852897
  57.0408525  44.8905333  81.4854969  57.6353016  44.6501069  80.7748277
  57.1135108  44.1712464  82.1128505  39.2605680  58.7338944  81.7998133
  39.1260148  57.9739345  81.2336131  38.8437743  59.4579844  81.3326922
  50.3964643  53.9175868  70.8074709  51.1000494  54.1225870  71.4232364
  49.6727292  54.4852630  71.0723792  51.2262454  49.6685729  76.9276979
  51.1697655  50.1254281  76.0884611  51.7790796  48.9076414  76.7499822
  55.0367260  45.4575461  77.7527098  54.7804194  45.0572097  78.5835306
  54.4120128  46.1719255  77.6277237  59.3479597  48.1971534  80.2598390
  58.7879155  48.2664724  81.0329952  58.7423101  48.0212519  79.5397886
  52.3051341  54.3558397  72.8573169  53.1396945  53.9239596  72.6750643
  52.1435684  54.1840411  73.7850063  51.9597233  50.8590510  74.2229508
  51.9046037  50.6934782  73.2817952  51.3343288  51.5666543  74.3791698
  36.7489748  46.0958575  88.0490930  37.3948612  45.5857529  88.5378155
  36.5406899  46.8327256  88.6234355  45.2693358  40.3598619  73.8014826
  45.2572028  41.3040459  73.9583097  46.1616780  40.1768765  73.5074288
  49.0845478  36.9541396  78.0560763  48.3177874  36.3999883  78.2017446
  49.4956183  37.0263265  78.9174915  55.4433602  63.5943724  72.2206810
  55.6959122  63.0725245  71.4590273  54.5058161  63.4309869  72.3233494
  57.1466918  59.9871877  73.1239223  57.3141321  60.8552113  73.4909694
  56.9564087  60.1499158  72.2000512  53.7665196  60.8095944  73.3708121
  52.9302508  61.1470631  73.6917396  53.6269966  60.6744924  72.4335258
  55.7418277  55.6532732  78.0787305  55.0882689  55.3381749  77.4543920
  55.6998751  55.0308473  78.8047128  56.8529482  65.9352027  69.9940597
  55.9456543  65.7041281  70.1931746  57.3500514  65.1389647  70.1814579
  51.0952111  63.2834170  76.1820742  50.1649699  63.2218626  76.3990704
  51.1909583  62.7610123  75.3857383  53.6403576  60.6543172  70.5706028
  52.7633043  60.5331973  70.2068275  54.1161329  59.8629250  70.3184917
  48.3682270  62.2485027  76.0118934  48.6635711  61.3395706  75.9585987
  47.4670306  62.2272767  75.6899936  50.0970112  59.9299125  76.1358259
  49.7682818  59.0496504  75.9533365  50.4509483  59.8746793  77.0234648
  55.1980082  58.7146716  74.7027029  55.9188445  59.0927969  74.1990746
  54.5745386  59.4335593  74.8062007  55.3443705  58.2494507  77.5324566
  55.4659616  57.3211153  77.7315453  55.0545748  58.2633193  76.6202881
  51.3422045  61.5942175  74.1287683  50.6491290  61.6686530  73.4727719
  51.0973797  60.8302518  74.6509200  58.2015968  63.6657583  70.4368253
  59.1475073  63.5363791  70.5056671  57.8230213  62.9272244  70.9137681
  56.3858885  61.5907559  70.3723138  55.4790341  61.2940672  70.4485852
  56.6634866  61.2937377  69.5057424  58.0020951  56.1344449  76.5267379
  57.1921679  55.7891534  76.9022626  58.6905368  55.8251992  77.1154991
  55.1557670  58.4494494  70.5135117  56.0176834  58.7749392  70.7730935
  55.3408014  57.6625990  70.0008183  56.1087113  55.6890537  73.8014826
  56.0965783  56.6332377  73.9583097  57.0010535  55.5060683  73.5074288
  59.9239232  52.2833314  78.0560763  59.1571628  51.7291800  78.2017446
  60.3349937  52.3555183  78.9174915  26.6630434   1.3648290  60.9146533
  26.0118414   1.9502370  60.5280546  27.4574797   1.8954485  60.9741570
  32.9297158  -2.1426774  62.1751369  32.1526601  -2.4815615  61.7306532
  33.6088639  -2.1374151  61.5006334  24.3348219  -3.0461603  56.7185904
  23.4275281  -3.2772350  56.9177053  24.8319251  -3.8423984  56.9059886
  27.2416298   5.6635904  59.6382590  26.5677997   5.9667601  60.2467548
  27.6282120   6.4664984  59.2888047  25.2112541  -1.4040265  58.5797973
  24.7731971  -2.1204406  58.1203610  25.9522982  -1.1764150  58.0183064
  25.4407513   5.8315577  61.8529669  25.6159269   5.3603620  62.6675292
  24.7540301   6.4581343  62.0810930  29.3323768  -2.5455883  58.1730030
  28.7152939  -3.2709055  58.0763083  28.8640257  -1.7846523  57.8297105
  30.1561453   0.7783289  62.2922670  30.4321297   0.6639884  63.2016544
  29.2865952   0.3800774  62.2534843  27.1257683   3.9537825  63.1970532
  27.6545449   3.4430280  62.5840694  27.3885903   3.6380355  64.0616065
  30.2197867   3.9254623  63.8125515  30.3934744   3.3601046  63.0599368
  30.7126758   4.7255518  63.6305005  31.2073039   3.2421388  60.9122414
  31.9023944   3.8628080  61.1309728  31.5496189   2.3916739  61.1874791
  33.1064462   0.6921093  62.4409744  33.6315786   1.0308366  61.7159064
  33.0186815  -0.2431892  62.2572879  25.2987907   3.3483139  59.8197507
  24.7261875   3.9673326  59.3667979  25.8720701   3.8982501  60.3537429
  28.5185167   3.6320289  60.9506089  29.4515840   3.5665851  61.1538965
  28.4308380   4.4676556  60.4920622  31.1473184   2.9486160  57.9110037
  31.0686815   2.6146023  58.8045795  31.9682851   3.4407928  57.9101509
  28.7177136   0.2654155  57.5320015  29.4212986   0.4704158  58.1477671
  27.9939784   0.8330917  57.7969099  30.6263833   0.7036684  59.5818475
  31.4609437   0.2717883  59.3995950  30.4648176   0.5318698  60.5095370
  30.2809725  -2.7931202  60.9474815  30.2258529  -2.9586931  60.0063259
  29.6555781  -2.0855169  61.1037004  39.2548108  11.2206336  69.6773652
  39.8926518  11.1013083  68.9736992  39.1368951  12.1687179  69.7361604
  36.0637814  11.1733764  69.6135177  35.7256326  11.0574828  68.7255712
  36.9327583  10.7724929  69.5936183  31.9224630  13.0269240  65.6032068
  31.3589495  12.9359177  64.8348355  31.8077025  12.2069144  66.0834560
  29.4689062  14.5220432  68.4416288  30.2610354  14.1811256  68.0262587
  29.7085712  14.6315407  69.3618441  37.5024189  16.6940208  60.9146533
  36.8512169  17.2794288  60.5280546  38.2968552  17.2246403  60.9741570
  31.4279816  13.7829345  61.3133667  32.2010692  13.2358332  61.1746543
  31.7805215  14.6473594  61.5248128  34.1921065  12.4882576  71.1101926
  34.7884638  12.2638598  70.3958889  34.2496037  11.7467321  71.7127374
  33.7646094   9.9422011  58.9452117  34.0171615   9.4203532  58.1835580
  32.8270653   9.7788156  59.0478800  38.8089377   8.9457789  66.7526860
  39.5952466   8.5277213  66.4017277  39.0728081   9.8503882  66.9208508
  38.9799454  14.3830640  61.4515517  38.3445287  14.4565266  62.1636422
  38.6496860  14.9724239  60.7734596  44.2097804   8.8833023  67.6559839
  44.9422976   8.3132239  67.8897668  43.4537160   8.4954623  68.0966344
  33.4842383  11.8450117  61.1476492  33.3678641  11.1695020  61.8157576
  33.5944643  11.3582491  60.3308645  35.8273924  11.3060264  64.8523181
  35.4632131  10.7790885  65.5636103  36.6841039  10.9158733  64.6789666
  35.4679411   6.3350164  59.8484530  35.6353813   7.2030400  60.2155001
  35.2776580   6.4977445  58.9245819  38.2254744  14.7967143  71.5150360
  37.9255467  15.6992181  71.4066167  37.8805803  14.5299326  72.3671513
  31.6767225  11.2480940  67.5487064  30.7517722  11.1157154  67.7564756
  31.9251638  12.0275159  68.0457007  41.6251887   7.3149683  69.1947797
  40.7168765   7.2465091  68.9006558  41.5739483   7.7921628  70.0229623
  35.4468631   8.7907821  60.8331196  35.3268257   9.2364872  61.6716677
  34.7521220   9.1393139  60.2744735  29.0376036  10.8914213  68.3830853
  29.1668417  11.1448692  69.2970265  28.3573488  11.4841921  68.0635509
  33.2075524  21.5611463  64.4821328  33.1299553  22.5119288  64.5609808
  32.6037167  21.2157336  65.1396254  43.4913534   5.5166121  70.9725671
  42.8487914   5.8098654  70.3265466  42.9868462   5.4019042  71.7778868
  41.1453698   9.2629294  61.6611530  42.0571554   9.4956681  61.4859228
  40.6363345   9.8466339  61.0986609  39.7523280  14.2455113  69.0525112
  39.1232142  14.4100827  68.3501180  39.3648942  14.6596722  69.8236076
  43.6312512  15.1809551  66.4069476  42.9463550  15.5608452  65.8566509
  43.7156361  15.7904877  67.1401423  40.8863443  12.8269510  73.0064819
  41.0980339  13.4701270  72.3299200  40.8393192  11.9931826  72.5386749
  35.3051242  13.9829521  66.3175197  35.7689587  14.2617224  65.5279820
  35.0408040  13.0812966  66.1348288  32.1975323  13.5301003  69.2554960
  32.7676680  13.9588271  68.6172445  32.7883435  13.2483587  69.9539146
  34.2420128  10.1052673  63.1264762  34.9444171  10.5573717  63.5938689
  33.9100756   9.4636492  63.7544655  42.0009271  15.7041465  71.1787177
  42.8226715  15.3021652  70.8969858  41.9971674  15.6009699  72.1303292
  29.9360207   8.7280805  65.3865372  29.1391370   8.8399500  65.9048868
  29.7085799   9.0667457  64.5206263  35.7665875  15.2525508  73.3347887
  35.8310307  15.7145916  74.1706059  35.0576799  14.6222873  73.4630197
  50.0915264  12.0480214  67.5272148  49.3378973  11.4787612  67.3716152
  50.2262806  12.0142878  68.4742783  35.4813892  16.9193616  63.2026867
  35.3459567  17.7645152  63.6311715  36.0223705  17.1212894  62.4392801
  28.9343290  14.4369054  63.7754792  29.4467810  15.2312304  63.9260357
  29.5866003  13.7395344  63.7088394  30.7438175  17.5534810  65.8577546
  30.9204803  18.4752775  65.6698530  31.5395008  17.2393229  66.2871925
  31.8669490  19.0712984  71.8587888  32.4176915  18.9430047  71.0864882
  31.0280966  19.3707873  71.5082781  39.2063607  17.8219982  75.3608611
  39.1882082  18.6428863  74.8688880  40.1283527  17.6974058  75.5858752
  26.8992207  12.7657708  64.5514363  27.7367429  13.1754717  64.3348071
  27.0770474  11.8257150  64.5214557  38.7956639  10.4332789  60.2398196
  38.2803262  11.2037394  60.4786583  38.5233947   9.7597925  60.8631257
  36.3803750   5.2782490  65.2983434  35.5245346   4.8889340  65.1189073
  36.7930702   5.3574451  64.4383220  43.7690913  13.1865144  62.1751369
  42.9920356  12.8476303  61.7306532  44.4482394  13.1917767  61.5006334
  38.5842942   8.3059881  62.0657977  38.2793077   8.6206030  62.9168120
  39.5373384   8.3841301  62.1085310  37.0289374  14.4650104  63.7150931
  36.5010735  13.7302864  63.4024169  36.5276876  15.2424781  63.4690899
  42.0082220  12.6599125  68.8317977  41.3505894  13.3498386  68.9198106
  42.8122619  13.0495557  69.1751964  31.7608101   5.1269771  66.0757543
  32.3351853   4.9044952  65.3430736  32.3479084   5.1958465  66.8286144
  40.8187679  11.0143498  66.8821919  41.3319560  11.6473489  67.3843629
  41.4688902  10.4144693  66.5165279  32.0877688   7.1574232  60.0953428
  31.2515001   7.4948918  60.4162703  31.9482458   7.0223211  59.1580565
  34.0630769   2.0011020  64.8032612  33.4095181   1.6860037  64.1789227
  34.0211243   1.3786760  65.5292435  35.1741974  12.2830315  56.7185904
  34.2669036  12.0519568  56.9177053  35.6713006  11.4867934  56.9059886
  37.2968509   8.4892953  69.1280260  36.3791071   8.7107900  68.9701948
  37.7128653   8.5639264  68.2691967  38.0803557   9.8884369  64.2582940
  38.8275376  10.4005766  63.9490062  38.3495147   9.5668422  65.1187334
  36.3530207  12.3842910  61.2409894  35.4441427  12.1001942  61.3382364
  36.3825291  12.8041988  60.3813201  41.5849475  15.9949499  65.0101062
  41.1311802  15.1540409  65.0666252  40.9543441  16.6310897  65.3475842
  40.5282394   6.9241485  66.2401729  39.7905151   6.4118871  66.5711972
  40.7809168   6.4841867  65.4285006  40.0282414  17.8325996  65.9450880
  40.3205388  18.3931053  65.2263246  40.5381035  18.1254557  66.7004039
  40.6294022  -0.2982263  66.8343499  40.9352898  -1.1584900  66.5469414
  41.3546626   0.2935357  66.6342492  26.9218378  10.1048424  65.2225096
  26.7242778   9.5117784  64.4976163  26.3665042   9.8000634  65.9401035
  34.9015101   9.9971530  67.3419690  34.9563711   9.0445367  67.2662166
  34.0906303  10.1530969  67.8260988  36.0506295  13.9251653  58.5797973
  35.6125725  13.2087512  58.1203610  36.7916736  14.1527768  58.0183064
  32.8407461   8.6148590  65.1010068  32.0275327   8.9142760  65.5075261
  33.3366455   8.2204279  65.8184551  34.9916039  18.6106347  67.0344333
  34.9492218  18.8367193  66.1052865  35.9078738  18.3769721  67.1830134
  44.1679410  12.2008850  64.6374291  44.0297309  12.3910446  63.7095481
  43.8115629  12.9628233  65.0942343  44.1948790  14.2685377  69.6485563
  44.6285296  14.1760666  70.4968617  44.9080370  14.2442878  69.0105579
  33.1081840  15.4869376  66.8306296  33.9022438  14.9919696  66.6288871
  32.3973532  14.9587239  66.4674001  37.9276684  17.8687471  71.1818663
  37.9813707  18.4378408  71.9496379  37.0591466  18.0389356  70.8172701
  29.4164603   9.6312458  62.9066049  28.4862192   9.5696913  63.1236011
  29.5122075   9.1088410  62.1102690  29.3350152   6.1567270  65.4944290
  29.5956970   7.0712604  65.3853451  30.1567325   5.6891713  65.6440903
  45.0564339  14.3109078  72.1818448  45.2500229  15.2154888  72.4277723
  44.9564957  13.8516497  73.0157033  36.8864784  12.0347733  72.7405595
  37.8156844  12.1858893  72.5674563  36.4655814  12.1231754  71.8854242
  35.6853116  16.0598398  70.5104133  35.5464202  15.6917182  71.3830071
  34.8967712  16.5746037  70.3388091  36.2801268  21.1607494  61.8529669
  36.4553024  20.6895537  62.6675292  35.5934056  21.7873260  62.0810930
  37.2358331  15.4380000  67.8992971  36.9008164  15.3980770  68.7950621
  36.7362277  14.7724716  67.4263381  40.1717523  12.7836035  58.1730030
  39.5546693  12.0582863  58.0763083  39.7034011  13.5445395  57.8297105
  41.8271654  17.4934943  75.8335811  41.7684201  16.8094163  75.1666394
  42.2291173  18.2353933  75.3816437  30.8462353  24.3096857  68.6269530
  31.0858951  24.9415381  69.3048548  30.0031550  23.9584897  68.9134889
  31.9616069   7.0021459  57.2951335  31.0845535   6.8810260  56.9313581
  32.4373822   6.2107537  57.0430223  41.8289062  15.4574527  74.0649790
  40.9415840  15.1200449  74.1876189  42.3987613  14.7257558  74.3018556
  23.4818209  11.7898619  67.3892842  24.1689249  11.4760349  66.8013857
  23.3266337  12.6939983  67.1160093  35.3590215  20.1175979  71.0311034
  35.2860387  20.9230951  71.5430338  34.9167608  20.3167945  70.2059055
  35.1479995  19.3547749  64.5413855  34.3647517  19.8969430  64.6352080
  35.8472740  19.8721729  64.9408096  38.4576645   5.1642379  67.1848061
  38.9545344   4.4112341  66.8649131  37.6863626   5.2006696  66.6191270
  46.3106402  10.8682744  68.8266352  46.2996278  11.7507460  68.4560285
  45.4423782  10.5154295  68.6320889  37.8188899  20.0162813  73.1869192
  38.5316871  20.6510278  73.1145094  37.3278927  20.1126679  72.3709194
  39.5406426  13.9214066  64.7586484  38.6062704  14.0415529  64.5891188
  39.7183094  13.0186533  64.4946494  35.0411614   7.3059762  66.9119745
  34.6709401   6.7530802  67.6000651  35.5370706   6.7017895  66.3594745
  42.9278977   9.7631385  65.2936518  43.3939429  10.5959377  65.2196821
  43.3786477   9.2976367  65.9981777  32.8700812  17.7657257  74.0074763
  33.5710272  18.3993740  74.1604157  32.3995927  18.1071988  73.2470402
  40.9955208  16.1075207  62.2922670  41.2715052  15.9931801  63.2016544
  40.1259707  15.7092692  62.2534843  40.6702098  10.3201864  71.8327313
  40.0173548  10.5677772  71.1779766  41.0482478   9.5066003  71.4989791
  37.6309272  20.3561558  65.9355484  37.8131667  19.5383214  66.3983236
  38.4542258  20.5729250  65.4980374  37.9651437  19.2829743  63.1970532
  38.4939204  18.7722197  62.5840694  38.2279657  18.9672273  64.0616065
  28.4668530  17.2993612  70.9405866  29.0521967  16.5537300  71.0733770
  28.2693369  17.6097569  71.8242530  31.3207185  20.3344859  65.9568308
  30.6517561  20.8190987  65.4732348  31.1820055  20.5814080  66.8711687
  35.4612454  22.3688603  72.5550967  36.0130762  22.5320224  73.3200052
  35.8018647  22.9593041  71.8830991  26.6894763   8.5963314  62.7364240
  26.9848204   7.6873993  62.6831294  25.7882798   8.5751054  62.4145243
  38.5980841  20.3170578  69.5414649  38.4731981  19.5160318  69.0325594
  39.2559932  20.8116772  69.0528619  40.6615750  18.1179599  71.1694199
  39.7146085  17.9984950  71.0972526  41.0098523  17.2302097  71.2520460
  28.4182604   6.2777412  62.8603565  28.0895310   5.3974791  62.6778671
  28.7721975   6.2225081  63.7479955  37.6662183  17.9132315  67.3698551
  37.5187145  16.9849022  67.5506121  38.4915676  17.9352405  66.8855626
  31.5324427   6.5650382  63.2279043  31.8720500   7.0936303  62.5057652
  31.9796548   6.9030788  64.0037610  41.2696305  18.7360873  68.4563424
  42.1942852  18.5303735  68.3187875  41.1011608  18.4877275  69.3652765
  33.5192574   5.0625003  61.4272336  34.2400937   5.4406256  60.9236053
  32.8957879   5.7813880  61.5307314  37.6623697   5.7670152  62.3630668
  37.8787312   6.6494790  62.0619496  37.1817764   5.3756366  61.6336310
  41.0591621  19.2546541  63.8125515  41.2328499  18.6892963  63.0599368
  41.5520512  20.0547436  63.6305005  33.6656197   4.5972794  64.2569873
  33.7872109   3.6689440  64.4560760  33.3758240   4.6111480  63.3448188
  46.9131012  12.0182964  65.4315815  47.3562158  11.2690289  65.0334938
  46.0357522  12.0093100  65.0489547  42.0466794  18.5713305  60.9122414
  42.7417698  19.1919998  61.1309728  42.3889944  17.7208657  61.1874791
  43.9458217  16.0213011  62.4409744  44.4709541  16.3600284  61.7159064
  43.8580569  15.0860026  62.2572879  35.6078265  19.9347084  74.5699621
  35.9165392  19.6896231  75.4422320  36.4053747  20.1393723  74.0818491
  35.6298877  22.0884994  66.8004997  35.1903868  21.5961373  67.4937854
  36.3806994  21.5457962  66.5597073  28.1091216  18.2796535  66.8029626
  28.9349236  17.9800307  66.4228269  27.7585268  17.5104157  67.2519414
  33.0772750  17.6323003  68.8727299  32.4552759  16.9693708  68.5729527
  33.7477616  17.6584135  68.1900947  26.3099821  16.1982861  67.7618559
  25.4731730  15.7705036  67.5802560  26.2823467  16.3915305  68.6989350
  43.6352123  16.6545914  77.7460942  42.8447666  16.6370053  77.2065442
  43.3985477  17.1934208  78.5009979  43.7549998  13.5038381  75.0593671
  43.8048003  13.3388388  76.0009194  43.6463921  12.6365640  74.6691552
  32.6386256  16.1826927  62.3485760  32.7874377  16.8662391  61.6952432
  33.4452700  16.1632017  62.8635215  45.2568195  15.9235322  75.3035692
  44.9653003  16.2865303  76.1399153  44.6440326  15.2102331  75.1249024
  46.4563877  13.4888202  67.8238263  47.2910768  13.9278006  67.9875823
  46.5923006  13.0126855  67.0046508  43.5055383  11.0467937  73.7715750
  43.9809504  11.2395583  72.9634602  42.5820948  11.1027123  73.5259134
  30.3938889  12.2092104  63.3546829  30.1484931  11.3054434  63.5527039
  30.5634804  12.2109255  62.4126307  29.6634537   7.9420462  60.8532990
  28.9703782   8.0164817  60.1973026  29.4186289   7.1780805  61.3754507
  36.1381662  18.6775057  59.8197507  35.5655629  19.2965244  59.3667979
  36.7114456  19.2274419  60.3537429  42.2057052   7.9233697  72.0044056
  43.1574475   8.0231795  72.0256280  42.0360502   7.1311966  72.5142140
  39.3578922  18.9612207  60.9506089  40.2909595  18.8957769  61.1538965
  39.2702135  19.7968474  60.4920622  44.6845130  11.1439817  71.1186356
  44.6521450  10.2055818  71.3046039  45.2945753  11.2223854  70.3852180
  36.5228460  10.0135870  57.1613560  37.4687565   9.8842078  57.2301978
  36.1442705   9.2750532  57.6382988  44.8339618   7.9350860  71.1644639
  44.3178667   7.1509317  70.9774568  45.7179567   7.6069577  71.3291158
  42.4950345   1.6791876  67.1240451  42.2975166   1.3706964  68.0083783
  43.1050051   2.4053515  67.2538381  50.5021679  12.2055824  70.2592392
  51.2325068  11.9441112  70.8200096  49.8928625  11.4684546  70.2994460
  48.5836977  10.3463686  70.8566844  47.8570140  10.2119651  70.2483335
  48.1684263  10.6540515  71.6623562  34.7071378   7.9385846  57.0968445
  33.8002833   7.6418959  57.1731158  34.9847359   7.6415664  56.2302731
  36.3233443   2.4822736  63.2512686  35.5134172   2.1369821  63.6267932
  37.0117860   2.1730280  63.8400298  38.2523992   1.5600783  64.8736983
  38.8055030   1.9796236  65.5327006  38.4894078   0.6336531  64.9159939
  33.4770162   4.7972781  57.2380424  34.3389326   5.1227680  57.4976241
  33.6620506   4.0104277  56.7253490  41.6302799   3.6701308  64.3815647
  41.0501468   4.3286112  63.9993699  41.3638731   2.8478652  63.9703065
  40.0806365   3.0706366  66.5836967  40.5806143   3.1822900  65.7751286
  40.7241973   2.7667418  67.2237776  27.4074321  12.8113375  67.3926628
  27.3845009  12.9101062  66.4408511  27.7174957  13.6578526  67.7143794
  40.4127677   5.8301398  63.4371995  39.5253532   6.1151049  63.2192190
  40.8281666   5.6695162  62.5899272  43.7642213   5.8547919  67.1526335
  44.5402603   6.3444372  67.4250951  43.0390347   6.2805973  67.6098204
  46.2014771   6.5675538  68.2100275  46.7959262   6.3271274  67.4993583
  46.2741355   5.8482669  68.8373811  28.4211927  20.4109149  68.5243440
  28.2866395  19.6509550  67.9581438  28.0043989  21.1350049  68.0572229
  39.5570890  15.5946073  57.5320015  40.2606740  15.7996075  58.1477671
  38.8333539  16.1622835  57.7969099  40.3868700  11.3455934  63.6522285
  40.3303902  11.8024486  62.8129918  40.9397043  10.5846619  63.4745128
  44.1973506   7.1345666  64.4772405  43.9410441   6.7342302  65.3080613
  43.5726374   7.8489460  64.3522544  48.5085844   9.8741739  66.9843696
  47.9485402   9.9434929  67.7575258  47.9029348   9.6982724  66.2643193
  31.5781053  21.3078466  68.7361883  31.4613437  22.2523899  68.6340573
  30.7573499  21.0052028  69.1247682  41.4657588  16.0328602  59.5818475
  42.3003192  15.6009801  59.3995950  41.3041931  15.8610616  60.5095370
  41.1203480  12.5360715  60.9474815  41.0652284  12.3704987  60.0063259
  40.4949535  13.2436748  61.1037004  34.4299605   2.0368824  60.5260133
  34.4178275   2.9810664  60.6828404  35.3223027   1.8538970  60.2319594
  32.6035567  21.9606728  71.9517811  33.5062814  21.9930339  72.2684306
  32.3772937  21.0307179  71.9664147  34.3589169  20.7137715  68.6127890
  33.4084800  20.7139576  68.4992262  34.6621655  19.9670449  68.0963924
  38.2451725  -1.3688399  64.7806070  37.4784121  -1.9229912  64.9262752
  38.6562430  -1.2966530  65.6420221  50.0941863  26.5498253  69.6773652
  50.7320273  26.4305001  68.9736992  49.9762706  27.4979097  69.7361604
  46.9031569  26.5025681  69.6135177  46.5650080  26.3866746  68.7255712
  47.7721337  26.1016846  69.5936183  42.7618385  28.3561158  65.6032068
  42.1983250  28.2651095  64.8348355  42.6470780  27.5361062  66.0834560
  47.3851352  27.6560533  75.5721382  47.3739993  27.2613331  74.7001886
  47.5471991  26.9226606  76.1655154  40.3082817  29.8512349  68.4416288
  41.1004109  29.5103174  68.0262587  40.5479467  29.9607324  69.3618441
  44.1058613  30.4397645  74.5200566  43.8148479  31.3443276  74.4047233
  44.7415597  30.4814172  75.2344636  45.0314820  27.8174493  71.1101926
  45.6278392  27.5930516  70.3958889  45.0889791  27.0759239  71.7127374
  49.6483131  24.2749707  66.7526860  50.4346220  23.8569130  66.4017277
  49.9121836  25.1795799  66.9208508  49.8193209  29.7122557  61.4515517
  49.1839042  29.7857184  62.1636422  49.4890615  30.3016156  60.7734596
  55.0491558  24.2124940  67.6559839  55.7816730  23.6424157  67.8897668
  54.2930914  23.8246541  68.0966344  46.6667678  26.6352182  64.8523181
  46.3025885  26.1082803  65.5636103  47.5234794  26.2450651  64.6789666
  52.5716979  17.9246514  72.1154447  52.2400303  18.7941925  71.8915662
  51.9762592  17.6082798  72.7948478  49.0648498  30.1259060  71.5150360
  48.7649221  31.0284099  71.4066167  48.7199558  29.8591244  72.3671513
  42.5160980  26.5772857  67.5487064  41.5911476  26.4449071  67.7564756
  42.7645393  27.3567076  68.0457007  52.4645642  22.6441601  69.1947797
  51.5562519  22.5757009  68.9006558  52.4133238  23.1213545  70.0229623
  39.8769791  26.2206131  68.3830853  40.0062172  26.4740610  69.2970265
  39.1967242  26.8133839  68.0635509  44.0469278  36.8903381  64.4821328
  43.9693308  37.8411206  64.5609808  43.4430922  36.5449253  65.1396254
  46.5386508  24.0631246  77.1382695  45.7619842  24.6225166  77.1285559
  47.1777071  24.5488029  77.6597565  54.3307288  20.8458039  70.9725671
  53.6881669  21.1390572  70.3265466  53.8262217  20.7310959  71.7778868
  51.9847452  24.5921212  61.6611530  52.8965308  24.8248599  61.4859228
  51.4757099  25.1758256  61.0986609  44.7932880  26.8716699  76.7000662
  45.5347564  27.4101743  76.4235485  44.0869866  27.4982988  76.8572213
  50.2688220  29.0145840  75.2972823  50.6771576  28.5728250  74.5527455
  49.5465481  28.4398467  75.5507016  46.6219290  23.9518447  72.6706380
  47.4680485  24.3757860  72.8141029  46.5617927  23.2952071  73.3644943
  50.5917034  29.5747031  69.0525112  49.9625897  29.7392745  68.3501180
  50.2042696  29.9888640  69.8236076  54.4706266  30.5101468  66.4069476
  53.7857304  30.8900370  65.8566509  54.5550116  31.1196795  67.1401423
  49.7718735  21.6122815  74.3287554  49.5279667  22.3664876  73.7921829
  50.0478666  21.9908163  75.1634801  51.7257198  28.1561427  73.0064819
  51.9374093  28.7993187  72.3299200  51.6786946  27.3223744  72.5386749
  49.3283427  20.7679248  69.9101391  48.4667906  21.0660502  70.2018129
  49.3545861  20.9849647  68.9782424  46.1444996  29.3121439  66.3175197
  46.6083342  29.5909142  65.5279820  45.8801794  28.4104883  66.1348288
  43.0369077  28.8592920  69.2554960  43.6070434  29.2880189  68.6172445
  43.6277189  28.5775505  69.9539146  43.5294244  24.0256348  77.5015972
  42.8992904  24.7072629  77.7351368  43.4230332  23.9139429  76.5569110
  38.8239216  23.6928144  68.4281896  38.0338270  23.9485672  67.9522006
  39.3150464  24.5076482  68.5333936  52.8403026  31.0333383  71.1787177
  53.6620470  30.6313570  70.8969858  52.8365429  30.9301617  72.1303292
  40.7753962  24.0572723  65.3865372  39.9785125  24.1691417  65.9048868
  40.5479554  24.3959375  64.5206263  46.6059629  30.5817426  73.3347887
  46.6704062  31.0437833  74.1706059  45.8970553  29.9514791  73.4630197
  37.1076919  23.9458634  70.8596887  37.3584958  24.8305644  71.1254462
  37.6436468  23.7663236  70.0871978  60.9309019  27.3772131  67.5272148
  60.1772727  26.8079529  67.3716152  61.0656560  27.3434796  68.4742783
  46.3207647  32.2485534  63.2026867  46.1853322  33.0937069  63.6311715
  46.8617459  32.4504811  62.4392801  39.7737044  29.7660972  63.7754792
  40.2861565  30.5604222  63.9260357  40.4259757  29.0687262  63.7088394
  41.5831929  32.8826728  65.8577546  41.7598557  33.8044693  65.6698530
  42.3788763  32.5685147  66.2871925  45.7242948  19.7434993  77.4561479
  46.4652661  20.3442146  77.3765942  45.9560870  19.0012630  76.8979522
  40.8684286  24.9291360  75.7339709  40.7537801  24.0276617  76.0346808
  40.0128803  25.1755057  75.3824525  47.9476123  32.8709100  77.3327209
  47.5039977  32.0845479  77.0148114  48.6093337  33.0588251  76.6671100
  42.7063244  34.4004902  71.8587888  43.2570670  34.2721965  71.0864882
  41.8674720  34.6999791  71.5082781  50.0457361  33.1511900  75.3608611
  50.0275837  33.9720781  74.8688880  50.9677281  33.0265975  75.5858752
  46.5030416  30.6656030  76.2032119  47.0358752  29.9044318  75.9731427
  45.9744497  30.3729681  76.9456274  49.6700110  15.7716096  71.7325761
  49.3264380  16.6617737  71.6564871  50.0379073  15.5817753  70.8695346
  47.2197504  20.6074407  65.2983434  46.3639101  20.2181258  65.1189073
  47.6324456  20.6866368  64.4383220  48.7496651  18.1420751  69.6974994
  48.2461446  18.1050886  68.8842799  49.0427258  19.0513493  69.7571651
  44.9939537  18.2259480  68.7041176  45.8592534  18.0302289  68.3447065
  45.0617046  17.9969832  69.6310533  54.6084667  28.5157061  62.1751369
  53.8314110  28.1768221  61.7306532  55.2876148  28.5209684  61.5006334
  47.8683128  29.7942022  63.7150931  47.3404490  29.0594782  63.4024169
  47.3670631  30.5716698  63.4690899  52.8475974  27.9891043  68.8317977
  52.1899649  28.6790304  68.9198106  53.6516373  28.3787474  69.1751964
  42.6001856  20.4561688  66.0757543  43.1745608  20.2336870  65.3430736
  43.1872838  20.5250383  66.8286144  51.6581433  26.3435415  66.8821919
  52.1713315  26.9765407  67.3843629  52.3082657  25.7436611  66.5165279
  44.9024524  17.3302937  64.8032612  44.2488936  17.0151954  64.1789227
  44.8604998  16.7078678  65.5292435  48.9203807  36.3219740  59.6382590
  48.2465506  36.6251436  60.2467548  49.3069629  37.1248820  59.2888047
  48.1362264  23.8184871  69.1280260  47.2184825  24.0399818  68.9701948
  48.5522408  23.8931181  68.2691967  48.9197312  25.2176286  64.2582940
  49.6669131  25.7297684  63.9490062  49.1888901  24.8960339  65.1187334
  52.4243229  31.3241417  65.0101062  51.9705556  30.4832327  65.0666252
  51.7937196  31.9602815  65.3475842  51.3676149  22.2533403  66.2401729
  50.6298906  21.7410789  66.5711972  51.6202922  21.8133784  65.4285006
  50.8676168  33.1617913  65.9450880  51.1599143  33.7222970  65.2263246
  51.3774789  33.4546474  66.7004039  51.4687776  15.0309655  66.8343499
  51.7746653  14.1707018  66.5469414  52.1940381  15.6227275  66.6342492
  45.7408856  25.3263448  67.3419690  45.7957466  24.3737284  67.2662166
  44.9300058  25.4822887  67.8260988  43.6801216  23.9440508  65.1010068
  42.8669081  24.2434678  65.5075261  44.1760210  23.5496196  65.8184551
  45.8309794  33.9398264  67.0344333  45.7885972  34.1659111  66.1052865
  46.7472493  33.7061639  67.1830134  49.2775427  24.4082332  73.9324962
  49.6324815  24.6353805  74.7919428  49.9247559  24.7400709  73.3102218
  55.0073164  27.5300768  64.6374291  54.8691063  27.7202364  63.7095481
  54.6509383  28.2920151  65.0942343  43.1715291  21.5158863  70.7171303
  43.8114670  21.3747622  70.0194267  42.3392821  21.2293376  70.3409905
  55.0342544  29.5977295  69.6485563  55.4679051  29.5052584  70.4968617
  55.7474125  29.5734795  69.0105579  43.9475594  30.8161293  66.8306296
  44.7416193  30.3211614  66.6288871  43.2367287  30.2879157  66.4674001
  48.7670439  33.1979389  71.1818663  48.8207461  33.7670325  71.9496379
  47.8985220  33.3681274  70.8172701  40.2558358  24.9604375  62.9066049
  39.3255946  24.8988831  63.1236011  40.3515830  24.4380328  62.1102690
  40.1743907  21.4859188  65.4944290  40.4350724  22.4004521  65.3853451
  40.9961079  21.0183631  65.6440903  41.6468832  22.8996945  72.6643115
  42.3191886  22.6914307  72.0155764  40.8198619  22.7019031  72.2248347
  55.8958094  29.6400996  72.1818448  56.0893984  30.5446806  72.4277723
  55.7958712  29.1808415  73.0157033  47.5494404  19.5258886  74.6808776
  46.9022319  20.2248836  74.5873252  48.3195420  19.9595030  75.0485024
  50.9573202  29.7907738  77.7559329  50.8058709  29.5618290  76.8389413
  50.9477882  30.7478340  77.7690674  47.7258539  27.3639651  72.7405595
  48.6550599  27.5150811  72.5674563  47.3049569  27.4523672  71.8854242
  46.5246870  31.3890315  70.5104133  46.3857956  31.0209100  71.3830071
  45.7361467  31.9037955  70.3388091  47.1195022  36.4899412  61.8529669
  47.2946778  36.0187455  62.6675292  46.4327810  37.1165178  62.0810930
  48.0752086  30.7671918  67.8992971  47.7401918  30.7272688  68.7950621
  47.5756031  30.1016634  67.4263381  42.0496330  26.1739548  73.4245552
  41.9116127  25.4419787  74.0257091  42.9601253  26.0848448  73.1429740
  44.6778630  25.8859508  72.9129232  45.3878249  25.2452700  72.8715850
  44.6347938  26.1372402  73.8355412  52.6665409  32.8226861  75.8335811
  52.6077955  32.1386081  75.1666394  53.0684927  33.5645851  75.3816437
  43.3907564  22.8724725  74.7324871  42.8544921  22.4215464  75.3846467
  42.8024273  23.0070634  73.9895335  41.6856108  39.6388775  68.6269530
  41.9252706  40.2707299  69.3048548  40.8425304  39.2876815  68.9134889
  52.6682816  30.7866445  74.0649790  51.7809595  30.4492367  74.1876189
  53.2381367  30.0549476  74.3018556  39.1246685  22.0080733  71.8177866
  39.0404874  21.4006403  71.0828275  38.3029392  22.4989751  71.8187362
  46.1983970  35.4467897  71.0311034  46.1254141  36.2522869  71.5430338
  45.7561363  35.6459863  70.2059055  45.9873749  34.6839667  64.5413855
  45.2041271  35.2261347  64.6352080  46.6866494  35.2013647  64.9408096
  49.2970399  20.4934297  67.1848061  49.7939099  19.7404259  66.8649131
  48.5257381  20.5298613  66.6191270  57.1500157  26.1974662  68.8266352
  57.1390033  27.0799378  68.4560285  56.2817536  25.8446213  68.6320889
  48.6582653  35.3454731  73.1869192  49.3710625  35.9802196  73.1145094
  48.1672682  35.4418597  72.3709194  50.3800180  29.2505984  64.7586484
  49.4456459  29.3707446  64.5891188  50.5576848  28.3478451  64.4946494
  45.8805368  22.6351680  66.9119745  45.5103156  22.0822720  67.6000651
  46.3764461  22.0309813  66.3594745  53.7672731  25.0923303  65.2936518
  54.2333184  25.9251295  65.2196821  54.2180232  24.6268285  65.9981777
  43.7094567  33.0949175  74.0074763  44.4104026  33.7285658  74.1604157
  43.2389682  33.4363906  73.2470402  51.8348962  31.4367124  62.2922670
  52.1108806  31.3223719  63.2016544  50.9653461  31.0384609  62.2534843
  51.7389394  17.4603890  69.3327419  50.8252474  17.6908117  69.5009626
  52.1682496  17.5442334  70.1841452  51.5095853  25.6493782  71.8327313
  50.8567303  25.8969690  71.1779766  51.8876232  24.8357920  71.4989791
  48.4703026  35.6853475  65.9355484  48.6525421  34.8675131  66.3983236
  49.2936012  35.9021168  65.4980374  48.8045192  34.6121660  63.1970532
  49.3332958  34.1014115  62.5840694  49.0673412  34.2964191  64.0616065
  47.5583426  26.3913593  78.3193351  46.8824063  26.2907722  78.9895726
  48.3811060  26.2352807  78.7829348  39.3062285  32.6285530  70.9405866
  39.8915722  31.8829218  71.0733770  39.1087123  32.9389486  71.8242530
  42.1600940  35.6636777  65.9568308  41.4911315  36.1482905  65.4732348
  42.0213810  35.9105998  66.8711687  33.8979939  25.1991130  69.6610309
  33.9364039  24.6654721  70.4547427  33.3920232  24.6726335  69.0421286
  46.3006208  37.6980521  72.5550967  46.8524517  37.8612142  73.3200052
  46.6412402  38.2884958  71.8830991  41.2770702  20.0455670  73.1572851
  41.3412028  20.9070501  72.7450249  41.2137822  19.4329672  72.4245210
  40.7522974  22.1178803  76.8045886  41.3795013  21.7355880  77.4183410
  39.8950893  21.8993005  77.1701578  51.1517083  32.5241778  78.4099621
  51.6956987  33.1371736  77.9154576  50.5703928  33.0821357  78.9266634
  37.5288517  23.9255232  62.7364240  37.8241958  23.0165910  62.6831294
  36.6276553  23.9042971  62.4145243  49.4374596  35.6462496  69.5414649
  49.3125735  34.8452236  69.0325594  50.0953687  36.1408689  69.0528619
  41.0582764  22.0011229  68.7191789  40.3369350  22.6147196  68.5799262
  41.8476020  22.5368993  68.6408435  51.5009504  33.4471516  71.1694199
  50.5539840  33.3276867  71.0972526  51.8492277  32.5594014  71.2520460
  43.8609078  19.3365655  74.9932441  44.3843479  19.5827952  75.7558750
  43.6421411  20.1685690  74.5735578  39.2576359  21.6069330  62.8603565
  38.9289065  20.7266709  62.6778671  39.6115729  21.5516998  63.7479955
  48.5055937  33.2424232  67.3698551  48.3580900  32.3140940  67.5506121
  49.3309431  33.2644323  66.8855626  42.3718182  21.8942299  63.2279043
  42.7114254  22.4228221  62.5057652  42.8190302  22.2322706  64.0037610
  52.1090059  34.0652791  68.4563424  53.0336607  33.8595652  68.3187875
  51.9405363  33.8169192  69.3652765  45.0661623  20.2779350  72.6782111
  44.7258443  19.4787163  73.0802791  44.3600629  20.5781061  72.1058944
  45.7178094  17.3628663  71.1309434  46.5404164  16.8889141  71.0088325
  45.9616158  18.1419146  71.6308121  44.3586329  20.3916921  61.4272336
  45.0794691  20.7698174  60.9236053  43.7351633  21.1105798  61.5307314
  43.2416673  24.0547783  68.9401413  43.0961254  24.3688086  69.8325694
  42.7641877  24.6732684  68.3872311  45.1013056  21.0450331  68.9882302
  45.0874625  20.1491425  68.6514600  45.8185484  21.0520995  69.6220588
  46.9539187  21.4787671  71.0335430  46.6956965  22.4004742  71.0319760
  46.4224227  21.0818106  71.7235894  51.8985376  34.5838459  63.8125515
  52.0722253  34.0184881  63.0599368  52.3914267  35.3839353  63.6305005
  37.7162335  26.5953128  71.8789074  37.1715803  27.3712936  72.0109348
  38.5941685  26.9423932  71.7208195  44.5049952  19.9264712  64.2569873
  44.6265863  18.9981358  64.4560760  44.2151994  19.9403398  63.3448188
  47.3741142  17.6119622  67.3936592  47.3962839  17.6758955  66.4388572
  47.7909201  16.7724131  67.5877099  57.7524767  27.3474882  65.4315815
  58.1955913  26.5982207  65.0334938  56.8751277  27.3385018  65.0489547
  52.8860548  33.9005223  60.9122414  53.5811453  34.5211916  61.1309728
  53.2283698  33.0500574  61.1874791  38.5028357  25.7223024  74.7719231
  37.7610093  25.8705659  75.3583861  38.1821101  25.9831290  73.9085980
  54.7851971  31.3504929  62.4409744  55.3103295  31.6892201  61.7159064
  54.6974324  30.4151944  62.2572879  46.4472020  35.2639002  74.5699621
  46.7559146  35.0188149  75.4422320  47.2447502  35.4685641  74.0818491
  46.4692632  37.4176912  66.8004997  46.0297622  36.9253291  67.4937854
  47.2200749  36.8749879  66.5597073  38.9484971  33.6088453  66.8029626
  39.7742991  33.3092225  66.4228269  38.5979023  32.8396075  67.2519414
  43.9166504  32.9614921  68.8727299  43.2946513  32.2985626  68.5729527
  44.5871371  32.9876053  68.1900947  37.1493576  31.5274779  67.7618559
  36.3125484  31.0996953  67.5802560  37.1217221  31.7207222  68.6989350
  43.9891032  21.4396709  78.4659805  44.0379187  22.3158832  78.0837575
  44.5313546  20.8974102  77.8931448  54.4745877  31.9837832  77.7460942
  53.6841421  31.9661971  77.2065442  54.2379232  32.5226126  78.5009979
  54.5943752  28.8330299  75.0593671  54.6441757  28.6680306  76.0009194
  54.4857676  27.9657558  74.6691552  43.4780011  31.5118844  62.3485760
  43.6268131  32.1954309  61.6952432  44.2846454  31.4923934  62.8635215
  51.8847515  24.8161227  76.3752977  52.7857377  24.6767691  76.0836975
  51.9595489  24.9815681  77.3151155  46.2190320  22.1928081  75.2206164
  45.3493629  22.4861647  74.9488752  46.4549800  22.7768526  75.9413427
  56.0961949  31.2527240  75.3035692  55.8046757  31.6157221  76.1399153
  55.4834080  30.5394248  75.1249024  57.2957631  28.8180120  67.8238263
  58.1304523  29.2569924  67.9875823  57.4316760  28.3418773  67.0046508
  54.3449137  26.3759855  73.7715750  54.8203259  26.5687501  72.9634602
  53.4214703  26.4319041  73.5259134  41.2332644  27.5384022  63.3546829
  40.9878686  26.6346352  63.5527039  41.4028558  27.5401172  62.4126307
  48.9229354  18.4107698  72.7371584  49.4411298  19.1468725  72.4118073
  48.5684487  18.7171692  73.5718343  40.5028291  23.2712379  60.8532990
  39.8097536  23.3456734  60.1973026  40.2580043  22.5072723  61.3754507
  49.1741948  14.8307981  68.2572481  49.4543702  14.1631170  68.8832907
  49.9592555  15.0237076  67.7447145  53.0450806  23.2525615  72.0044056
  53.9968229  23.3523712  72.0256280  52.8754257  22.4603883  72.5142140
  51.0665186  20.3381198  72.1903457  50.4715118  20.6186211  71.4949945
  50.7814882  20.8275099  72.9620198  50.1972676  34.2904125  60.9506089
  51.1303349  34.2249686  61.1538965  50.1095889  35.1260392  60.4920622
  52.8260693  33.6069995  57.9110037  52.7474324  33.2729859  58.8045795
  53.6470360  34.0991763  57.9101509  55.5238884  26.4731734  71.1186356
  55.4915204  25.5347735  71.3046039  56.1339508  26.5515771  70.3852180
  55.6733373  23.2642778  71.1644639  55.1572421  22.4801235  70.9774568
  56.5573321  22.9361495  71.3291158  53.3344099  17.0083793  67.1240451
  53.1368921  16.6998882  68.0083783  53.9443805  17.7345432  67.2538381
  61.3415434  27.5347741  70.2592392  62.0718822  27.2733029  70.8200096
  60.7322379  26.7976463  70.2994460  59.4230731  25.6755604  70.8566844
  58.6963895  25.5411569  70.2483335  59.0078018  25.9832433  71.6623562
  47.2460907  29.3945534  78.6214217  48.1663917  29.5724133  78.8154263
  47.2110491  28.4501579  78.4693916  36.4643072  24.5884127  67.5467491
  36.1445857  23.7349435  67.2541865  35.9176501  24.8032705  68.3025459
  40.2422980  27.3046568  71.2636998  40.4608990  28.2363676  71.2825032
  40.6548754  26.9454543  72.0491802  47.1627198  17.8114654  63.2512686
  46.3527926  17.4661739  63.6267932  47.8511615  17.5022197  63.8400298
  49.0917746  16.8892700  64.8736983  49.6448785  17.3088154  65.5327006
  49.3287832  15.9628448  64.9159939  45.1150845  22.8779774  80.6539747
  45.0147572  23.8274131  80.5851838  44.8972387  22.5498013  79.7815817
  36.3331332  28.2087039  69.5160613  35.6394804  27.7940992  69.0030567
  37.0804323  28.2507575  68.9194032  52.4696553  18.9993226  64.3815647
  51.8895222  19.6578030  63.9993699  52.2032486  18.1770570  63.9703065
  50.9200120  18.3998283  66.5836967  51.4199898  18.5114818  65.7751286
  51.5635727  18.0959336  67.2237776  44.9782115  26.3076913  79.4704808
  44.4949197  27.1077273  79.6768697  45.0643054  26.3184858  78.5172252
  38.2468075  28.1405293  67.3926628  38.2238763  28.2392980  66.4408511
  38.5568712  28.9870443  67.7143794  40.9055453  30.1981448  71.5073242
  41.8598706  30.1665390  71.4403174  40.7067976  29.7372071  72.3223468
  41.4954835  28.7682564  74.0744040  42.3147724  29.2626642  74.0978877
  41.7691643  27.8514532  74.0461607  51.2521431  21.1593316  63.4371995
  50.3647286  21.4442967  63.2192190  51.6675420  20.9987079  62.5899272
  54.6035967  21.1839837  67.1526335  55.3796357  21.6736289  67.4250951
  53.8784102  21.6097891  67.6098204  57.0408526  21.8967456  68.2100275
  57.6353017  21.6563192  67.4993583  57.1135110  21.1774587  68.8373811
  39.2605682  35.7401067  68.5243440  39.1260150  34.9801468  67.9581438
  38.8437744  36.4641967  68.0572229  51.2262455  26.6747852  63.6522285
  51.1697656  27.1316403  62.8129918  51.7790797  25.9138536  63.4745128
  55.0367261  22.4637584  64.4772405  54.7804195  22.0634219  65.3080613
  54.4120129  23.1781378  64.3522544  59.3479599  25.2033657  66.9843696
  58.7879157  25.2726846  67.7575258  58.7423102  25.0274642  66.2643193
  42.4174808  36.6370384  68.7361883  42.3007192  37.5815817  68.6340573
  41.5967254  36.3343946  69.1247682  52.3051342  31.3620520  59.5818475
  53.1396946  30.9301718  59.3995950  52.1435685  31.1902533  60.5095370
  51.9597234  27.8652633  60.9474815  51.9046038  27.6996904  60.0063259
  51.3343290  28.5728666  61.1037004  36.7489749  23.1020697  74.7736237
  37.3948613  22.5919651  75.2623462  36.5406900  23.8389379  75.3479662
  49.2743141  30.1701545  80.2728377  50.1434301  30.3442197  79.9115012
  48.7949893  30.9895962  80.1504107  45.2693360  17.3660742  60.5260133
  45.2572030  18.3102582  60.6828404  46.1616782  17.1830887  60.2319594
  43.4429322  37.2898646  71.9517811  44.3456568  37.3222256  72.2684306
  43.2166692  36.3599097  71.9664147  45.1982924  36.0429632  68.6127890
  44.2478555  36.0431494  68.4992262  45.5015410  35.2962367  68.0963924
  49.0845479  13.9603519  64.7806070  48.3177875  13.4062005  64.9262752
  49.4956184  14.0325387  65.6420221  60.9335617  41.8790171  69.6773652
  61.5714027  41.7596918  68.9736992  60.8156460  42.8271015  69.7361604
  57.7425323  41.8317599  69.6135177  57.4043835  41.7158664  68.7255712
  58.6115092  41.4308764  69.5936183  53.6012139  43.6853075  65.6032068
  53.0377004  43.5943012  64.8348355  53.4864534  42.8652980  66.0834560
  58.2245106  42.9852451  75.5721382  58.2133747  42.5905249  74.7001886
  58.3865746  42.2518523  76.1655154  51.1476571  45.1804267  68.4416288
  51.9397863  44.8395092  68.0262587  51.3873221  45.2899242  69.3618441
  59.1811698  47.3524043  60.9146533  58.5299678  47.9378124  60.5280546
  59.9756061  47.8830238  60.9741570  54.9452368  45.7689563  74.5200566
  54.6542234  46.6735193  74.4047233  55.5809352  45.8106090  75.2344636
  55.8708574  43.1466411  71.1101926  56.4672147  42.9222433  70.3958889
  55.9283546  42.4051157  71.7127374  60.4876886  39.6041625  66.7526860
  61.2739975  39.1861048  66.4017277  60.7515590  40.5087717  66.9208508
  60.6586963  45.0414475  61.4515517  60.0232796  45.1149102  62.1636422
  60.3284369  45.6308074  60.7734596  65.8885313  39.5416858  67.6559839
  66.6210485  38.9716075  67.8897668  65.1324669  39.1538458  68.0966344
  55.1629892  42.5033952  61.1476492  55.0466150  41.8278856  61.8157576
  55.2732151  42.0166326  60.3308645  57.5061433  41.9644099  64.8523181
  57.1419640  41.4374720  65.5636103  58.3628548  41.5742568  64.6789666
  63.4110733  33.2538432  72.1154447  63.0794058  34.1233843  71.8915662
  62.8156347  32.9374716  72.7948478  57.1466920  36.9933999  59.8484530
  57.3141322  37.8614236  60.2155001  56.9564089  37.1561281  58.9245819
  59.9042253  45.4550978  71.5150360  59.6042976  46.3576017  71.4066167
  59.5593312  45.1883161  72.3671513  53.3554734  41.9064775  67.5487064
  52.4305231  41.7740989  67.7564756  53.6039147  42.6858994  68.0457007
  63.3039396  37.9733518  69.1947797  62.3956274  37.9048927  68.9006558
  63.2526992  38.4505463  70.0229623  57.1256140  39.4491657  60.8331196
  57.0055766  39.8948707  61.6716677  56.4308729  39.7976974  60.2744735
  50.7163545  41.5498048  68.3830853  50.8455926  41.8032527  69.2970265
  50.0360997  42.1425756  68.0635509  54.8863032  52.2195298  64.4821328
  54.8087062  53.1703123  64.5609808  54.2824676  51.8741171  65.1396254
  57.3780262  39.3923164  77.1382695  56.6013596  39.9517084  77.1285559
  58.0170825  39.8779947  77.6597565  65.1701043  36.1749957  70.9725671
  64.5275423  36.4682490  70.3265466  64.6655971  36.0602877  71.7778868
  62.8241207  39.9213130  61.6611530  63.7359063  40.1540517  61.4859228
  62.3150854  40.5050174  61.0986609  55.6326635  42.2008617  76.7000662
  56.3741319  42.7393661  76.4235485  54.9263620  42.8274906  76.8572213
  61.1081974  44.3437758  75.2972823  61.5165330  43.9020168  74.5527455
  60.3859236  43.7690385  75.5507016  57.4613044  39.2810364  72.6706380
  58.3074239  39.7049778  72.8141029  57.4011682  38.6243989  73.3644943
  61.4310789  44.9038948  69.0525112  60.8019651  45.0684662  68.3501180
  61.0436451  45.3180558  69.8236076  65.3100021  45.8393386  66.4069476
  64.6251059  46.2192287  65.8566509  65.3943870  46.4488713  67.1401423
  60.6112490  36.9414733  74.3287554  60.3673421  37.6956793  73.7921829
  60.8872420  37.3200080  75.1634801  62.5650952  43.4853345  73.0064819
  62.7767848  44.1285105  72.3299200  62.5180701  42.6515662  72.5386749
  60.1677181  36.0971166  69.9101391  59.3061660  36.3952419  70.2018129
  60.1939616  36.3141565  68.9782424  56.9838751  44.6413356  66.3175197
  57.4477096  44.9201059  65.5279820  56.7195549  43.7396801  66.1348288
  53.8762832  44.1884838  69.2554960  54.4464189  44.6172106  68.6172445
  54.4670944  43.9067423  69.9539146  55.9207637  40.7636509  63.1264762
  56.6231680  41.2157552  63.5938689  55.5888265  40.1220328  63.7544655
  54.3687998  39.3548265  77.5015972  53.7386659  40.0364546  77.7351368
  54.2624086  39.2431347  76.5569110  49.6632971  39.0220061  68.4281896
  48.8732025  39.2777590  67.9522006  50.1544218  39.8368399  68.5333936
  63.6796780  46.3625301  71.1787177  64.5014224  45.9605488  70.8969858
  63.6759183  46.2593535  72.1303292  51.6147716  39.3864641  65.3865372
  50.8178879  39.4983335  65.9048868  51.3873308  39.7251293  64.5206263
  57.4453384  45.9109344  73.3347887  57.5097816  46.3729751  74.1706059
  56.7364308  45.2806709  73.4630197  47.9470674  39.2750552  70.8596887
  48.1978712  40.1597562  71.1254462  48.4830222  39.0955153  70.0871978
  71.7702773  42.7064049  67.5272148  71.0166482  42.1371447  67.3716152
  71.9050315  42.6726714  68.4742783  53.6468741  33.6569031  79.8641223
  53.2535687  33.1035230  80.5388867  54.4634881  33.9679610  80.2547740
  50.6130799  45.0952889  63.7754792  51.1255319  45.8896140  63.9260357
  51.2653512  44.3979180  63.7088394  52.4225683  48.2118646  65.8577546
  52.5992312  49.1336610  65.6698530  53.2182517  47.8977065  66.2871925
  56.5636702  35.0726910  77.4561479  57.3046415  35.6734063  77.3765942
  56.7954625  34.3304548  76.8979522  51.7078040  40.2583278  75.7339709
  51.5931555  39.3568535  76.0346808  50.8522558  40.5046974  75.3824525
  58.7869878  48.2001018  77.3327209  58.3433732  47.4137396  77.0148114
  59.4487091  48.3880168  76.6671100  53.5456999  49.7296819  71.8587888
  54.0964424  49.6013883  71.0864882  52.7068475  50.0291708  71.5082781
  60.8851116  48.4803818  75.3608611  60.8669591  49.3012699  74.8688880
  61.8071036  48.3557893  75.5858752  57.3424170  45.9947947  76.2032119
  57.8752507  45.2336235  75.9731427  56.8138251  45.7021599  76.9456274
  60.5093865  31.1008013  71.7325761  60.1658134  31.9909655  71.6564871
  60.8772828  30.9109671  70.8695346  48.5779716  43.4241544  64.5514363
  49.4154938  43.8338552  64.3348071  48.7557983  42.4840986  64.5214557
  60.4744148  41.0916624  60.2398196  59.9590771  41.8621229  60.4786583
  60.2021456  40.4181760  60.8631257  58.0591259  35.9366325  65.2983434
  57.2032855  35.5473175  65.1189073  58.4718210  36.0158286  64.4383220
  59.5890405  33.4712668  69.6974994  59.0855201  33.4342804  68.8842799
  59.8821012  34.3805411  69.7571651  55.8333291  33.5551398  68.7041176
  56.6986288  33.3594207  68.3447065  55.9010800  33.3261750  69.6310533
  65.4478422  43.8448979  62.1751369  64.6707865  43.5060138  61.7306532
  66.1269903  43.8501602  61.5006334  60.2630451  38.9643716  62.0657977
  59.9580586  39.2789866  62.9168120  61.2160893  39.0425136  62.1085310
  58.7076883  45.1233940  63.7150931  58.1798244  44.3886699  63.4024169
  58.2064385  45.9008616  63.4690899  63.6869729  43.3182960  68.8317977
  63.0293403  44.0082222  68.9198106  64.4910128  43.7079392  69.1751964
  53.4395610  35.7853606  66.0757543  54.0139362  35.5628787  65.3430736
  54.0266593  35.8542301  66.8286144  62.4975188  41.6727333  66.8821919
  63.0107069  42.3057325  67.3843629  63.1476411  41.0728528  66.5165279
  55.7418278  32.6594855  64.8032612  55.0882690  32.3443872  64.1789227
  55.6998752  32.0370595  65.5292435  58.9756018  39.1476788  69.1280260
  58.0578580  39.3691735  68.9701948  59.3916162  39.2223099  68.2691967
  59.7591066  40.5468204  64.2582940  60.5062885  41.0589601  63.9490062
  60.0282656  40.2252257  65.1187334  58.0317716  43.0426745  61.2409894
  57.1228936  42.7585778  61.3382364  58.0612800  43.4625823  60.3813201
  63.2636984  46.6533334  65.0101062  62.8099311  45.8124244  65.0666252
  62.6330950  47.2894733  65.3475842  62.2069903  37.5825320  66.2401729
  61.4692660  37.0702707  66.5711972  62.4596677  37.1425702  65.4285006
  61.7069923  48.4909831  65.9450880  61.9992897  49.0514888  65.2263246
  62.2168544  48.7838392  66.7004039  62.3081531  30.3601572  66.8343499
  62.6140407  29.4998936  66.5469414  63.0334135  30.9519193  66.6342492
  48.6005887  40.7632259  65.2225096  48.4030287  40.1701620  64.4976163
  48.0452551  40.4584469  65.9401035  56.5802610  40.6555365  67.3419690
  56.6351220  39.7029202  67.2662166  55.7693812  40.8114805  67.8260988
  54.5194970  39.2732425  65.1010068  53.7062836  39.5726596  65.5075261
  55.0153964  38.8788114  65.8184551  56.6703548  49.2690182  67.0344333
  56.6279727  49.4951028  66.1052865  57.5866247  49.0353557  67.1830134
  60.1169182  39.7374250  73.9324962  60.4718570  39.9645723  74.7919428
  60.7641313  40.0692626  73.3102218  65.8466919  42.8592686  64.6374291
  65.7084818  43.0494282  63.7095481  65.4903138  43.6212068  65.0942343
  54.0109045  36.8450781  70.7171303  54.6508424  36.7039540  70.0194267
  53.1786576  36.5585294  70.3409905  65.8736299  44.9269213  69.6485563
  66.3072805  44.8344502  70.4968617  66.5867879  44.9026713  69.0105579
  54.7869349  46.1453211  66.8306296  55.5809947  45.6503531  66.6288871
  54.0761041  45.6171074  66.4674001  59.6064193  48.5271307  71.1818663
  59.6601216  49.0962243  71.9496379  58.7378975  48.6973192  70.8172701
  51.0952112  40.2896293  62.9066049  50.1649701  40.2280748  63.1236011
  51.1909584  39.7672246  62.1102690  51.0137661  36.8151106  65.4944290
  51.2744479  37.7296439  65.3853451  51.8354834  36.3475548  65.6440903
  52.4862587  38.2288863  72.6643115  53.1585640  38.0206225  72.0155764
  51.6592373  38.0310949  72.2248347  66.7351848  44.9692913  72.1818448
  66.9287738  45.8738724  72.4277723  66.6352466  44.5100332  73.0157033
  58.3888159  34.8550804  74.6808776  57.7416074  35.5540753  74.5873252
  59.1589174  35.2886948  75.0485024  61.7966957  45.1199656  77.7559329
  61.6452463  44.8910208  76.8389413  61.7871636  46.0770257  77.7690674
  58.5652293  42.6931569  72.7405595  59.4944353  42.8442728  72.5674563
  58.1443323  42.7815590  71.8854242  57.3640625  46.7182233  70.5104133
  57.2251711  46.3501018  71.3830071  56.5755221  47.2329873  70.3388091
  57.9588777  51.8191330  61.8529669  58.1340533  51.3479373  62.6675292
  57.2721565  52.4457096  62.0810930  58.9145840  46.0963836  67.8992971
  58.5795673  46.0564606  68.7950621  58.4149786  45.4308552  67.4263381
  52.8890084  41.5031466  73.4245552  52.7509882  40.7711705  74.0257091
  53.7995008  41.4140366  73.1429740  61.8505032  43.4419870  58.1730030
  61.2334202  42.7166698  58.0763083  61.3821520  44.2029230  57.8297105
  55.5172385  41.2151425  72.9129232  56.2272003  40.5744617  72.8715850
  55.4741693  41.4664320  73.8355412  63.5059163  48.1518779  75.8335811
  63.4471710  47.4677999  75.1666394  63.9078682  48.8937769  75.3816437
  54.2301319  38.2016643  74.7324871  53.6938676  37.7507382  75.3846467
  53.6418027  38.3362552  73.9895335  52.5249862  54.9680692  68.6269530
  52.7646460  55.5999217  69.3048548  51.6819059  54.6168732  68.9134889
  63.5076571  46.1158362  74.0649790  62.6203349  45.7784284  74.1876189
  64.0775122  45.3841394  74.3018556  45.1605718  42.4482454  67.3892842
  45.8476758  42.1344184  66.8013857  45.0053846  43.3523819  67.1160093
  49.9640440  37.3372651  71.8177866  49.8798629  36.7298320  71.0828275
  49.1423146  37.8281669  71.8187362  57.0377724  50.7759815  71.0311034
  56.9647896  51.5814786  71.5430338  56.5955117  50.9751781  70.2059055
  56.8267504  50.0131585  64.5413855  56.0435026  50.5553265  64.6352080
  57.5260249  50.5305564  64.9408096  60.1364154  35.8226214  67.1848061
  60.6332853  35.0696177  66.8649131  59.3651135  35.8590531  66.6191270
  67.9893911  41.5266580  68.8266352  67.9783787  42.4091295  68.4560285
  67.1211291  41.1738131  68.6320889  59.4976408  50.6746649  73.1869192
  60.2104380  51.3094114  73.1145094  59.0066436  50.7710515  72.3709194
  61.2193934  44.5797902  64.7586484  60.2850213  44.6999364  64.5891188
  61.3970603  43.6770368  64.4946494  56.7199123  37.9643597  66.9119745
  56.3496910  37.4114638  67.6000651  57.2158215  37.3601731  66.3594745
  64.6066486  40.4215221  65.2936518  65.0726938  41.2543212  65.2196821
  65.0573986  39.9560202  65.9981777  54.5488321  48.4241092  74.0074763
  55.2497781  49.0577575  74.1604157  54.0783436  48.7655824  73.2470402
  62.6742717  46.7659042  62.2922670  62.9502561  46.6515637  63.2016544
  61.8047216  46.3676527  62.2534843  62.5783149  32.7895808  69.3327419
  61.6646228  33.0200035  69.5009626  63.0076250  32.8734252  70.1841452
  62.3489607  40.9785700  71.8327313  61.6961057  41.2261607  71.1779766
  62.7269987  40.1649838  71.4989791  59.3096781  51.0145393  65.9355484
  59.4919175  50.1967049  66.3983236  60.1329767  51.2313085  65.4980374
  59.6438946  49.9413578  63.1970532  60.1726713  49.4306033  62.5840694
  59.9067166  49.6256108  64.0616065  58.3977180  41.7205511  78.3193351
  57.7217817  41.6199640  78.9895726  59.2204814  41.5644725  78.7829348
  50.1456039  47.9577447  70.9405866  50.7309476  47.2121135  71.0733770
  49.9480878  48.2681404  71.8242530  52.9994694  50.9928695  65.9568308
  52.3305070  51.4774822  65.4732348  52.8607564  51.2397915  66.8711687
  44.7373694  40.5283048  69.6610309  44.7757793  39.9946638  70.4547427
  44.2313987  40.0018253  69.0421286  57.1399963  53.0272438  72.5550967
  57.6918271  53.1904060  73.3200052  57.4806156  53.6176876  71.8830991
  52.1164456  35.3747588  73.1572851  52.1805783  36.2362419  72.7450249
  52.0531576  34.7621590  72.4245210  51.5916729  37.4470721  76.8045886
  52.2188768  37.0647798  77.4183410  50.7344648  37.2284923  77.1701578
  61.9910837  47.8533696  78.4099621  62.5350741  48.4663654  77.9154576
  61.4097682  48.4113274  78.9266634  48.3682271  39.2547150  62.7364240
  48.6635713  38.3457828  62.6831294  47.4670307  39.2334889  62.4145243
  60.2768350  50.9754414  69.5414649  60.1519490  50.1744154  69.0325594
  60.9347441  51.4700607  69.0528619  51.8976518  37.3303146  68.7191789
  51.1763104  37.9439114  68.5799262  52.6869774  37.8660911  68.6408435
  62.3403259  48.7763434  71.1694199  61.3933594  48.6568785  71.0972526
  62.6886032  47.8885932  71.2520460  54.7002832  34.6657573  74.9932441
  55.2237234  34.9119869  75.7558750  54.4815165  35.4977608  74.5735578
  50.0970113  36.9361247  62.8603565  49.7682819  36.0558626  62.6778671
  50.4509484  36.8808916  63.7479955  59.3449692  48.5716150  67.3698551
  59.1974654  47.6432858  67.5506121  60.1703185  48.5936241  66.8855626
  53.2111936  37.2234217  63.2279043  53.5508009  37.7520138  62.5057652
  53.6584057  37.5614623  64.0037610  62.9483814  49.3944709  68.4563424
  63.8730361  49.1887570  68.3187875  62.7799117  49.1461110  69.3652765
  55.9055377  35.6071268  72.6782111  55.5652197  34.8079081  73.0802791
  55.1994383  35.9072979  72.1058944  56.5571849  32.6920580  71.1309434
  57.3797918  32.2181059  71.0088325  56.8009912  33.4711064  71.6308121
  55.1980083  35.7208839  61.4272336  55.9188446  36.0990092  60.9236053
  54.5745388  36.4397716  61.5307314  59.3411206  36.4253988  62.3630668
  59.5574821  37.3078626  62.0619496  58.8605273  36.0340201  61.6336310
  54.0810428  39.3839701  68.9401413  53.9355008  39.6980004  69.8325694
  53.6035631  40.0024601  68.3872311  55.9406811  36.3742249  68.9882302
  55.9268379  35.4783342  68.6514600  56.6579239  36.3812913  69.6220588
  57.7932941  36.8079589  71.0335430  57.5350719  37.7296660  71.0319760
  57.2617982  36.4110024  71.7235894  62.7379130  49.9130376  63.8125515
  62.9116008  49.3476799  63.0599368  63.2308021  50.7131271  63.6305005
  48.5556090  41.9245045  71.8789074  48.0109558  42.7004853  72.0109348
  49.4335440  42.2715850  71.7208195  55.3443706  35.2556629  64.2569873
  55.4659618  34.3273275  64.4560760  55.0545749  35.2695315  63.3448188
  58.2134897  32.9411540  67.3936592  58.2356594  33.0050873  66.4388572
  58.6302956  32.1016048  67.5877099  68.5918521  42.6766799  65.4315815
  69.0349667  41.9274124  65.0334938  67.7145031  42.6676936  65.0489547
  63.7254302  49.2297141  60.9122414  64.4205207  49.8503833  61.1309728
  64.0677453  48.3792492  61.1874791  49.3422112  41.0514942  74.7719231
  48.6003848  41.1997577  75.3583861  49.0214856  41.3123207  73.9085980
  65.6245726  46.6796846  62.4409744  66.1497050  47.0184119  61.7159064
  65.5368078  45.7443862  62.2572879  57.2865774  50.5930920  74.5699621
  57.5952901  50.3480067  75.4422320  58.0841256  50.7977558  74.0818491
  57.3086386  52.7468829  66.8004997  56.8691377  52.2545208  67.4937854
  58.0594503  52.2041797  66.5597073  49.7878725  48.9380370  66.8029626
  50.6136745  48.6384142  66.4228269  49.4372777  48.1687993  67.2519414
  54.7560259  48.2906839  68.8727299  54.1340268  47.6277544  68.5729527
  55.4265125  48.3167970  68.1900947  47.9887330  46.8566697  67.7618559
  47.1519239  46.4288871  67.5802560  47.9610976  47.0499140  68.6989350
  54.8284786  36.7688627  78.4659805  54.8772941  37.6450749  78.0837575
  55.3707300  36.2266020  77.8931448  65.3139632  47.3129750  77.7460942
  64.5235175  47.2953889  77.2065442  65.0772986  47.8518044  78.5009979
  65.4337507  44.1622216  75.0593671  65.4835512  43.9972224  76.0009194
  65.3251430  43.2949475  74.6691552  62.7241269  40.1453144  76.3752977
  63.6251132  40.0059609  76.0836975  62.7989244  40.3107599  77.3151155
  57.0584074  37.5219999  75.2206164  56.1887384  37.8153565  74.9488752
  57.2943555  38.1060444  75.9413427  66.9355704  46.5819158  75.3035692
  66.6440512  46.9449138  76.1399153  66.3227835  45.8686166  75.1249024
  68.1351386  44.1472038  67.8238263  68.9698277  44.5861842  67.9875823
  68.2710515  43.6710691  67.0046508  65.1842892  41.7051772  73.7715750
  65.6597013  41.8979419  72.9634602  64.2608457  41.7610958  73.5259134
  52.0726398  42.8675940  63.3546829  51.8272440  41.9638270  63.5527039
  52.2422313  42.8693090  62.4126307  59.7623108  33.7399616  72.7371584
  60.2805052  34.4760643  72.4118073  59.4078241  34.0463609  73.5718343
  60.0135702  30.1599898  68.2572481  60.2937456  29.4923088  68.8832907
  60.7986309  30.3528994  67.7447145  63.8844561  38.5817532  72.0044056
  64.8361984  38.6815630  72.0256280  63.7148011  37.7895801  72.5142140
  61.9058940  35.6673116  72.1903457  61.3108872  35.9478128  71.4949945
  61.6208637  36.1567017  72.9620198  61.0366431  49.6196042  60.9506089
  61.9697104  49.5541604  61.1538965  60.9489644  50.4552309  60.4920622
  63.6654447  48.9361913  57.9110037  63.5868079  48.6021776  58.8045795
  64.4864114  49.4283681  57.9101509  66.3632639  41.8023652  71.1186356
  66.3308959  40.8639653  71.3046039  66.9733262  41.8807689  70.3852180
  58.2015969  40.6719705  57.1613560  59.1475074  40.5425913  57.2301978
  57.8230214  39.9334367  57.6382988  66.5127127  38.5934696  71.1644639
  65.9966176  37.8093152  70.9774568  67.3967076  38.2653412  71.3291158
  64.1737854  32.3375711  67.1240451  63.9762675  32.0290799  68.0083783
  64.7837560  33.0637350  67.2538381  72.1809188  42.8639659  70.2592392
  72.9112577  42.6024947  70.8200096  71.5716134  42.1268381  70.2994460
  70.2624486  41.0047522  70.8566844  69.5357649  40.8703487  70.2483335
  69.8471772  41.3124350  71.6623562  58.0854662  44.7237451  78.6214217
  59.0057671  44.9016050  78.8154263  58.0504245  43.7793497  78.4693916
  56.3858887  38.5969682  57.0968445  55.4790342  38.3002794  57.1731158
  56.6634868  38.2999500  56.2302731  47.3036827  39.9176045  67.5467491
  46.9839611  39.0641353  67.2541865  46.7570255  40.1324623  68.3025459
  51.0816735  42.6338486  71.2636998  51.3002744  43.5655594  71.2825032
  51.4942508  42.2746460  72.0491802  58.0020952  33.1406571  63.2512686
  57.1921681  32.7953656  63.6267932  58.6905369  32.8314115  63.8400298
  59.9311501  32.2184618  64.8736983  60.4842539  32.6380071  65.5327006
  60.1681587  31.2920366  64.9159939  55.9544600  38.2071692  80.6539747
  55.8541327  39.1566049  80.5851838  55.7366142  37.8789931  79.7815817
  55.1557671  35.4556617  57.2380424  56.0176835  35.7811515  57.4976241
  55.3408015  34.6688113  56.7253490  47.1725087  43.5378956  69.5160613
  46.4788558  43.1232909  69.0030567  47.9198078  43.5799493  68.9194032
  63.3090308  34.3285143  64.3815647  62.7288977  34.9869947  63.9993699
  63.0426240  33.5062488  63.9703065  61.7593874  33.7290201  66.5836967
  62.2593652  33.8406735  65.7751286  62.4029482  33.4251254  67.2237776
  55.8175870  41.6368831  79.4704808  55.3342952  42.4369191  79.6768697
  55.9036809  41.6476775  78.5172252  49.0861829  43.4697210  67.3926628
  49.0632518  43.5684897  66.4408511  49.3962466  44.3162361  67.7143794
  51.7449207  45.5273365  71.5073242  52.6992461  45.4957308  71.4403174
  51.5461731  45.0663989  72.3223468  52.3348590  44.0974481  74.0744040
  53.1541478  44.5918560  74.0978877  52.6085397  43.1806449  74.0461607
  62.0915186  36.4885234  63.4371995  61.2041041  36.7734884  63.2192190
  62.5069175  36.3278997  62.5899272  65.4429722  36.5131755  67.1526335
  66.2190112  37.0028207  67.4250951  64.7177856  36.9389809  67.6098204
  67.8802280  37.2259374  68.2100275  68.4746771  36.9855110  67.4993583
  67.9528864  36.5066504  68.8373811  50.0999436  51.0692985  68.5243440
  49.9653904  50.3093386  67.9581438  49.6831498  51.7933885  68.0572229
  61.2358399  46.2529908  57.5320015  61.9394249  46.4579911  58.1477671
  60.5121048  46.8206670  57.7969099  62.0656209  42.0039769  63.6522285
  62.0091411  42.4608321  62.8129918  62.6184552  41.2430454  63.4745128
  65.8761015  37.7929501  64.4772405  65.6197950  37.3926137  65.3080613
  65.2513883  38.5073295  64.3522544  70.1873353  40.5325575  66.9843696
  69.6272911  40.6018764  67.7575258  69.5816857  40.3566559  66.2643193
  53.2568562  51.9662302  68.7361883  53.1400946  52.9107734  68.6340573
  52.4361008  51.6635863  69.1247682  63.1445097  46.6912437  59.5818475
  63.9790701  46.2593636  59.3995950  62.9829440  46.5194451  60.5095370
  62.7990989  43.1944551  60.9474815  62.7439793  43.0288822  60.0063259
  62.1737044  43.9020584  61.1037004  47.5883504  38.4312615  74.7736237
  48.2342367  37.9211569  75.2623462  47.3800655  39.1681297  75.3479662
  60.1136896  45.4993463  80.2728377  60.9828056  45.6734115  79.9115012
  59.6343647  46.3187879  80.1504107  56.1087114  32.6952660  60.5260133
  56.0965784  33.6394500  60.6828404  57.0010536  32.5122805  60.2319594
  54.2823076  52.6190564  71.9517811  55.1850323  52.6514174  72.2684306
  54.0560446  51.6891015  71.9664147  56.0376678  51.3721550  68.6127890
  55.0872309  51.3723412  68.4992262  56.3409164  50.6254285  68.0963924
  59.9239234  29.2895436  64.7806070  59.1571629  28.7353923  64.9262752
  60.3349939  29.3617305  65.6420221  51.9280995  35.5780232  78.8711251
  52.7912456  35.2217037  79.0814576  51.3546405  35.2394127  79.5586655
  71.7729372  57.2082089  69.6773652  72.4107782  57.0888836  68.9736992
  71.6550215  58.1562932  69.7361604  68.5819078  57.1609517  69.6135177
  68.2437589  57.0450581  68.7255712  69.4508846  56.7600682  69.5936183
  64.4405894  59.0144993  65.6032068  63.8770759  58.9234930  64.8348355
  64.3258289  58.1944898  66.0834560  61.9870326  60.5096185  68.4416288
  62.7791618  60.1687009  68.0262587  62.2266976  60.6191160  69.3618441
  70.0205452  62.6815961  60.9146533  69.3693432  63.2670041  60.5280546
  70.8149815  63.2122156  60.9741570  63.9461080  59.7705098  61.3133667
  64.7191956  59.2234085  61.1746543  64.2986478  60.6349347  61.5248128
  66.7102329  58.4758329  71.1101926  67.3065901  58.2514351  70.3958889
  66.7677300  57.7343074  71.7127374  66.2827357  55.9297764  58.9452117
  66.5352878  55.4079285  58.1835580  65.3451916  55.7663909  59.0478800
  71.3270640  54.9333542  66.7526860  72.1133729  54.5152966  66.4017277
  71.5909344  55.8379635  66.9208508  71.4980718  60.3706393  61.4515517
  70.8626550  60.4441019  62.1636422  71.1678124  60.9599992  60.7734596
  76.7279067  54.8708776  67.6559839  77.4604239  54.3007992  67.8897668
  75.9718423  54.4830376  68.0966344  66.0023646  57.8325870  61.1476492
  65.8859904  57.1570773  61.8157576  66.1125906  57.3458244  60.3308645
  68.3455187  57.2936017  64.8523181  67.9813394  56.7666638  65.5636103
  69.2022303  56.9034486  64.6789666  74.2504488  48.5830350  72.1154447
  73.9187812  49.4525761  71.8915662  73.6550101  48.2666634  72.7948478
  67.9860674  52.3225917  59.8484530  68.1535076  53.1906153  60.2155001
  67.7957843  52.4853198  58.9245819  64.1948489  57.2356693  67.5487064
  63.2698985  57.1032907  67.7564756  64.4432902  58.0150912  68.0457007
  74.1433151  53.3025436  69.1947797  73.2350028  53.2340844  68.9006558
  74.0920747  53.7797381  70.0229623  67.9649895  54.7783574  60.8331196
  67.8449520  55.2240625  61.6716677  67.2702483  55.1268892  60.2744735
  61.5557300  56.8789966  68.3830853  61.6849681  57.1324445  69.2970265
  60.8754751  57.4717674  68.0635509  65.7256787  67.5487216  64.4821328
  65.6480817  68.4995041  64.5609808  65.1218431  67.2033089  65.1396254
  76.0094797  51.5041874  70.9725671  75.3669178  51.7974407  70.3265466
  75.5049726  51.3894795  71.7778868  73.6634961  55.2505047  61.6611530
  74.5752817  55.4832434  61.4859228  73.1544608  55.8342092  61.0986609
  68.3006799  54.6102282  72.6706380  69.1467994  55.0341696  72.8141029
  68.2405436  53.9535906  73.3644943  71.0070936  51.4263083  69.9101391
  70.1455415  51.7244337  70.2018129  71.0333370  51.6433482  68.9782424
  67.8232505  59.9705274  66.3175197  68.2870851  60.2492977  65.5279820
  67.5589303  59.0688719  66.1348288  64.7156586  59.5176756  69.2554960
  65.2857943  59.9464024  68.6172445  65.3064698  59.2359340  69.9539146
  66.7601391  56.0928426  63.1264762  67.4625435  56.5449470  63.5938689
  66.4282020  55.4512245  63.7544655  60.5026725  54.3511979  68.4281896
  59.7125779  54.6069508  67.9522006  60.9937973  55.1660317  68.5333936
  62.4541471  54.7156558  65.3865372  61.6572634  54.8275253  65.9048868
  62.2267063  55.0543211  64.5206263  58.7864428  54.6042469  70.8596887
  59.0372467  55.4889479  71.1254462  59.3223977  54.4247071  70.0871978
  67.9995156  62.9069369  63.2026867  67.8640831  63.7520905  63.6311715
  68.5404968  63.1088647  62.4392801  61.4524553  60.4244807  63.7754792
  61.9649074  61.2188057  63.9260357  62.1047266  59.7271097  63.7088394
  63.2619438  63.5410563  65.8577546  63.4386066  64.4628528  65.6698530
  64.0576272  63.2268983  66.2871925  62.5471795  55.5875195  75.7339709
  62.4325310  54.6860452  76.0346808  61.6916312  55.8338892  75.3824525
  71.3487619  46.4299931  71.7325761  71.0051889  47.3201573  71.6564871
  71.7166582  46.2401589  70.8695346  59.4173470  58.7533461  64.5514363
  60.2548692  59.1630470  64.3348071  59.5951738  57.8132903  64.5214557
  71.3137902  56.4208542  60.2398196  70.7984526  57.1913147  60.4786583
  71.0415211  55.7473678  60.8631257  68.8985013  51.2658243  65.2983434
  68.0426610  50.8765093  65.1189073  69.3111965  51.3450204  64.4383220
  70.4284160  48.8004586  69.6974994  69.9248955  48.7634721  68.8842799
  70.7214767  49.7097329  69.7571651  66.6727046  48.8843316  68.7041176
  67.5380043  48.6886124  68.3447065  66.7404555  48.6553668  69.6310533
  76.2872176  59.1740897  62.1751369  75.5101619  58.8352056  61.7306532
  76.9663657  59.1793520  61.5006334  71.1024205  54.2935634  62.0657977
  70.7974341  54.6081783  62.9168120  72.0554647  54.3717054  62.1085310
  69.5470637  60.4525857  63.7150931  69.0191999  59.7178617  63.4024169
  69.0458140  61.2300534  63.4690899  64.2789365  51.1145524  66.0757543
  64.8533117  50.8920705  65.3430736  64.8660347  51.1834218  66.8286144
  73.3368942  57.0019251  66.8821919  73.8500824  57.6349242  67.3843629
  73.9870166  56.4020446  66.5165279  64.6058952  53.1449985  60.0953428
  63.7696264  53.4824671  60.4162703  64.4663722  53.0098965  59.1580565
  66.5812033  47.9886773  64.8032612  65.9276445  47.6735790  64.1789227
  66.5392507  47.3662513  65.5292435  67.6923237  58.2706068  56.7185904
  66.7850299  58.0395321  56.9177053  68.1894269  57.4743687  56.9059886
  70.5991316  66.9803575  59.6382590  69.9253015  67.2835272  60.2467548
  70.9857138  67.7832655  59.2888047  69.8149773  54.4768706  69.1280260
  68.8972334  54.6983653  68.9701948  70.2309917  54.5515017  68.2691967
  70.5984821  55.8760122  64.2582940  71.3456640  56.3881519  63.9490062
  70.8676410  55.5544175  65.1187334  68.8711471  58.3718663  61.2409894
  67.9622690  58.0877695  61.3382364  68.9006555  58.7917741  60.3813201
  74.1030738  61.9825252  65.0101062  73.6493065  61.1416162  65.0666252
  73.4724705  62.6186650  65.3475842  73.0463658  52.9117238  66.2401729
  72.3086415  52.3994624  66.5711972  73.2990431  52.4717620  65.4285006
  72.5463677  63.8201749  65.9450880  72.8386652  64.3806806  65.2263246
  73.0562298  64.1130310  66.7004039  73.1475285  45.6893490  66.8343499
  73.4534162  44.8290853  66.5469414  73.8727890  46.2811110  66.6342492
  59.4399641  56.0924177  65.2225096  59.2424041  55.4993537  64.4976163
  58.8846305  55.7876387  65.9401035  67.4196365  55.9847283  67.3419690
  67.4744975  55.0321120  67.2662166  66.6087567  56.1406722  67.8260988
  68.5687559  59.9127406  58.5797973  68.1306989  59.1963265  58.1203610
  69.3097999  60.1403521  58.0183064  65.3588725  54.6024343  65.1010068
  64.5456590  54.9018513  65.5075261  65.8547719  54.2080032  65.8184551
  67.5097303  64.5982100  67.0344333  67.4673481  64.8242946  66.1052865
  68.4260002  64.3645474  67.1830134  76.6860673  58.1884603  64.6374291
  76.5478572  58.3786199  63.7095481  76.3296892  58.9503986  65.0942343
  64.8502800  52.1742698  70.7171303  65.4902179  52.0331457  70.0194267
  64.0180330  51.8877212  70.3409905  65.6263103  61.4745129  66.8306296
  66.4203702  60.9795449  66.6288871  64.9154796  60.9462992  66.4674001
  61.9345867  55.6188211  62.9066049  61.0043455  55.5572666  63.1236011
  62.0303339  55.0964163  62.1102690  61.8531416  52.1443023  65.4944290
  62.1138233  53.0588357  65.3853451  62.6748588  51.6767466  65.6440903
  63.3256341  53.5580781  72.6643115  63.9979395  53.3498143  72.0155764
  62.4986128  53.3602867  72.2248347  69.2281913  50.1842721  74.6808776
  68.5809828  50.8832671  74.5873252  69.9982929  50.6178865  75.0485024
  68.7982531  67.1483247  61.8529669  68.9734287  66.6771290  62.6675292
  68.1115319  67.7749013  62.0810930  69.7539595  61.4255753  67.8992971
  69.4189427  61.3856523  68.7950621  69.2543540  60.7600469  67.4263381
  63.7283839  56.8323384  73.4245552  63.5903636  56.1003622  74.0257091
  64.6388762  56.7432284  73.1429740  72.6898786  58.7711788  58.1730030
  72.0727957  58.0458616  58.0763083  72.2215275  59.5321148  57.8297105
  66.3566139  56.5443343  72.9129232  67.0665758  55.9036535  72.8715850
  66.3135447  56.7956238  73.8355412  65.0695073  53.5308561  74.7324871
  64.5332430  53.0799299  75.3846467  64.4811782  53.6654470  73.9895335
  64.4797332  52.9897212  57.2951335  63.6026798  52.8686013  56.9313581
  64.9555085  52.1983290  57.0430223  55.9999472  57.7774372  67.3892842
  56.6870512  57.4636102  66.8013857  55.8447601  58.6815737  67.1160093
  60.8034194  52.6664568  71.8177866  60.7192383  52.0590238  71.0828275
  59.9816901  53.1573587  71.8187362  67.6661258  65.3423503  64.5413855
  66.8828780  65.8845183  64.6352080  68.3654003  65.8597482  64.9408096
  70.9757908  51.1518132  67.1848061  71.4726608  50.3988094  66.8649131
  70.2044890  51.1882449  66.6191270  72.0587689  59.9089819  64.7586484
  71.1243968  60.0291282  64.5891188  72.2364357  59.0062286  64.4946494
  67.5592877  53.2935515  66.9119745  67.1890665  52.7406555  67.6000651
  68.0551969  52.6893648  66.3594745  75.4460240  55.7507138  65.2936518
  75.9120693  56.5835130  65.2196821  75.8967741  55.2852120  65.9981777
  73.5136471  62.0950960  62.2922670  73.7896315  61.9807554  63.2016544
  72.6440970  61.6968445  62.2534843  73.4176903  48.1187725  69.3327419
  72.5039983  48.3491952  69.5009626  73.8470005  48.2026170  70.1841452
  70.1490535  66.3437311  65.9355484  70.3312930  65.5258967  66.3983236
  70.9723521  66.5605003  65.4980374  70.4832701  65.2705496  63.1970532
  71.0120467  64.7597950  62.5840694  70.7460921  64.9548026  64.0616065
  60.9849794  63.2869365  70.9405866  61.5703230  62.5413053  71.0733770
  60.7874632  63.5973322  71.8242530  63.8388449  66.3220612  65.9568308
  63.1698824  66.8066740  65.4732348  63.7001319  66.5689833  66.8711687
  55.5767448  55.8574965  69.6610309  55.6151548  55.3238556  70.4547427
  55.0707741  55.3310171  69.0421286  62.9558211  50.7039506  73.1572851
  63.0199537  51.5654337  72.7450249  62.8925331  50.0913507  72.4245210
  62.4310483  52.7762638  76.8045886  63.0582522  52.3939716  77.4183410
  61.5738402  52.5576840  77.1701578  62.7370273  52.6595064  68.7191789
  62.0156859  53.2731032  68.5799262  63.5263529  53.1952829  68.6408435
  65.5396587  49.9949490  74.9932441  66.0630988  50.2411787  75.7558750
  65.3208920  50.8269525  74.5735578  60.9363868  52.2653165  62.8603565
  60.6076574  51.3850544  62.6778671  61.2903238  52.2100834  63.7479955
  70.1843446  63.9008068  67.3698551  70.0368409  62.9724775  67.5506121
  71.0096940  63.9228158  66.8855626  64.0505691  52.5526135  63.2279043
  64.3901763  53.0812056  62.5057652  64.4977811  52.8906541  64.0037610
  66.7449132  50.9363186  72.6782111  66.4045952  50.1370999  73.0802791
  66.0388138  51.2364896  72.1058944  67.3965603  48.0212498  71.1309434
  68.2191673  47.5472976  71.0088325  67.6403667  48.8002982  71.6308121
  66.0373838  51.0500756  61.4272336  66.7582200  51.4282009  60.9236053
  65.4139142  51.7689633  61.5307314  70.1804961  51.7545905  62.3630668
  70.3968575  52.6370543  62.0619496  69.6999028  51.3632119  61.6336310
  64.9204182  54.7131619  68.9401413  64.7748763  55.0271922  69.8325694
  64.4429386  55.3316519  68.3872311  66.7800565  51.7034167  68.9882302
  66.7662134  50.8075260  68.6514600  67.4972993  51.7104830  69.6220588
  68.6326696  52.1371507  71.0335430  68.3744474  53.0588577  71.0319760
  68.1011736  51.7401941  71.7235894  73.5772884  65.2422294  63.8125515
  73.7509762  64.6768716  63.0599368  74.0701776  66.0423189  63.6305005
  59.3949844  57.2536963  71.8789074  58.8503312  58.0296771  72.0109348
  60.2729194  57.6007768  71.7208195  66.1837461  50.5848547  64.2569873
  66.3053372  49.6565193  64.4560760  65.8939503  50.5987233  63.3448188
  69.0528651  48.2703457  67.3936592  69.0750348  48.3342790  66.4388572
  69.4696710  47.4307966  67.5877099  79.4312276  58.0058717  65.4315815
  79.8743422  57.2566042  65.0334938  78.5538786  57.9968853  65.0489547
  74.5648057  64.5589058  60.9122414  75.2598962  65.1795751  61.1309728
  74.9071207  63.7084410  61.1874791  60.1815866  56.3806859  74.7719231
  59.4397602  56.5289495  75.3583861  59.8608610  56.6415125  73.9085980
  76.4639480  62.0088764  62.4409744  76.9890804  62.3476037  61.7159064
  76.3761833  61.0735779  62.2572879  60.6272480  64.2672288  66.8029626
  61.4530500  63.9676060  66.4228269  60.2766532  63.4979910  67.2519414
  65.5954013  63.6198756  68.8727299  64.9734022  62.9569461  68.5729527
  66.2658880  63.6459888  68.1900947  58.8281085  62.1858614  67.7618559
  57.9912993  61.7580789  67.5802560  58.8004730  62.3791058  68.6989350
  65.1567520  62.1702680  62.3485760  65.3055640  62.8538144  61.6952432
  65.9633963  62.1507770  62.8635215  62.9120153  58.1967857  63.3546829
  62.6666195  57.2930187  63.5527039  63.0816067  58.1985008  62.4126307
  70.6016863  49.0691534  72.7371584  71.1198807  49.8052561  72.4118073
  70.2471996  49.3755527  73.5718343  62.1815800  53.9296215  60.8532990
  61.4885045  54.0040570  60.1973026  61.9367552  53.1656558  61.3754507
  70.8529457  45.4891816  68.2572481  71.1331211  44.8215005  68.8832907
  71.6380064  45.6820912  67.7447145  68.6562925  64.6650810  59.8197507
  68.0836893  65.2840997  59.3667979  69.2295719  65.2150172  60.3537429
  72.7452695  50.9965033  72.1903457  72.1502627  51.2770046  71.4949945
  72.4602391  51.4858934  72.9620198  71.8760185  64.9487960  60.9506089
  72.8090858  64.8833522  61.1538965  71.7883398  65.7844227  60.4920622
  74.5048202  64.2653831  57.9110037  74.4261833  63.9313694  58.8045795
  75.3257869  64.7575598  57.9101509  69.0409724  56.0011623  57.1613560
  69.9868829  55.8717831  57.2301978  68.6623969  55.2626285  57.6382988
  75.0131608  47.6667629  67.1240451  74.8156430  47.3582717  68.0083783
  75.6231314  48.3929268  67.2538381  67.2252641  53.9261599  57.0968445
  66.3184096  53.6294712  57.1731158  67.5028622  53.6291417  56.2302731
  58.1430581  55.2467963  67.5467491  57.8233366  54.3933271  67.2541865
  57.5964010  55.4616541  68.3025459  61.9210489  57.9630404  71.2636998
  62.1396499  58.8947511  71.2825032  62.3336263  57.6038378  72.0491802
  68.8414707  48.4698489  63.2512686  68.0315435  48.1245574  63.6267932
  69.5299124  48.1606033  63.8400298  70.7705255  47.5476536  64.8736983
  71.3236294  47.9671989  65.5327006  71.0075341  46.6212284  64.9159939
  65.9951426  50.7848534  57.2380424  66.8570590  51.1103433  57.4976241
  66.1801770  49.9980030  56.7253490  58.0118841  58.8670874  69.5160613
  57.3182313  58.4524827  69.0030567  58.7591832  58.9091411  68.9194032
  74.1484062  49.6577061  64.3815647  73.5682731  50.3161865  63.9993699
  73.8819995  48.8354405  63.9703065  72.5987629  49.0582119  66.5836967
  73.0987407  49.1698653  65.7751286  73.2423236  48.7543171  67.2237776
  59.9255584  58.7989128  67.3926628  59.9026272  58.8976815  66.4408511
  60.2356220  59.6454279  67.7143794  62.5842962  60.8565283  71.5073242
  63.5386215  60.8249225  71.4403174  62.3855485  60.3955907  72.3223468
  72.9308940  51.8177151  63.4371995  72.0434795  52.1026802  63.2192190
  73.3462929  51.6570915  62.5899272  76.2823476  51.8423672  67.1526335
  77.0583866  52.3320125  67.4250951  75.5571611  52.2681726  67.6098204
  78.7196035  52.5551291  68.2100275  79.3140526  52.3147027  67.4993583
  78.7922619  51.8358422  68.8373811  60.9393191  66.3984902  68.5243440
  60.8047659  65.6385303  67.9581438  60.5225253  67.1225802  68.0572229
  72.0752154  61.5821826  57.5320015  72.7788004  61.7871828  58.1477671
  71.3514802  62.1498588  57.7969099  72.9049964  57.3331687  63.6522285
  72.8485165  57.7900239  62.8129918  73.4578306  56.5722372  63.4745128
  76.7154770  53.1221419  64.4772405  76.4591704  52.7218055  65.3080613
  76.0907638  53.8365213  64.3522544  81.0267108  55.8617492  66.9843696
  80.4666666  55.9310682  67.7575258  80.4210611  55.6858477  66.2643193
  73.9838851  62.0204355  59.5818475  74.8184455  61.5885554  59.3995950
  73.8223194  61.8486369  60.5095370  73.6384743  58.5236468  60.9474815
  73.5833547  58.3580740  60.0063259  73.0130799  59.2312501  61.1037004
  58.4277258  53.7604533  74.7736237  59.0736122  53.2503487  75.2623462
  58.2194409  54.4973214  75.3479662  66.9480869  48.0244577  60.5260133
  66.9359539  48.9686417  60.6828404  67.8404291  47.8414723  60.2319594
  70.7632988  44.6187354  64.7806070  69.9965384  44.0645841  64.9262752
  71.1743693  44.6909223  65.6420221  77.1221112  71.2589682  58.9452117
  77.3746633  70.7371203  58.1835580  76.1845671  71.0955827  59.0478800
  78.8254428  67.6517834  59.8484530  78.9928831  68.5198071  60.2155001
  78.6351598  67.8145116  58.9245819  75.4452706  68.4741902  60.0953428
  74.6090019  68.8116589  60.4162703  75.3057476  68.3390882  59.1580565
  77.4205787  63.3178690  64.8032612  76.7670199  63.0027707  64.1789227
  77.3786261  62.6954431  65.5292435  78.5316992  73.5997985  56.7185904
  77.6244054  73.3687239  56.9177053  79.0288024  72.8035605  56.9059886
  72.7739621  70.9480128  62.9066049  71.8437209  70.8864584  63.1236011
  72.8697093  70.4256081  62.1102690  75.3191087  68.3189130  57.2951335
  74.4420553  68.1977931  56.9313581  75.7948840  67.5275208  57.0430223
  70.0469780  69.9130985  62.7364240  70.3423222  69.0041663  62.6831294
  69.1457816  69.8918725  62.4145243  71.7757622  67.5945083  62.8603565
  71.4470328  66.7142462  62.6778671  72.1296993  67.5392751  63.7479955
  76.8767592  66.3792674  61.4272336  77.5975955  66.7573927  60.9236053
  76.2532896  67.0981551  61.5307314  77.0231215  65.9140465  64.2569873
  77.1447127  64.9857111  64.4560760  76.7333258  65.9279151  63.3448188
  73.0209555  69.2588132  60.8532990  72.3278800  69.3332487  60.1973026
  72.7761307  68.4948476  61.3754507  79.8803478  71.3303540  57.1613560
  80.8262583  71.2009749  57.2301978  79.5017723  70.5918202  57.6382988
  78.0646396  69.2553517  57.0968445  77.1577851  68.9586630  57.1731158
  78.3422377  68.9583335  56.2302731  79.6808461  63.7990407  63.2512686
  78.8709190  63.4537492  63.6267932  80.3692878  63.4897950  63.8400298
  76.8345180  66.1140452  57.2380424  77.6964344  66.4395350  57.4976241
  77.0195524  65.3271948  56.7253490  77.7874623  63.3536495  60.5260133
  77.7753293  64.2978335  60.6828404  78.6798045  63.1706641  60.2319594
  81.6026743  59.9479272  64.7806070  80.8359138  59.3937758  64.9262752
  82.0137448  60.0201141  65.6420221  33.2075525  -1.4326414  51.2066634
  33.1299554  -0.4818589  51.2855115  32.6037168  -1.7780542  51.8641561
  31.8669491  -3.9224893  58.5833195  32.4176916  -4.0507830  57.8110189
  31.0280967  -3.6230004  58.2328087  38.0810054  -2.0010056  46.3627897
  37.4071753  -1.6978359  46.9712855  38.4675876  -1.1980975  46.0133354
  36.2801269  -1.8330383  48.5774976  36.4553025  -2.3042340  49.3920599
  35.5934057  -1.2064617  48.8056237  30.8462354   1.3158980  55.3514836
  31.0858953   1.9477504  56.0293855  30.0031551   0.9647020  55.6380196
  35.3590216  -2.8761898  57.7556340  35.2860388  -2.0706926  58.2675645
  34.9167609  -2.6769932  56.9304362  35.1479996  -3.6390128  51.2659162
  34.3647518  -3.0968448  51.3597386  35.8472741  -3.1216148  51.6653403
  37.8188900  -2.9775064  59.9114499  38.5316872  -2.3427599  59.8390400
  37.3278928  -2.8811198  59.0954501  28.4668531  -5.6944265  57.6651172
  29.0521968  -6.4400578  57.7979077  28.2693370  -5.3840309  58.5487836
  31.3207187  -2.6593018  52.6813615  30.6517562  -2.1746890  52.1977655
  31.1820056  -2.4123798  53.5956993  35.4612455  -0.6249274  59.2796273
  36.0130763  -0.4617653  60.0445358  35.8018649  -0.0344837  58.6076298
  35.6078267  -3.0590793  61.2944928  35.9165393  -3.3041646  62.1667627
  36.4053749  -2.8544154  60.8063798  35.6298879  -0.9052883  53.5250304
  35.1903869  -1.3976505  54.2183161  36.3806996  -1.4479916  53.2842379
  28.1091218  -4.7141342  53.5274932  28.9349238  -5.0137571  53.1473576
  27.7585270  -5.4833720  53.9764721  28.4211928  -2.5828728  55.2488747
  28.2866396  -3.3428327  54.6826745  28.0043991  -1.8587828  54.7817535
  31.5781054  -1.6859411  55.4607189  31.4613438  -0.7413979  55.3585880
  30.7573501  -1.9885849  55.8492988  32.6035568  -1.0331149  58.6763118
  33.5062815  -1.0007539  58.9929613  32.3772939  -1.9630698  58.6909453
  34.3589170  -2.2800163  55.3373196  33.4084801  -2.2798301  55.2237569
  34.6621657  -3.0267428  54.8209231  50.0941864   3.5560376  56.4018959
  50.7320274   3.4367123  55.6982299  49.9762707   4.5041220  56.4606911
  46.9031570   3.5087804  56.3380483  46.5650082   3.3928869  55.4501018
  47.7721338   3.1078969  56.3181490  42.7618386   5.3623280  52.3277374
  42.1983251   5.2713217  51.5593662  42.6470781   4.5423185  52.8079867
  47.3851353   4.6622656  62.2966689  47.3739994   4.2675454  61.4247193
  47.5471993   3.9288728  62.8900460  40.3082818   6.8574472  55.1661595
  41.1004110   6.5165297  54.7507894  40.5479468   6.9669447  56.0863748
  48.3417945   9.0294248  47.6391839  47.6905924   9.6148328  47.2525853
  49.1362307   9.5600443  47.6986877  42.2673572   6.1183385  48.0378974
  43.0404448   5.5712372  47.8991849  42.6198971   6.9827634  48.2493435
  44.1058614   7.4459767  61.2445873  43.8148480   8.3505398  61.1292539
  44.7415599   7.4876295  61.9589942  45.0314821   4.8236616  57.8347233
  45.6278393   4.5992638  57.1204195  45.0889793   4.0821361  58.4372680
  44.6039850   2.2776051  45.6697423  44.8565370   1.7557573  44.9080887
  43.6664409   2.1142197  45.7724107  49.8193210   6.7184680  48.1760824
  49.1839043   6.7919306  48.8881728  49.4890616   7.3078279  47.4979903
  44.3236138   4.1804157  47.8721798  44.2072396   3.5049061  48.5402883
  44.4338398   3.6936531  47.0553952  46.6667679   3.6414304  51.5768488
  46.3025887   3.1144925  52.2881409  47.5234795   3.2512773  51.4034973
  49.0648499   7.1321183  58.2395667  48.7649223   8.0346222  58.1311474
  48.7199559   6.8653366  59.0916819  42.5160981   3.5834980  54.2732371
  41.5911477   3.4511194  54.4810063  42.7645394   4.3629199  54.7702313
  46.2862387   1.1261862  47.5576503  46.1662012   1.5718912  48.3961983
  45.5914976   1.4747179  46.9990041  39.8769792   3.2268253  55.1076160
  40.0062173   3.4802732  56.0215572  39.1967243   3.8195961  54.7880815
  44.0469279  13.8965503  51.2066634  43.9693309  14.8473328  51.2855115
  43.4430923  13.5511376  51.8641561  46.5386509   1.0693369  63.8628001
  45.7619843   1.6287289  63.8530866  47.1777072   1.5550152  64.3842871
  44.7932881   3.8778822  63.4245968  45.5347566   4.4163866  63.1480792
  44.0869867   4.5045111  63.5817520  50.2688221   6.0207963  62.0218130
  50.6771577   5.5790373  61.2772762  49.5465482   5.4460590  62.2752323
  46.6219291   0.9580569  59.3951687  47.4680486   1.3819983  59.5386336
  46.5617929   0.3014194  60.0890250  50.5917036   6.5809153  55.7770419
  49.9625898   6.7454867  55.0746486  50.2042698   6.9950763  56.5481383
  54.4706268   7.5163591  53.1314782  53.7857306   7.8962492  52.5811816
  54.5550117   8.1258918  53.8646730  51.7257199   5.1623550  59.7310126
  51.9374094   5.8055310  59.0544507  51.6786947   4.3285867  59.2632056
  46.1444997   6.3183561  53.0420504  46.6083343   6.5971264  52.2525126
  45.8801796   5.4167006  52.8593594  43.0369079   5.8655043  55.9800267
  43.6070436   6.2942311  55.3417751  43.6277190   5.5837627  56.6784453
  45.0813884   2.4406714  49.8510069  45.7837927   2.8927757  50.3183995
  44.7494512   1.7990532  50.4789962  43.5294245   1.0318470  64.2261278
  42.8992906   1.7134751  64.4596675  43.4230333   0.9201552  63.2814416
  38.8239217   0.6990266  55.1527202  38.0338271   0.9547795  54.6767313
  39.3150465   1.5138604  55.2579243  52.8403027   8.0395505  57.9032483
  53.6620471   7.6375693  57.6215165  52.8365430   7.9363740  58.8548599
  40.7753963   1.0634846  52.1110679  39.9785126   1.1753540  52.6294175
  40.5479555   1.4021498  51.2451570  46.6059631   7.5879549  60.0593194
  46.6704063   8.0499956  60.8951366  45.8970554   6.9576914  60.1875504
  37.1076920   0.9520757  57.5842193  37.3584959   1.8367767  57.8499769
  37.6436469   0.7725358  56.8117285  46.3207648   9.2547656  49.9272174
  46.1853323  10.0999192  50.3557022  46.8617461   9.4566934  49.1638108
  39.7737046   6.7723094  50.5000099  40.2861566   7.5666345  50.6505664
  40.4259758   6.0749385  50.4333701  41.5831930   9.8888851  52.5822852
  41.7598559  10.8106815  52.3943836  42.3788764   9.5747270  53.0117232
  40.8684287   1.9353482  62.4585015  40.7537802   1.0338740  62.7592114
  40.0128805   2.1817179  62.1069832  47.9476125   9.8771223  64.0572516
  47.5039979   9.0907601  63.7393421  48.6093338  10.0650373  63.3916407
  42.7063246  11.4067024  58.5833195  43.2570671  11.2784088  57.8110189
  41.8674722  11.7061913  58.2328087  50.0457363  10.1574023  62.0853917
  50.0275838  10.9782904  61.5934187  50.9677283  10.0328098  62.3104059
  46.5030417   7.6718152  62.9277426  47.0358754   6.9106440  62.6976734
  45.9744498   7.3791804  63.6701580  37.7385962   5.1011749  51.2759670
  38.5761184   5.5108757  51.0593377  37.9164230   4.1611191  51.2459864
  49.6350394   2.7686829  46.9643503  49.1197018   3.5391434  47.2031890
  49.3627703   2.0951965  47.5876564  54.6084669   5.5219184  48.8996676
  53.8314111   5.1830343  48.4551838  55.2876150   5.5271807  48.2251641
  47.8683129   6.8004145  50.4396238  47.3404491   6.0656904  50.1269475
  47.3670632   7.5778821  50.1936206  52.8475975   4.9953165  55.5563284
  52.1899650   5.6852427  55.6443413  53.6516375   5.3849597  55.8997270
  51.6581434   3.3497538  53.6067226  52.1713316   3.9827530  54.1088936
  52.3082658   2.7498733  53.2410586  42.9271444  -0.5071728  46.8198735
  42.0908756  -0.1697042  47.1408009  42.7876214  -0.6422748  45.8825872
  46.0135730   4.6184355  43.4431211  45.1062791   4.3873608  43.6422360
  46.5106762   3.8221974  43.6305192  48.9203809  13.3281862  46.3627897
  48.2465507  13.6313559  46.9712855  49.3069631  14.1310942  46.0133354
  48.1362265   0.8246993  55.8525566  47.2184827   1.0461940  55.6947254
  48.5522409   0.8993304  54.9937274  48.9197313   2.2238409  50.9828247
  49.6669132   2.7359806  50.6735369  49.1888902   1.9022462  51.8432640
  47.1923963   4.7196950  47.9655201  46.2835182   4.4355983  48.0627671
  47.2219047   5.1396028  47.1058508  52.4243231   8.3303539  51.7346368
  51.9705558   7.4894449  51.7911559  51.7937197   8.9664938  52.0721149
  50.8676170  10.1680036  52.6696187  51.1599144  10.7285093  51.9508552
  51.3774790  10.4608597  53.4249346  37.7612133   2.4402464  51.9470403
  37.5636533   1.8471825  51.2221470  37.2058797   2.1354674  52.6646342
  45.7408857   2.3325570  54.0664996  45.7957467   1.3799407  53.9907473
  44.9300059   2.4885009  54.5506295  46.8900051   6.2605693  45.3043279
  46.4519481   5.5441552  44.8448917  47.6310492   6.4881808  44.7428371
  43.6801217   0.9502630  51.8255375  42.8669083   1.2496801  52.2320567
  44.1760211   0.5558319  52.5429857  45.8309795  10.9460387  53.7589640
  45.7885974  11.1721233  52.8298172  46.7472494  10.7123762  53.9075441
  49.2775429   1.4144455  60.6570269  49.6324816   1.6415928  61.5164735
  49.9247560   1.7462831  60.0347524  55.0073166   4.5362890  51.3619598
  54.8691064   4.7264486  50.4340787  54.6509384   5.2982273  51.8187649
  55.0342545   6.6039417  56.3730870  55.4679052   6.5114707  57.2213924
  55.7474126   6.5796918  55.7350886  43.9475596   7.8223416  53.5551602
  44.7416194   7.3273736  53.3534177  43.2367288   7.2941279  53.1919308
  48.7670440  10.2041512  57.9063970  48.8207462  10.7732448  58.6741686
  47.8985222  10.3743397  57.5418007  40.2558359   1.9666498  49.6311355
  39.3255947   1.9050953  49.8481317  40.3515831   1.4442451  48.8347996
  40.1743908  -1.5078689  52.2189597  40.4350726  -0.5933356  52.1098757
  40.9961081  -1.9754247  52.3686210  41.6468834  -0.0940932  59.3888421
  42.3191887  -0.3023570  58.7401070  40.8198620  -0.2918846  58.9493654
  55.8958095   6.6463118  58.9063755  56.0893985   7.5508929  59.1523030
  55.7958713   6.1870537  59.7402340  50.9573204   6.7969861  64.4804636
  50.8058710   6.5680413  63.5634719  50.9477883   7.7540462  64.4935981
  47.7258540   4.3701774  59.4650902  48.6550600   4.5212933  59.2919869
  47.3049570   4.4585794  58.6099548  46.5246872   8.3952438  57.2349440
  46.3857957   8.0271222  58.1075378  45.7361468   8.9100077  57.0633397
  47.1195024  13.4961535  48.5774976  47.2946779  13.0249578  49.3920599
  46.4327812  14.1227301  48.8056237  48.0752087   7.7734041  54.6238277
  47.7401919   7.7334811  55.5195927  47.5756033   7.1078757  54.1508688
  42.0496331   3.1801671  60.1490859  41.9116129   2.4481910  60.7502398
  42.9601254   3.0910571  59.8675046  51.0111279   5.1190075  44.8975337
  50.3940449   4.3936903  44.8008390  50.5427767   5.8799435  44.5542411
  44.6778631   2.8921630  59.6374538  45.3878250   2.2514822  59.5961157
  44.6347940   3.1434525  60.5600719  52.6665410   9.8288983  62.5581117
  52.6077956   9.1448204  61.8911700  53.0684929  10.5707973  62.1061743
  43.3907565  -0.1213152  61.4570178  42.8544922  -0.5722414  62.1091774
  42.8024274   0.0132757  60.7140642  52.6682817   7.7928567  60.7895097
  51.7809596   7.4554489  60.9121496  53.2381368   7.0611599  61.0263862
  34.3211965   4.1252659  54.1138148  35.0083004   3.8114389  53.5259164
  34.1660093   5.0294024  53.8405400  39.1246687  -0.9857144  58.5423172
  39.0404875  -1.5931475  57.8073582  38.3029393  -0.4948126  58.5432668
  46.1983971  12.4530020  57.7556340  46.1254142  13.2584991  58.2675645
  45.7561364  12.6521986  56.9304362  45.9873750  11.6901790  51.2659162
  45.2041272  12.2323470  51.3597386  46.6866496  12.2075769  51.6653403
  50.3800181   6.2568106  51.4831791  49.4456460   6.3769569  51.3136495
  50.5576850   5.3540573  51.2191800  43.7094568  10.1011297  60.7320070
  44.4104027  10.7347780  60.8849464  43.2389683  10.4426029  59.9715709
  51.8348964   8.4429247  49.0167977  52.1108808   8.3285842  49.9261851
  50.9653462   8.0446732  48.9780150  51.5095854   2.6555905  58.5572620
  50.8567304   2.9031812  57.9025073  51.8876234   1.8420043  58.2235097
  48.4703028  12.6915598  52.6600790  48.6525422  11.8737254  53.1228543
  49.2936014  12.9083290  52.2225680  48.8045193  11.6183783  49.9215839
  49.3332960  11.1076238  49.3086001  49.0673413  11.3026313  50.7861372
  47.5583427   3.3975716  65.0438657  46.8824064   3.2969845  65.7141032
  48.3811061   3.2414929  65.5074654  39.3062286   9.6347652  57.6651172
  39.8915723   8.8891340  57.7979077  39.1087124   9.9451609  58.5487836
  42.1600941  12.6698900  52.6813615  41.4911316  13.1545027  52.1977655
  42.0213811  12.9168120  53.5956993  33.8979941   2.2053252  56.3855616
  33.9364040   1.6716843  57.1792734  33.3920233   1.6788458  55.7666593
  46.3006210  14.7042643  59.2796273  46.8524518  14.8674265  60.0445358
  46.6412403  15.2947081  58.6076298  40.7522976  -0.8759074  63.5291192
  41.3795014  -1.2581997  64.1428716  39.8950894  -1.0944873  63.8946885
  51.1517084   9.5303901  65.1344928  51.6956988  10.1433859  64.6399882
  50.5703929  10.0883479  65.6511941  37.5288518   0.9317355  49.4609547
  37.8241959   0.0228033  49.4076601  36.6276554   0.9105094  49.1390549
  49.4374597  12.6524619  56.2659955  49.3125736  11.8514359  55.7570901
  50.0953688  13.1470812  55.7773925  41.0582765  -0.9926649  55.4437096
  40.3369351  -0.3790681  55.3044569  41.8476021  -0.4568884  55.3653742
  51.5009505  10.4533639  57.8939505  50.5539841  10.3338990  57.8217832
  51.8492279   9.5656137  57.9765767  39.2576360  -1.3868548  49.5848872
  38.9289066  -2.2671169  49.4023978  39.6115731  -1.4420879  50.4725261
  48.5055939  10.2486355  54.0943858  48.3580901   9.3203062  54.2751428
  49.3309432  10.2706446  53.6100933  42.3718183  -1.0995578  49.9524350
  42.7114256  -0.5709657  49.2302958  42.8190303  -0.7615172  50.7282916
  52.1090061  11.0714914  55.1808730  53.0336608  10.8657775  55.0433182
  51.9405364  10.8231315  56.0898072  43.2416674   1.0609906  55.6646719
  43.0961255   1.3750209  56.5571001  42.7641878   1.6794806  55.1117618
  51.8985377  11.5900581  50.5370822  52.0722254  11.0247004  49.7844674
  52.3914268  12.3901476  50.3550312  37.7162337   3.6015250  58.6034381
  37.1715805   4.3775058  58.7354655  38.5941686   3.9486055  58.4453502
  52.8860549  10.9067346  47.6367720  53.5811454  11.5274038  47.8555035
  53.2283699  10.0562697  47.9120098  38.5028358   2.7285147  61.4964538
  37.7610094   2.8767782  62.0829168  38.1821103   2.9893412  60.6331287
  54.7851972   8.3567051  49.1655051  55.3103296   8.6954324  48.4404371
  54.6974325   7.4214066  48.9818186  46.4472021  12.2701125  61.2944928
  46.7559148  12.0250272  62.1667627  47.2447503  12.4747763  60.8063798
  46.4692633  14.4239034  53.5250304  46.0297623  13.9315413  54.2183161
  47.2200750  13.8812002  53.2842379  38.9484972  10.6150575  53.5274932
  39.7742992  10.3154347  53.1473576  38.5979024   9.8458198  53.9764721
  43.9166505   9.9677043  55.5972606  43.2946515   9.3047749  55.2974834
  44.5871372   9.9938175  54.9146254  37.1493577   8.5336902  54.4863866
  36.3125485   8.1059076  54.3047867  37.1217223   8.7269345  55.4234657
  54.4745878   8.9899955  64.4706249  53.6841422   8.9724094  63.9310748
  54.2379233   9.5288248  65.2255285  54.5943753   5.8392421  61.7838977
  54.6441758   5.6742429  62.7254500  54.4857677   4.9719680  61.3936858
  43.4780012   8.5180967  49.0731066  43.6268133   9.2016431  48.4197739
  44.2846456   8.4986057  49.5880522  56.0961950   8.2589363  62.0280999
  55.8046759   8.6219343  62.8644460  55.4834082   7.5456371  61.8494331
  57.2957633   5.8242242  54.5483569  58.1304524   6.2632047  54.7121130
  57.4316761   5.3480896  53.7291815  54.3449139   3.3821977  60.4961057
  54.8203260   3.5749624  59.6879908  53.4214704   3.4381163  60.2504441
  41.2332645   4.5446144  50.0792135  40.9878687   3.6408474  50.2772345
  41.4028560   4.5463295  49.1371613  40.5028293   0.2774502  47.5778297
  39.8097538   0.3518857  46.9218333  40.2580045  -0.4865154  48.0999814
  46.9775418  11.0129097  46.5442814  46.4049385  11.6319284  46.0913286
  47.5508211  11.5628459  47.0782736  50.1972677  11.2966247  47.6751396
  51.1303351  11.2311809  47.8784272  50.1095890  12.1322514  47.2165929
  52.8260694  10.6132118  44.6355344  52.7474326  10.2791981  45.5291101
  53.6470361  11.1053886  44.6346816  47.3622216   2.3489910  43.8858866
  48.3081321   2.2196118  43.9547284  46.9836461   1.6104572  44.3628294
  47.2460909   6.4007656  65.3459523  48.1663918   6.5786255  65.5399570
  47.2110492   5.4563702  65.1939222  45.5465133   0.2739886  43.8213751
  44.6396589  -0.0227001  43.8976465  45.8241114  -0.0230295  42.9548038
  36.4643074   1.5946250  54.2712798  36.1445858   0.7411558  53.9787172
  35.9176502   1.8094828  55.0270765  40.2422981   4.3108691  57.9882304
  40.4608991   5.2425799  58.0070338  40.6548755   3.9516665  58.7737108
  45.1150847  -0.1158103  67.3785053  45.0147573   0.8336254  67.3097144
  44.8972389  -0.4439865  66.5061123  36.3331334   5.2149161  56.2405919
  35.6394805   4.8003114  55.7275874  37.0804325   5.2569698  55.6439338
  44.9782117   3.3139035  66.1950115  44.4949198   4.1139396  66.4014004
  45.0643056   3.3246980  65.2417559  38.2468076   5.1467415  54.1171934
  38.2238764   5.2455102  53.1653817  38.5568713   5.9932566  54.4389100
  40.9055454   7.2043570  58.2318549  41.8598708   7.1727512  58.1648480
  40.7067978   6.7434194  59.0468775  41.4954836   5.7744686  60.7989346
  42.3147725   6.2688765  60.8224184  41.7691644   4.8576654  60.7706914
  39.2605683  12.7463190  55.2488747  39.1260151  11.9863591  54.6826745
  38.8437745  13.4704089  54.7817535  50.3964646   7.9300113  44.2565322
  51.1000496   8.1350116  44.8722978  49.6727295   8.4976875  44.5214405
  51.2262456   3.6809974  50.3767592  51.1697658   4.1378526  49.5375224
  51.7790799   2.9200659  50.1990435  42.4174809  13.6432507  55.4607189
  42.3007193  14.5877939  55.3585880  41.5967255  13.3406068  55.8492988
  52.3051343   8.3682642  46.3063782  53.1396947   7.9363841  46.1241257
  52.1435686   8.1964656  47.2340676  51.9597236   4.8714756  47.6720121
  51.9046039   4.7059027  46.7308565  51.3343291   5.5790789  47.8282311
  36.7489751   0.1082820  61.4981543  37.3948614  -0.4018226  61.9868769
  36.5406902   0.8451502  62.0724969  49.2743143   7.1763668  66.9973684
  50.1434302   7.3504320  66.6360319  48.7949894   7.9958084  66.8749413
  43.4429323  14.2960769  58.6763118  44.3456570  14.3284379  58.9929613
  43.2166693  13.3661219  58.6909453  45.1982925  13.0491755  55.3373196
  44.2478556  13.0493617  55.2237569  45.5015411  12.3024490  54.8209231
  60.9335618  18.8852293  56.4018959  61.5714028  18.7659041  55.6982299
  60.8156461  19.8333137  56.4606911  57.7425325  18.8379722  56.3380483
  57.4043836  18.7220786  55.4501018  58.6115093  18.4370887  56.3181490
  58.2245108  19.9914573  62.2966689  58.2133748  19.5967372  61.4247193
  58.3865747  19.2580646  62.8900460  54.9452369  22.7751685  61.2445873
  54.6542235  23.6797316  61.1292539  55.5809353  22.8168213  61.9589942
  55.8708576  20.1528534  57.8347233  56.4672148  19.9284556  57.1204195
  55.9283547  19.4113279  58.4372680  55.4433604  17.6067969  45.6697423
  55.6959125  17.0849490  44.9080887  54.5058163  17.4434114  45.7724107
  60.4876887  16.6103747  53.4772167  61.2739976  16.1923170  53.1262584
  60.7515591  17.5149839  53.6453815  65.8885314  16.5478981  54.3805145
  66.6210486  15.9778197  54.6142975  65.1324670  16.1600581  54.8211651
  63.4110734  10.2600555  58.8399754  63.0794059  11.1295966  58.6160969
  62.8156348   9.9436839  59.5193784  57.1466921  13.9996122  46.5729836
  57.3141323  14.8676358  46.9400307  56.9564090  14.1623403  45.6491125
  59.9042254  22.4613101  58.2395667  59.6042977  23.3638139  58.1311474
  59.5593313  22.1945284  59.0916819  63.3039398  14.9795641  55.9193104
  62.3956275  14.9111049  55.6251865  63.2526994  15.4567586  56.7474929
  57.1256142  16.4553779  47.5576503  57.0055767  16.9010830  48.3961983
  56.4308730  16.8039097  46.9990041  57.3780264  16.3985286  63.8628001
  56.6013598  16.9579207  63.8530866  58.0170827  16.8842069  64.3842871
  65.1701044  13.1812079  57.6970978  64.5275424  13.4744612  57.0510772
  64.6655973  13.0665000  58.5024174  62.8241208  16.9275252  48.3856837
  63.7359064  17.1602639  48.2104535  62.3150855  17.5112297  47.8231916
  55.6326636  19.2070740  63.4245968  56.3741320  19.7455784  63.1480792
  54.9263621  19.8337029  63.5817520  61.1081975  21.3499880  62.0218130
  61.5165331  20.9082291  61.2772762  60.3859237  20.7752508  62.2752323
  57.4613046  16.2872487  59.3951687  58.3074241  16.7111901  59.5386336
  57.4011683  15.6306111  60.0890250  61.4310790  21.9101071  55.7770419
  60.8019653  22.0746785  55.0746486  61.0436452  22.3242680  56.5481383
  65.3100022  22.8455509  53.1314782  64.6251060  23.2254410  52.5811816
  65.3943871  23.4550835  53.8646730  60.6112491  13.9476855  61.0532860
  60.3673423  14.7018916  60.5167136  60.8872421  14.3262203  61.8880107
  62.5650954  20.4915468  59.7310126  62.7767849  21.1347228  59.0544507
  62.5180702  19.6577784  59.2632056  60.1677183  13.1033288  56.6346698
  59.3061662  13.4014542  56.9263436  60.1939617  13.3203687  55.7027731
  55.9207638  17.7698631  49.8510069  56.6231681  18.2219675  50.3183995
  55.5888267  17.1282450  50.4789962  54.3688000  16.3610388  64.2261278
  53.7386660  17.0426669  64.4596675  54.2624087  16.2493470  63.2814416
  49.6632972  16.0282184  55.1527202  48.8732026  16.2839712  54.6767313
  50.1544219  16.8430522  55.2579243  63.6796782  23.3687423  57.9032483
  64.5014225  22.9667610  57.6215165  63.6759184  23.2655657  58.8548599
  57.4453385  22.9171466  60.0593194  57.5097818  23.3791874  60.8951366
  56.7364309  22.2868831  60.1875504  47.9470675  16.2812674  57.5842193
  48.1978713  17.1659684  57.8499769  48.4830223  16.1017276  56.8117285
  71.7702775  19.7126172  54.2517455  71.0166483  19.1433570  54.0961459
  71.9050316  19.6788836  55.1988089  53.6468742  10.6631154  66.5886529
  53.2535688  10.1097352  67.2634173  54.4634883  10.9741732  66.9793047
  56.5636703  12.0789033  64.1806786  57.3046417  12.6796186  64.1011248
  56.7954626  11.3366671  63.6224828  58.7869879  25.2063140  64.0572516
  58.3433733  24.4199519  63.7393421  59.4487093  25.3942291  63.3916407
  60.8851117  25.4865940  62.0853917  60.8669592  26.3074821  61.5934187
  61.8071037  25.3620016  62.3104059  57.3424171  23.0010070  62.9277426
  57.8752508  22.2398358  62.6976734  56.8138252  22.7083722  63.6701580
  60.5093866   8.1070136  58.4571067  60.1658136   8.9971777  58.3810178
  60.8772829   7.9171793  57.5940652  60.4744149  18.0978747  46.9643503
  59.9590772  18.8683352  47.2031890  60.2021457  17.4243883  47.5876564
  58.0591260  12.9428448  52.0228741  57.2032856  12.5535298  51.8434380
  58.4718212  13.0220408  51.1628526  59.5890407  10.4774791  56.4220301
  59.0855202  10.4404926  55.6088106  59.8821013  11.3867534  56.4816957
  55.8333292  10.5613521  55.4286482  56.6986289  10.3656329  55.0692372
  55.9010801  10.3323872  56.3555839  65.4478423  20.8511102  48.8996676
  64.6707866  20.5122261  48.4551838  66.1269904  20.8563725  48.2251641
  60.2630452  15.9705839  48.7903284  59.9580588  16.2851988  49.6413427
  61.2160894  16.0487259  48.8330617  63.6869730  20.3245083  55.5563284
  63.0293404  21.0144344  55.6443413  64.4910129  20.7141515  55.8997270
  53.4395612  12.7915729  52.8002849  54.0139363  12.5690910  52.0676042
  54.0266594  12.8604423  53.5531451  62.4975189  18.6789455  53.6067226
  63.0107071  19.3119447  54.1088936  63.1476413  18.0790651  53.2410586
  53.7665199  14.8220190  46.8198735  52.9302511  15.1594876  47.1408009
  53.6269968  14.6869169  45.8825872  55.7418279   9.6656977  51.5277919
  55.0882692   9.3505995  50.9034533  55.6998753   9.0432718  52.2537742
  58.9756020  16.1538911  55.8525566  58.0578581  16.3753858  55.6947254
  59.3916163  16.2285222  54.9937274  59.7591067  17.5530327  50.9828247
  60.5062886  18.0651724  50.6735369  60.0282657  17.2314379  51.8432640
  63.2636985  23.6595457  51.7346368  62.8099312  22.8186367  51.7911559
  62.6330952  24.2956855  52.0721149  62.2069905  14.5887443  52.9647036
  61.4692661  14.0764829  53.2957278  62.4596678  14.1487825  52.1530313
  61.7069924  25.4971954  52.6696187  61.9992899  26.0577011  51.9508552
  62.2168545  25.7900515  53.4249346  62.3081532   7.3663695  53.5588805
  62.6140409   6.5061058  53.2714720  63.0334137   7.9581315  53.3587799
  48.6005888  17.7694382  51.9470403  48.4030288  17.1763742  51.2221470
  48.0452552  17.4646592  52.6646342  56.5802612  17.6617488  54.0664996
  56.6351221  16.7091324  53.9907473  55.7693814  17.8176927  54.5506295
  54.5194972  16.2794548  51.8255375  53.7062837  16.5788718  52.2320567
  55.0153966  15.8850237  52.5429857  60.1169183  16.7436372  60.6570269
  60.4718571  16.9707845  61.5164735  60.7641314  17.0754749  60.0347524
  65.8466920  19.8654808  51.3619598  65.7084819  20.0556404  50.4340787
  65.4903139  20.6274191  51.8187649  54.0109046  13.8512903  57.4416610
  54.6508426  13.7101662  56.7439573  53.1786577  13.5647417  57.0655212
  65.8736300  21.9331335  56.3730870  66.3072806  21.8406624  57.2213924
  66.5867880  21.9088836  55.7350886  59.6064195  25.5333429  57.9063970
  59.6601217  26.1024366  58.6741686  58.7378976  25.7035314  57.5418007
  51.0137663  13.8213228  52.2189597  51.2744480  14.7358562  52.1098757
  51.8354835  13.3537671  52.3686210  52.4862588  15.2350985  59.3888421
  53.1585641  15.0268348  58.7401070  51.6592375  15.0373071  58.9493654
  66.7351849  21.9755036  58.9063755  66.9287739  22.8800846  59.1523030
  66.6352467  21.5162455  59.7402340  58.3888160  11.8612926  61.4054082
  57.7416075  12.5602876  61.3118559  59.1589175  12.2949070  61.7730330
  61.7966958  22.1261779  64.4804636  61.6452464  21.8972330  63.5634719
  61.7871637  23.0832380  64.4935981  58.5652294  19.6993691  59.4650902
  59.4944354  19.8504851  59.2919869  58.1443324  19.7877712  58.6099548
  57.3640626  23.7244356  57.2349440  57.2251712  23.3563140  58.1075378
  56.5755222  24.2391995  57.0633397  58.9145841  23.1025958  54.6238277
  58.5795674  23.0626728  55.5195927  58.4149787  22.4370674  54.1508688
  55.5172386  18.2213548  59.6374538  56.2272005  17.5806740  59.5961157
  55.4741694  18.4726443  60.5600719  63.5059165  25.1580901  62.5581117
  63.4471711  24.4740121  61.8911700  63.9078683  25.8999891  62.1061743
  54.2301320  15.2078766  61.4570178  53.6938677  14.7569504  62.1091774
  53.6418028  15.3424674  60.7140642  53.6403579  14.6667417  44.0196641
  52.7633045  14.5456218  43.6558888  54.1161332  13.8753495  43.7675530
  63.5076572  23.1220485  60.7895097  62.6203351  22.7846407  60.9121496
  64.0775123  22.3903516  61.0263862  49.9640441  14.3434773  58.5423172
  49.8798630  13.7360443  57.8073582  49.1423148  14.8343792  58.5432668
  57.0377725  27.7821937  57.7556340  56.9647897  28.5876909  58.2675645
  56.5955118  27.9813903  56.9304362  60.1364155  12.8288337  53.9093367
  60.6332855  12.0758299  53.5894437  59.3651137  12.8652654  53.3436577
  67.9893912  18.5328702  55.5511659  67.9783789  19.4153418  55.1805592
  67.1211292  18.1800253  55.3566196  59.4976409  27.6808771  59.9114499
  60.2104381  28.3156236  59.8390400  59.0066437  27.7772637  59.0954501
  56.7199124  14.9705720  53.6365052  56.3496911  14.4176760  54.3245957
  57.2158216  14.3663853  53.0840052  64.6066487  17.4277343  52.0181825
  65.0726939  18.2605335  51.9442127  65.0573988  16.9622325  52.7227083
  54.5488322  25.4303215  60.7320070  55.2497782  26.0639698  60.8849464
  54.0783437  25.7717946  59.9715709  62.6742718  23.7721165  49.0167977
  62.9502562  23.6577759  49.9261851  61.8047217  23.3738650  48.9780150
  62.5783150   9.7957930  56.0572726  61.6646230  10.0262157  56.2254933
  63.0076251   9.8796374  56.9086758  62.3489608  17.9847822  58.5572620
  61.6961059  18.2323730  57.9025073  62.7269988  17.1711961  58.2235097
  58.3977181  18.7267633  65.0438657  57.7217818  18.6261763  65.7141032
  59.2204815  18.5706847  65.5074654  44.7373695  17.5345170  56.3855616
  44.7757795  17.0008761  57.1792734  44.2313988  17.0080376  55.7666593
  57.1399964  30.0334561  59.2796273  57.6918272  30.1966182  60.0445358
  57.4806158  30.6238999  58.6076298  52.1164457  12.3809711  59.8818158
  52.1805784  13.2424542  59.4695556  52.0531578  11.7683712  59.1490516
  51.5916730  14.4532843  63.5291192  52.2188769  14.0709921  64.1428716
  50.7344649  14.2347045  63.8946885  61.9910839  24.8595818  65.1344928
  62.5350743  25.4725777  64.6399882  61.4097683  25.4175397  65.6511941
  60.2768352  27.9816536  56.2659955  60.1519491  27.1806276  55.7570901
  60.9347443  28.4762730  55.7773925  51.8976520  14.3365269  55.4437096
  51.1763106  14.9501237  55.3044569  52.6869776  14.8723034  55.3653742
  62.3403260  25.7825556  57.8939505  61.3933595  25.6630908  57.8217832
  62.6886033  24.8948055  57.9765767  54.7002833  11.6719695  61.7177747
  55.2237235  11.9181992  62.4804057  54.4815167  12.5039730  61.2980885
  50.0970114  13.9423370  49.5848872  49.7682820  13.0620749  49.4023978
  50.4509485  13.8871039  50.4725261  59.3449693  25.5778273  54.0943858
  59.1974656  24.6494980  54.2751428  60.1703187  25.5998363  53.6100933
  53.2111937  14.2296340  49.9524350  53.5508010  14.7582261  49.2302958
  53.6584058  14.5676746  50.7282916  62.9483815  26.4006831  55.1808730
  63.8730363  26.1949693  55.0433182  62.7799118  26.1523233  56.0898072
  55.9055378  12.6133390  59.4027418  55.5652199  11.8141204  59.8048098
  55.1994385  12.9135101  58.8304251  56.5571850   9.6982703  57.8554741
  57.3797919   9.2243181  57.7333631  56.8009914  10.4773187  58.3553427
  55.1980085  12.7270961  48.1517643  55.9188447  13.1052214  47.6481359
  54.5745389  13.4459838  48.2552621  59.3411208  13.4316110  49.0875975
  59.5574822  14.3140748  48.7864803  58.8605275  13.0402324  48.3581617
  54.0810429  16.3901824  55.6646719  53.9355010  16.7042127  56.5571001
  53.6035633  17.0086724  55.1117618  55.9406812  13.3804372  55.7127609
  55.9268381  12.4845465  55.3759907  56.6579240  13.3875035  56.3465895
  57.7932942  13.8141712  57.7580736  57.5350720  14.7358782  57.7565067
  57.2617983  13.4172146  58.4481201  62.7379131  26.9192499  50.5370822
  62.9116009  26.3538921  49.7844674  63.2308022  27.7193394  50.3550312
  55.3443708  12.2618752  50.9815179  55.4659619  11.3335398  51.1806067
  55.0545750  12.2757438  50.0693495  58.2134898   9.9473662  54.1181899
  58.2356595  10.0112995  53.1633879  58.6302957   9.1078171  54.3122405
  68.5918522  19.6828922  52.1561122  69.0349668  18.9336247  51.7580245
  67.7145033  19.6739058  51.7734854  63.7254304  26.2359263  47.6367720
  64.4205208  26.8565956  47.8555035  64.0677454  25.3854614  47.9120098
  65.6245727  23.6858969  49.1655051  66.1497051  24.0246242  48.4404371
  65.5368079  22.7505984  48.9818186  57.2865776  27.5993042  61.2944928
  57.5952902  27.3542189  62.1667627  58.0841258  27.8039681  60.8063798
  54.8284787  13.7750749  65.1905112  54.8772943  14.6512872  64.8082881
  55.3707301  13.2328142  64.6176755  65.3139633  24.3191872  64.4706249
  64.5235177  24.3016011  63.9310748  65.0772988  24.8580166  65.2255285
  65.4337508  21.1684339  61.7838977  65.4835513  21.0034346  62.7254500
  65.3251431  20.3011598  61.3936858  62.7241270  17.1515267  63.0998284
  63.6251133  17.0121732  62.8082282  62.7989245  17.3169722  64.0396462
  57.0584076  14.5282122  61.9451470  56.1887385  14.8215688  61.6734059
  57.2943556  15.1122567  62.6658734  66.9355705  23.5881280  62.0280999
  66.6440513  23.9511261  62.8644460  66.3227836  22.8748289  61.8494331
  68.1351387  21.1534160  54.5483569  68.9698279  21.5923964  54.7121130
  68.2710516  20.6772813  53.7291815  65.1842893  18.7113895  60.4961057
  65.6597015  18.9041541  59.6879908  64.2608458  18.7673081  60.2504441
  59.7623110  10.7461739  59.4616891  60.2805053  11.4822765  59.1363379
  59.4078242  11.0525732  60.2963650  60.0135704   7.1662021  54.9817787
  60.2937457   6.4985210  55.6078214  60.7986311   7.3591117  54.4692451
  63.8844562  15.5879655  58.7289363  64.8361985  15.6877753  58.7501587
  63.7148012  14.7957924  59.2387447  61.9058942  12.6735238  58.9148763
  61.3108874  12.9540251  58.2195252  61.6208638  13.1629139  59.6865505
  66.3632640  18.8085775  57.8431662  66.3308960  17.8701775  58.0291346
  66.9733263  18.8869811  57.1097487  58.2015971  17.6781828  43.8858866
  59.1475075  17.5488036  43.9547284  57.8230216  16.9396490  44.3628294
  66.5127128  15.5996818  57.8889945  65.9966177  14.8155275  57.7019874
  67.3967077  15.2715535  58.0536465  64.1737855   9.3437834  53.8485758
  63.9762676   9.0352922  54.7329090  64.7837561  10.0699473  53.9783688
  72.1809190  19.8701782  56.9837699  72.9112578  19.6087070  57.5445402
  71.5716135  19.1330504  57.0239767  70.2624487  18.0109644  57.5812150
  69.5357650  17.8765609  56.9728642  69.8471774  18.3186473  58.3868868
  58.0854663  21.7299574  65.3459523  59.0057673  21.9078173  65.5399570
  58.0504246  20.7855619  65.1939222  56.3858888  15.6031804  43.8213751
  55.4790343  15.3064917  43.8976465  56.6634869  15.3061622  42.9548038
  47.3036828  16.9238168  54.2712798  46.9839613  16.0703476  53.9787172
  46.7570256  17.1386746  55.0270765  58.0020954  10.1468694  49.9757993
  57.1921682   9.8015779  50.3513239  58.6905371   9.8376238  50.5645604
  59.9311502   9.2246741  51.5982289  60.4842540   9.6442194  52.2572312
  60.1681588   8.2982489  51.6405245  55.9544601  15.2133814  67.3785053
  55.8541328  16.1628171  67.3097144  55.7366143  14.8852053  66.5061123
  55.1557672  12.4618739  43.9625731  56.0176836  12.7873638  44.2221548
  55.3408017  11.6750235  43.4498796  63.3090309  11.3347266  51.1060954
  62.7288978  11.9932070  50.7239006  63.0426242  10.5124610  50.6948371
  61.7593875  10.7352323  53.3082274  62.2593654  10.8468858  52.4996593
  62.4029483  10.4313376  53.9483082  55.8175871  18.6430953  66.1950115
  55.3342953  19.4431313  66.4014004  55.9036810  18.6538898  65.2417559
  62.0915187  13.4947356  50.1617302  61.2041042  13.7797007  49.9437497
  62.5069176  13.3341120  49.3144579  65.4429723  13.5193877  53.8771641
  66.2190113  14.0090330  54.1496258  64.7177857  13.9451931  54.3343511
  67.8802282  14.2321496  54.9345582  68.4746773  13.9917232  54.2238890
  67.9528865  13.5128627  55.5619118  62.0656211  19.0101892  50.3767592
  62.0091412  19.4670444  49.5375224  62.6184553  18.2492577  50.1990435
  65.8761017  14.7991624  51.2017712  65.6197951  14.3988260  52.0325919
  65.2513885  15.5135418  51.0767851  70.1873354  17.5387697  53.7089003
  69.6272912  17.6080887  54.4820565  69.5816858  17.3628682  52.9888499
  62.7990990  20.2006673  47.6720121  62.7439794  20.0350945  46.7308565
  62.1737045  20.9082706  47.8282311  47.5883505  15.4374738  61.4981543
  48.2342369  14.9273692  61.9868769  47.3800656  16.1743419  62.0724969
  60.1136897  22.5055585  66.9973684  60.9828057  22.6796237  66.6360319
  59.6343649  23.3250002  66.8749413  56.1087115   9.7014782  47.2505440
  56.0965785  10.6456622  47.4073711  57.0010537   9.5184928  46.9564901
  54.2823077  29.6252686  58.6763118  55.1850324  29.6576296  58.9929613
  54.0560447  28.6953137  58.6909453  59.9239235   6.2957559  51.5051376
  59.1571631   5.7416046  51.6508059  60.3349940   6.3679428  52.3665528
  51.9280996  12.5842355  65.5956558  52.7912458  12.2279160  65.8059882
  51.3546407  12.2456250  66.2831962  71.7729373  34.2144211  56.4018959
  72.4107783  34.0950958  55.6982299  71.6550216  35.1625055  56.4606911
  68.5819079  34.1671639  56.3380483  68.2437591  34.0512704  55.4501018
  69.4508847  33.7662804  56.3181490  64.4405895  36.0207116  52.3277374
  63.8770760  35.9297053  51.5593662  64.3258290  35.2007020  52.8079867
  69.0638862  35.3206491  62.2966689  69.0527503  34.9259289  61.4247193
  69.2259502  34.5872564  62.8900460  61.9870327  37.5158307  55.1661595
  62.7791619  37.1749132  54.7507894  62.2266977  37.6253282  56.0863748
  70.0205454  39.6878083  47.6391839  69.3693433  40.2732164  47.2525853
  70.8149816  40.2184278  47.6986877  63.9461081  36.7767221  48.0378974
  64.7191957  36.2296208  47.8991849  64.2986480  37.6411470  48.2493435
  65.7846123  38.1043603  61.2445873  65.4935989  39.0089234  61.1292539
  66.4203108  38.1460130  61.9589942  66.7102330  35.4820451  57.8347233
  67.3065902  35.2576474  57.1204195  66.7677302  34.7405197  58.4372680
  66.2827359  32.9359887  45.6697423  66.5352879  32.4141408  44.9080887
  65.3451918  32.7726032  45.7724107  71.3270641  31.9395665  53.4772167
  72.1133731  31.5215088  53.1262584  71.5909346  32.8441757  53.6453815
  71.4980719  37.3768515  48.1760824  70.8626552  37.4503142  48.8881728
  71.1678125  37.9662114  47.4979903  76.7279069  31.8770898  54.3805145
  77.4604240  31.3070115  54.6142975  75.9718424  31.4892499  54.8211651
  66.0023647  34.8387993  47.8721798  65.8859905  34.1632896  48.5402883
  66.1125907  34.3520367  47.0553952  68.3455188  34.2998140  51.5768488
  67.9813395  33.7728761  52.2881409  69.2022304  33.9096609  51.4034973
  74.2504489  25.5892472  58.8399754  73.9187814  26.4587883  58.6160969
  73.6550102  25.2728756  59.5193784  67.9860675  29.3288039  46.5729836
  68.1535078  30.1968276  46.9400307  67.7957844  29.4915321  45.6491125
  70.7436008  37.7905018  58.2395667  70.4436732  38.6930057  58.1311474
  70.3987068  37.5237202  59.0916819  64.1948490  34.2418815  54.2732371
  63.2698986  34.1095029  54.4810063  64.4432903  35.0213034  54.7702313
  74.1433152  30.3087558  55.9193104  73.2350030  30.2402967  55.6251865
  74.0920748  30.7859503  56.7474929  67.9649896  31.7845697  47.5576503
  67.8449521  32.2302748  48.3961983  67.2702485  32.1331015  46.9990041
  61.5557301  33.8852089  55.1076160  61.6849682  34.1386568  56.0215572
  60.8754752  34.4779797  54.7880815  65.7256788  44.5549339  51.2066634
  65.6480818  45.5057164  51.2855115  65.1218432  44.2095211  51.8641561
  68.2174018  31.7277204  63.8628001  67.4407352  32.2871124  63.8530866
  68.8564581  32.2133987  64.3842871  76.0094799  28.5103997  57.6970978
  75.3669179  28.8036530  57.0510772  75.5049727  28.3956917  58.5024174
  73.6634962  32.2567170  48.3856837  74.5752818  32.4894557  48.2104535
  73.1544609  32.8404214  47.8231916  66.4720390  34.5362657  63.4245968
  67.2135075  35.0747701  63.1480792  65.7657376  35.1628946  63.5817520
  71.9475730  36.6791798  62.0218130  72.3559086  36.2374208  61.2772762
  71.2252991  36.1044425  62.2752323  68.3006800  31.6164405  59.3951687
  69.1467995  32.0403818  59.5386336  68.2405438  30.9598029  60.0890250
  72.2704545  37.2392989  55.7770419  71.6413407  37.4038703  55.0746486
  71.8830207  37.6534598  56.5481383  76.1493776  38.1747426  53.1314782
  75.4644815  38.5546328  52.5811816  76.2337626  38.7842753  53.8646730
  71.4506245  29.2768773  61.0532860  71.2067177  30.0310834  60.5167136
  71.7266176  29.6554121  61.8880107  73.4044708  35.8207385  59.7310126
  73.6161603  36.4639145  59.0544507  73.3574456  34.9869702  59.2632056
  71.0070937  28.4325206  56.6346698  70.1455416  28.7306460  56.9263436
  71.0333372  28.6495605  55.7027731  67.8232506  36.9767397  53.0420504
  68.2870852  37.2555100  52.2525126  67.5589305  36.0750841  52.8593594
  64.7156588  36.5238878  55.9800267  65.2857945  36.9526147  55.3417751
  65.3064699  36.2421463  56.6784453  66.7601393  33.0990549  49.8510069
  67.4625436  33.5511593  50.3183995  66.4282021  32.4574368  50.4789962
  65.2081754  31.6902306  64.2261278  64.5780415  32.3718586  64.4596675
  65.1017842  31.5785387  63.2814416  60.5026726  31.3574102  55.1527202
  59.7125780  31.6131630  54.6767313  60.9937974  32.1722439  55.2579243
  74.5190536  38.6979341  57.9032483  75.3407980  38.2959528  57.6215165
  74.5152939  38.5947575  58.8548599  62.4541472  31.7218681  52.1110679
  61.6572635  31.8337375  52.6294175  62.2267064  32.0605333  51.2451570
  68.2847139  38.2463384  60.0593194  68.3491572  38.7083791  60.8951366
  67.5758063  37.6160749  60.1875504  58.7864429  31.6104592  57.5842193
  59.0372468  32.4951602  57.8499769  59.3223978  31.4309194  56.8117285
  82.6096529  35.0418089  54.2517455  81.8560237  34.4725487  54.0961459
  82.7444070  35.0080754  55.1988089  67.9995157  39.9131492  49.9272174
  67.8640832  40.7583027  50.3557022  68.5404970  40.1150769  49.1638108
  64.4862497  25.9923071  66.5886529  64.0929442  25.4389270  67.2634173
  65.3028637  26.3033650  66.9793047  61.4524555  37.4306930  50.5000099
  61.9649075  38.2250180  50.6505664  62.1047267  36.7333220  50.4333701
  63.2619439  40.5472686  52.5822852  63.4386068  41.4690651  52.3943836
  64.0576273  40.2331105  53.0117232  67.4030458  27.4080951  64.1806786
  68.1440171  28.0088104  64.1011248  67.6348381  26.6658588  63.6224828
  62.5471796  32.5937318  62.4585015  62.4325311  31.6922575  62.7592114
  61.6916314  32.8401015  62.1069832  69.6263634  40.5355058  64.0572516
  69.1827488  39.7491437  63.7393421  70.2880847  40.7234209  63.3916407
  64.3850755  42.0650860  58.5833195  64.9358180  41.9367923  57.8110189
  63.5462231  42.3645749  58.2328087  71.7244872  40.8157858  62.0853917
  71.7063347  41.6366739  61.5934187  72.6464792  40.6911933  62.3104059
  68.1817926  38.3301988  62.9277426  68.7146263  37.5690276  62.6976734
  67.6532007  38.0375639  63.6701580  71.3487621  23.4362053  58.4571067
  71.0051890  24.3263695  58.3810178  71.7166583  23.2463711  57.5940652
  59.4173471  35.7595584  51.2759670  60.2548693  36.1692592  51.0593377
  59.5951739  34.8195026  51.2459864  71.3137903  33.4270665  46.9643503
  70.7984527  34.1975269  47.2031890  71.0415212  32.7535801  47.5876564
  68.8985014  28.2720365  52.0228741  68.0426611  27.8827216  51.8434380
  69.3111966  28.3512326  51.1628526  70.4284161  25.8066709  56.4220301
  69.9248957  25.7696844  55.6088106  70.7214768  26.7159451  56.4816957
  66.6727047  25.8905438  55.4286482  67.5380044  25.6948247  55.0692372
  66.7404556  25.6615790  56.3555839  76.2872178  36.1803019  48.8996676
  75.5101620  35.8414179  48.4551838  76.9663659  36.1855642  48.2251641
  71.1024207  31.2997757  48.7903284  70.7974342  31.6143906  49.6413427
  72.0554649  31.3779177  48.8330617  69.5470638  37.4587980  50.4396238
  69.0192000  36.7240740  50.1269475  69.0458141  38.2362656  50.1936206
  74.5263484  35.6537000  55.5563284  73.8687159  36.3436262  55.6443413
  75.3303884  36.0433432  55.8997270  64.2789366  28.1207646  52.8002849
  64.8533118  27.8982828  52.0676042  64.8660349  28.1896341  53.5531451
  73.3368943  34.0081373  53.6067226  73.8500825  34.6411365  54.1088936
  73.9870167  33.4082569  53.2410586  64.6058953  30.1512107  46.8198735
  63.7696265  30.4886794  47.1408009  64.4663723  30.0161087  45.8825872
  66.5812034  24.9948895  51.5277919  65.9276446  24.6797912  50.9034533
  66.5392508  24.3724636  52.2537742  67.6923239  35.2768190  43.4431211
  66.7850300  35.0457444  43.6422360  68.1894271  34.4805810  43.6305192
  70.5991318  43.9865697  46.3627897  69.9253016  44.2897394  46.9712855
  70.9857139  44.7894778  46.0133354  69.8149774  31.4830829  55.8525566
  68.8972336  31.7045776  55.6947254  70.2309918  31.5577139  54.9937274
  70.5984822  32.8822244  50.9828247  71.3456641  33.3943642  50.6735369
  70.8676411  32.5606297  51.8432640  68.8711472  35.3780785  47.9655201
  67.9622691  35.0939818  48.0627671  68.9006556  35.7979864  47.1058508
  74.1030739  38.9887375  51.7346368  73.6493067  38.1478285  51.7911559
  73.4724706  39.6248773  52.0721149  73.0463659  29.9179361  52.9647036
  72.3086416  29.4056747  53.2957278  73.2990433  29.4779742  52.1530313
  72.5463679  40.8263871  52.6696187  72.8386653  41.3868928  51.9508552
  73.0562299  41.1192432  53.4249346  73.1475286  22.6955613  53.5588805
  73.4534163  21.8352976  53.2714720  73.8727891  23.2873233  53.3587799
  59.4399642  33.0986299  51.9470403  59.2424042  32.5055660  51.2221470
  58.8846306  32.7938509  52.6646342  67.4196366  32.9909406  54.0664996
  67.4744976  32.0383242  53.9907473  66.6087568  33.1468845  54.5506295
  68.5687560  36.9189529  45.3043279  68.1306990  36.2025388  44.8448917
  69.3098001  37.1465644  44.7428371  65.3588726  31.6086465  51.8255375
  64.5456592  31.9080636  52.2320567  65.8547720  31.2142154  52.5429857
  67.5097304  41.6044222  53.7589640  67.4673483  41.8305069  52.8298172
  68.4260003  41.3707597  53.9075441  70.9562938  32.0728290  60.6570269
  71.3112325  32.2999763  61.5164735  71.6035069  32.4046667  60.0347524
  76.6860675  35.1946726  51.3619598  76.5478573  35.3848322  50.4340787
  76.3296893  35.9566109  51.8187649  64.8502801  29.1804821  57.4416610
  65.4902180  29.0393580  56.7439573  64.0180331  28.8939334  57.0655212
  76.7130054  37.2623253  56.3730870  77.1466561  37.1698542  57.2213924
  77.4261635  37.2380753  55.7350886  65.6263105  38.4807251  53.5551602
  66.4203703  37.9857572  53.3534177  64.9154797  37.9525115  53.1919308
  70.4457949  40.8625347  57.9063970  70.4994971  41.4316283  58.6741686
  69.5772731  41.0327232  57.5418007  61.9345868  32.6250333  49.6311355
  61.0043456  32.5634789  49.8481317  62.0303340  32.1026286  48.8347996
  61.8531417  29.1505146  52.2189597  62.1138235  30.0650479  52.1098757
  62.6748590  28.6829589  52.3686210  77.5745604  37.3046953  58.9063755
  77.7681494  38.2092764  59.1523030  77.4746222  36.8454373  59.7402340
  69.2281915  27.1904844  61.4054082  68.5809830  27.8894794  61.3118559
  69.9982930  27.6240988  61.7730330  72.6360712  37.4553696  64.4804636
  72.4846219  37.2264248  63.5634719  72.6265392  38.4124298  64.4935981
  69.4046049  35.0285609  59.4650902  70.3338109  35.1796769  59.2919869
  68.9837079  35.1169630  58.6099548  68.2034381  39.0536273  57.2349440
  68.0645466  38.6855058  58.1075378  67.4148977  39.5683913  57.0633397
  68.7982533  44.1545370  48.5774976  68.9734288  43.6833413  49.3920599
  68.1115321  44.7811136  48.8056237  69.7539596  38.4317876  54.6238277
  69.4189428  38.3918646  55.5195927  69.2543542  37.7662592  54.1508688
  63.7283840  33.8385506  60.1490859  63.5903638  33.1065745  60.7502398
  64.6388763  33.7494406  59.8675046  72.6898787  35.7773910  44.8975337
  72.0727958  35.0520739  44.8008390  72.2215276  36.5383271  44.5542411
  66.3566140  33.5505465  59.6374538  67.0665759  32.9098658  59.5961157
  66.3135449  33.8018360  60.5600719  74.3452919  40.4872819  62.5581117
  74.2865465  39.8032039  61.8911700  74.7472438  41.2291809  62.1061743
  65.0695074  30.5370683  61.4570178  64.5332431  30.0861422  62.1091774
  64.4811783  30.6716592  60.7140642  63.3643618  47.3034733  55.3514836
  63.6040216  47.9353257  56.0293855  62.5212814  46.9522773  55.6380196
  74.3470326  38.4512403  60.7895097  73.4597105  38.1138325  60.9121496
  74.9168877  37.7195434  61.0263862  55.9999474  34.7836494  54.1138148
  56.6870513  34.4698225  53.5259164  55.8447602  35.6877859  53.8405400
  60.8034196  29.6726691  58.5423172  60.7192384  29.0652361  57.8073582
  59.9816902  30.1635709  58.5432668  67.8771480  43.1113855  57.7556340
  67.8041651  43.9168827  58.2675645  67.4348873  43.3105821  56.9304362
  67.6661259  42.3485625  51.2659162  66.8828781  42.8907305  51.3597386
  68.3654005  42.8659605  51.6653403  70.9757910  28.1580255  53.9093367
  71.4726609  27.4050217  53.5894437  70.2044891  28.1944571  53.3436577
  78.8287667  33.8620620  55.5511659  78.8177543  34.7445336  55.1805592
  77.9605046  33.5092171  55.3566196  70.3370163  43.0100689  59.9114499
  71.0498136  43.6448154  59.8390400  69.8460192  43.1064555  59.0954501
  72.0587690  36.9151942  51.4831791  71.1243969  37.0353404  51.3136495
  72.2364359  36.0124409  51.2191800  67.5592878  30.2997638  53.6365052
  67.1890666  29.7468678  54.3245957  68.0551971  29.6955771  53.0840052
  75.4460242  32.7569261  52.0181825  75.9120694  33.5897253  51.9442127
  75.8967742  32.2914243  52.7227083  65.3882077  40.7595133  60.7320070
  66.0891536  41.3931616  60.8849464  64.9177192  41.1009864  59.9715709
  73.5136473  39.1013082  49.0167977  73.7896317  38.9869677  49.9261851
  72.6440971  38.7030567  48.9780150  73.4176904  25.1249848  56.0572726
  72.5039984  25.3554075  56.2254933  73.8470006  25.2088292  56.9086758
  73.1883363  33.3139740  58.5572620  72.5354813  33.5615647  57.9025073
  73.5663743  32.5003878  58.2235097  70.1490537  43.3499433  52.6600790
  70.3312931  42.5321089  53.1228543  70.9723523  43.5667125  52.2225680
  70.4832702  42.2767618  49.9215839  71.0120469  41.7660073  49.3086001
  70.7460922  41.9610149  50.7861372  69.2370936  34.0559551  65.0438657
  68.5611573  33.9553680  65.7141032  70.0598570  33.8998765  65.5074654
  60.9849795  40.2931488  57.6651172  61.5703232  39.5475176  57.7979077
  60.7874633  40.6035444  58.5487836  63.8388450  43.3282735  52.6813615
  63.1698825  43.8128863  52.1977655  63.7001320  43.5751955  53.5956993
  55.5767450  32.8637088  56.3855616  55.6151549  32.3300679  57.1792734
  55.0707742  32.3372293  55.7666593  67.9793719  45.3626479  59.2796273
  68.5312027  45.5258100  60.0445358  68.3199912  45.9530916  58.6076298
  62.9558212  27.7101628  59.8818158  63.0199538  28.5716459  59.4695556
  62.8925332  27.0975630  59.1490516  62.4310484  29.7824761  63.5291192
  63.0582523  29.4001838  64.1428716  61.5738403  29.5638963  63.8946885
  72.8304593  40.1887736  65.1344928  73.3744497  40.8017694  64.6399882
  72.2491438  40.7467314  65.6511941  71.1162106  43.3108454  56.2659955
  70.9913245  42.5098194  55.7570901  71.7741197  43.8054647  55.7773925
  62.7370274  29.6657187  55.4437096  62.0156860  30.2793154  55.3044569
  63.5263530  30.2014951  55.3653742  73.1797014  41.1117474  57.8939505
  72.2327350  40.9922825  57.8217832  73.5279788  40.2239972  57.9765767
  65.5396588  27.0011613  61.7177747  66.0630990  27.2473910  62.4804057
  65.3208921  27.8331648  61.2980885  60.9363869  29.2715288  49.5848872
  60.6076575  28.3912667  49.4023978  61.2903240  29.2162956  50.4725261
  70.1843448  40.9070190  54.0943858  70.0368410  39.9786898  54.2751428
  71.0096941  40.9290281  53.6100933  64.0505692  29.5588257  49.9524350
  64.3901764  30.0874179  49.2302958  64.4977812  29.8968664  50.7282916
  73.7877570  41.7298749  55.1808730  74.7124117  41.5241610  55.0433182
  73.6192873  41.4815150  56.0898072  66.7449133  27.9425308  59.4027418
  66.4045953  27.1433121  59.8048098  66.0388139  28.2427019  58.8304251
  67.3965605  25.0274621  57.8554741  68.2191674  24.5535099  57.7333631
  67.6403668  25.8065104  58.3553427  66.0373839  28.0562879  48.1517643
  66.7582202  28.4344132  47.6481359  65.4139143  28.7751756  48.2552621
  70.1804962  28.7608028  49.0875975  70.3968576  29.6432666  48.7864803
  69.6999029  28.3694241  48.3581617  64.9204183  31.7193741  55.6646719
  64.7748764  32.0334044  56.5571001  64.4429387  32.3378642  55.1117618
  66.7800566  28.7096289  55.7127609  66.7662135  27.8137383  55.3759907
  67.4972994  28.7166953  56.3465895  68.6326697  29.1433629  57.7580736
  68.3744475  30.0650700  57.7565067  68.1011737  28.7464064  58.4481201
  73.5772886  42.2484417  50.5370822  73.7509763  41.6830839  49.7844674
  74.0701777  43.0485311  50.3550312  59.3949846  34.2599086  58.6034381
  58.8503314  35.0358894  58.7354655  60.2729195  34.6069890  58.4453502
  66.1837462  27.5910669  50.9815179  66.3053373  26.6627316  51.1806067
  65.8939505  27.6049355  50.0693495  69.0528653  25.2765580  54.1181899
  69.0750349  25.3404913  53.1633879  69.4696712  24.4370089  54.3122405
  79.4312277  35.0120839  52.1561122  79.8743423  34.2628165  51.7580245
  78.5538787  35.0030976  51.7734854  74.5648058  41.5651181  47.6367720
  75.2598963  42.1857874  47.8555035  74.9071208  40.7146532  47.9120098
  60.1815867  33.3868982  61.4964538  59.4397603  33.5351617  62.0829168
  59.8608612  33.6477248  60.6331287  76.4639481  39.0150886  49.1655051
  76.9890805  39.3538159  48.4404371  76.3761834  38.0797902  48.9818186
  68.1259530  42.9284960  61.2944928  68.4346656  42.6834107  62.1667627
  68.9235012  43.1331599  60.8063798  68.1480142  45.0822870  53.5250304
  67.7085132  44.5899248  54.2183161  68.8988259  44.5395837  53.2842379
  60.6272481  41.2734411  53.5274932  61.4530501  40.9738182  53.1473576
  60.2766533  40.5042033  53.9764721  65.5954014  40.6260879  55.5972606
  64.9734024  39.9631584  55.2974834  66.2658881  40.6522011  54.9146254
  58.8281086  39.1920737  54.4863866  57.9912994  38.7642911  54.3047867
  58.8004732  39.3853180  55.4234657  65.6678542  29.1042667  65.1905112
  65.7166697  29.9804790  64.8082881  66.2101056  28.5620060  64.6176755
  76.1533387  39.6483790  64.4706249  75.3628931  39.6307929  63.9310748
  75.9166742  40.1872084  65.2255285  76.2731262  36.4976256  61.7838977
  76.3229267  36.3326264  62.7254500  76.1645186  35.6303516  61.3936858
  65.1567521  39.1764802  49.0731066  65.3055642  39.8600267  48.4197739
  65.9633965  39.1569892  49.5880522  73.5635025  32.4807185  63.0998284
  74.4644888  32.3413649  62.8082282  73.6382999  32.6461639  64.0396462
  67.8977830  29.8574039  61.9451470  67.0281140  30.1507605  61.6734059
  68.1337311  30.4414484  62.6658734  77.7749459  38.9173198  62.0280999
  77.4834268  39.2803179  62.8644460  77.1621591  38.2040206  61.8494331
  78.9745142  36.4826078  54.5483569  79.8092033  36.9215882  54.7121130
  79.1104270  36.0064731  53.7291815  76.0236648  34.0405813  60.4961057
  76.4990769  34.2333459  59.6879908  75.1002213  34.0964998  60.2504441
  62.9120154  35.2029980  50.0792135  62.6666196  34.2992310  50.2772345
  63.0816069  35.2047130  49.1371613  70.6016864  26.0753656  59.4616891
  71.1198808  26.8114683  59.1363379  70.2471997  26.3817649  60.2963650
  62.1815802  30.9358337  47.5778297  61.4885047  31.0102692  46.9218333
  61.9367554  30.1718681  48.0999814  70.8529458  22.4953939  54.9817787
  71.1331212  21.8277128  55.6078214  71.6380065  22.6883034  54.4692451
  68.6562927  41.6712933  46.5442814  68.0836894  42.2903120  46.0913286
  69.2295720  42.2212294  47.0782736  74.7238317  30.9171573  58.7289363
  75.6755739  31.0169670  58.7501587  74.5541767  30.1249841  59.2387447
  72.7452696  28.0027156  58.9148763  72.1502628  28.2832169  58.2195252
  72.4602393  28.4921057  59.6865505  71.8760186  41.9550083  47.6751396
  72.8090860  41.8895644  47.8784272  71.7883399  42.7906350  47.2165929
  74.5048203  41.2715953  44.6355344  74.4261835  40.9375817  45.5291101
  75.3257870  41.7637721  44.6346816  77.2026394  34.1377692  57.8431662
  77.1702714  33.1993693  58.0291346  77.8127018  34.2161729  57.1097487
  69.0409725  33.0073745  43.8858866  69.9868830  32.8779953  43.9547284
  68.6623970  32.2688407  44.3628294  77.3520883  30.9288736  57.8889945
  76.8359931  30.1447192  57.7019874  78.2360831  30.6007452  58.0536465
  75.0131610  24.6729751  53.8485758  74.8156431  24.3644840  54.7329090
  75.6231315  25.3991390  53.9783688  81.1018241  33.3401562  57.5812150
  80.3751405  33.2057527  56.9728642  80.6865528  33.6478390  58.3868868
  68.9248418  37.0591492  65.3459523  69.8451427  37.2370091  65.5399570
  68.8898001  36.1147537  65.1939222  67.2252642  30.9323722  43.8213751
  66.3184098  30.6356834  43.8976465  67.5028623  30.6353540  42.9548038
  58.1430583  32.2530085  54.2712798  57.8233367  31.3995393  53.9787172
  57.5964011  32.4678663  55.0270765  61.9210490  34.9692526  57.9882304
  62.1396500  35.9009634  58.0070338  62.3336264  34.6100501  58.7737108
  68.8414708  25.4760611  49.9757993  68.0315436  25.1307696  50.3513239
  69.5299125  25.1668155  50.5645604  70.7705256  24.5538658  51.5982289
  71.3236295  24.9734112  52.2572312  71.0075343  23.6274406  51.6405245
  66.7938356  30.5425732  67.3785053  66.6935082  31.4920089  67.3097144
  66.5759898  30.2143971  66.5061123  58.0118843  35.8732997  56.2405919
  57.3182314  35.4586949  55.7275874  58.7591834  35.9153533  55.6439338
  74.1484063  26.6639183  51.1060954  73.5682732  27.3223987  50.7239006
  73.8819996  25.8416528  50.6948371  72.5987630  26.0644241  53.3082274
  73.0987408  26.1760776  52.4996593  73.2423238  25.7605294  53.9483082
  66.6569626  33.9722871  66.1950115  66.1736707  34.7723231  66.4014004
  66.7430565  33.9830816  65.2417559  59.9255585  35.8051250  54.1171934
  59.9026273  35.9038938  53.1653817  60.2356222  36.6516401  54.4389100
  62.5842963  37.8627405  58.2318549  63.5386217  37.8311348  58.1648480
  62.3855487  37.4018029  59.0468775  63.1742345  36.4328522  60.7989346
  63.9935234  36.9272600  60.8224184  63.4479153  35.5160490  60.7706914
  72.9308941  28.8239274  50.1617302  72.0434796  29.1088924  49.9437497
  73.3462931  28.6633037  49.3144579  76.2823478  28.8485795  53.8771641
  77.0583868  29.3382247  54.1496258  75.5571612  29.2743849  54.3343511
  78.7196036  29.5613414  54.9345582  79.3140527  29.3209150  54.2238890
  78.7922620  28.8420545  55.5619118  60.9393192  43.4047025  55.2488747
  60.8047660  42.6447426  54.6826745  60.5225254  44.1287925  54.7817535
  72.0752155  38.5883949  44.2565322  72.7788005  38.7933951  44.8722978
  71.3514804  39.1560710  44.5214405  72.9049965  34.3393810  50.3767592
  72.8485167  34.7962361  49.5375224  73.4578308  33.5784494  50.1990435
  76.7154771  30.1283542  51.2017712  76.4591705  29.7280177  52.0325919
  76.0907639  30.8427336  51.0767851  81.0267109  32.8679615  53.7089003
  80.4666667  32.9372804  54.4820565  80.4210612  32.6920600  52.9888499
  64.0962318  44.3016342  55.4607189  63.9794702  45.2461774  55.3585880
  63.2754764  43.9989904  55.8492988  73.9838852  39.0266478  46.3063782
  74.8184456  38.5947676  46.1241257  73.8223195  38.8548491  47.2340676
  73.6384745  35.5298591  47.6720121  73.5833548  35.3642862  46.7308565
  73.0130800  36.2374624  47.8282311  58.4277259  30.7666655  61.4981543
  59.0736123  30.2565609  61.9868769  58.2194411  31.5035337  62.0724969
  70.9530652  37.8347503  66.9973684  71.8221811  38.0088155  66.6360319
  70.4737403  38.6541920  66.8749413  66.9480870  25.0306700  47.2505440
  66.9359540  25.9748540  47.4073711  67.8404292  24.8476845  46.9564901
  65.1216832  44.9544604  58.6763118  66.0244079  44.9868214  58.9929613
  64.8954202  44.0245055  58.6909453  66.8770434  43.7075590  55.3373196
  65.9266065  43.7077452  55.2237569  67.1802920  42.9608325  54.8209231
  70.7632989  21.6249477  51.5051376  69.9965385  21.0707963  51.6508059
  71.1743694  21.6971345  52.3665528  62.7674750  27.9134272  65.5956558
  63.6306212  27.5571077  65.8059882  62.1940161  27.5748167  66.2831962
  79.4212834  49.4963557  56.3380483  79.0831345  49.3804622  55.4501018
  80.2902602  49.0954722  56.3181490  75.2799649  51.3499033  52.3277374
  74.7164515  51.2588970  51.5593662  75.1652044  50.5298938  52.8079867
  79.9032617  50.6498409  62.2966689  79.8921257  50.2551207  61.4247193
  80.0653256  49.9164481  62.8900460  72.8264081  52.8450225  55.1661595
  73.6185373  52.5041050  54.7507894  73.0660731  52.9545200  56.0863748
  80.8599208  55.0170001  47.6391839  80.2087188  55.6024081  47.2525853
  81.6543571  55.5476196  47.6986877  74.7854835  52.1059138  48.0378974
  75.5585711  51.5588125  47.8991849  75.1380234  52.9703388  48.2493435
  76.6239878  53.4335520  61.2445873  76.3329744  54.3381151  61.1292539
  77.2596862  53.4752048  61.9589942  77.5496085  50.8112369  57.8347233
  78.1459657  50.5868391  57.1204195  77.6071056  50.0697114  58.4372680
  77.1221113  48.2651804  45.6697423  77.3746634  47.7433326  44.9080887
  76.1845672  48.1017950  45.7724107  82.1664396  47.2687583  53.4772167
  82.9527485  46.8507006  53.1262584  82.4303100  48.1733675  53.6453815
  82.3374473  52.7060433  48.1760824  81.7020306  52.7795059  48.8881728
  82.0071880  53.2954032  47.4979903  76.8417402  50.1679910  47.8721798
  76.7253660  49.4924814  48.5402883  76.9519662  49.6812284  47.0553952
  79.1848943  49.6290057  51.5768488  78.8207150  49.1020678  52.2881409
  80.0416059  49.2388526  51.4034973  78.8254430  44.6579957  46.5729836
  78.9928832  45.5260193  46.9400307  78.6351599  44.8207239  45.6491125
  81.5829763  53.1196936  58.2395667  81.2830486  54.0221975  58.1311474
  81.2380822  52.8529119  59.0916819  75.0342244  49.5710733  54.2732371
  74.1092741  49.4386947  54.4810063  75.2826658  50.3504952  54.7702313
  78.8043651  47.1137615  47.5576503  78.6843276  47.5594665  48.3961983
  78.1096239  47.4622932  46.9990041  72.3951055  49.2144006  55.1076160
  72.5243437  49.4678485  56.0215572  71.7148507  49.8071714  54.7880815
  76.5650543  59.8841256  51.2066634  76.4874572  60.8349081  51.2855115
  75.9612186  59.5387129  51.8641561  79.0567772  47.0569122  63.8628001
  78.2801107  47.6163042  63.8530866  79.6958336  47.5425905  64.3842871
  77.3114145  49.8654575  63.4245968  78.0528829  50.4039619  63.1480792
  76.6051130  50.4920864  63.5817520  82.7869484  52.0083716  62.0218130
  83.1952840  51.5666126  61.2772762  82.0646746  51.4336343  62.2752323
  79.1400554  46.9456322  59.3951687  79.9861750  47.3695736  59.5386336
  79.0799192  46.2889947  60.0890250  83.1098299  52.5684906  55.7770419
  82.4807162  52.7330620  55.0746486  82.7223961  52.9826516  56.5481383
  82.2900000  44.6060691  61.0532860  82.0460932  45.3602751  60.5167136
  82.5659930  44.9846038  61.8880107  81.8464692  43.7617124  56.6346698
  80.9849171  44.0598377  56.9263436  81.8727126  43.9787523  55.7027731
  78.6626261  52.3059314  53.0420504  79.1264606  52.5847017  52.2525126
  78.3983059  51.4042759  52.8593594  75.5550342  51.8530796  55.9800267
  76.1251699  52.2818064  55.3417751  76.1458454  51.5713381  56.6784453
  77.5995147  48.4282467  49.8510069  78.3019190  48.8803510  50.3183995
  77.2675776  47.7866286  50.4789962  76.0475509  47.0194223  64.2261278
  75.4174169  47.7010504  64.4596675  75.9411596  46.9077305  63.2814416
  71.3420481  46.6866019  55.1527202  70.5519535  46.9423548  54.6767313
  71.8331728  47.5014357  55.2579243  73.2935226  47.0510599  52.1110679
  72.4966390  47.1629293  52.6294175  73.0660819  47.3897251  51.2451570
  79.1240894  53.5755302  60.0593194  79.1885326  54.0375709  60.8951366
  78.4151818  52.9452667  60.1875504  69.6258184  46.9396510  57.5842193
  69.8766222  47.8243520  57.8499769  70.1617732  46.7601111  56.8117285
  78.8388912  55.2423409  49.9272174  78.7034586  56.0874945  50.3557022
  79.3798724  55.4442687  49.1638108  75.3256251  41.3214989  66.5886529
  74.9323197  40.7681188  67.2634173  76.1422392  41.6325568  66.9793047
  72.2918309  52.7598847  50.5000099  72.8042830  53.5542098  50.6505664
  72.9441022  52.0625138  50.4333701  74.1013194  55.8764604  52.5822852
  74.2779822  56.7982568  52.3943836  74.8970027  55.5623023  53.0117232
  78.2424212  42.7372868  64.1806786  78.9833926  43.3380021  64.1011248
  78.4742135  41.9950506  63.6224828  73.3865550  47.9229235  62.4585015
  73.2719065  47.0214493  62.7592114  72.5310068  48.1692932  62.1069832
  80.4657388  55.8646976  64.0572516  80.0221242  55.0783354  63.7393421
  81.1274602  56.0526126  63.3916407  75.2244509  57.3942777  58.5833195
  75.7751934  57.2659841  57.8110189  74.3855985  57.6937666  58.2328087
  79.0211680  53.6593905  62.9277426  79.5540017  52.8982193  62.6976734
  78.4925761  53.3667557  63.6701580  82.1881375  38.7653971  58.4571067
  81.8445645  39.6555613  58.3810178  82.5560338  38.5755629  57.5940652
  70.2567226  51.0887502  51.2759670  71.0942448  51.4984510  51.0593377
  70.4345494  50.1486944  51.2459864  82.1531658  48.7562582  46.9643503
  81.6378281  49.5267187  47.2031890  81.8808966  48.0827718  47.5876564
  79.7378769  43.6012283  52.0228741  78.8820365  43.2119133  51.8434380
  80.1505721  43.6804244  51.1628526  81.2677916  41.1358626  56.4220301
  80.7642711  41.0988761  55.6088106  81.5608522  42.0451369  56.4816957
  77.5120801  41.2197356  55.4286482  78.3773798  41.0240165  55.0692372
  77.5798310  40.9907708  56.3555839  81.9417961  46.6289674  48.7903284
  81.6368097  46.9435824  49.6413427  82.8948403  46.7071094  48.8330617
  80.3864393  52.7879898  50.4396238  79.8585755  52.0532657  50.1269475
  79.8851896  53.5654574  50.1936206  75.1183121  43.4499564  52.8002849
  75.6926872  43.2274745  52.0676042  75.7054103  43.5188258  53.5531451
  75.4452708  45.4804025  46.8198735  74.6090020  45.8178712  47.1408009
  75.3057477  45.3453005  45.8825872  77.4205788  40.3240813  51.5277919
  76.7670201  40.0089830  50.9034533  77.3786262  39.7016553  52.2537742
  78.5316993  50.6060108  43.4431211  77.6244055  50.3749361  43.6422360
  79.0288025  49.8097727  43.6305192  81.4385072  59.3157615  46.3627897
  80.7646771  59.6189312  46.9712855  81.8250894  60.1186695  46.0133354
  80.6543529  46.8122746  55.8525566  79.7366090  47.0337693  55.6947254
  81.0703672  46.8869057  54.9937274  81.4378576  48.2114162  50.9828247
  82.1850395  48.7235559  50.6735369  81.7070166  47.8898215  51.8432640
  79.7105227  50.7072703  47.9655201  78.8016446  50.4231736  48.0627671
  79.7400310  51.1271781  47.1058508  70.2793397  48.4278217  51.9470403
  70.0817797  47.8347578  51.2221470  69.7240061  48.1230427  52.6646342
  78.2590121  48.3201323  54.0664996  78.3138730  47.3675160  53.9907473
  77.4481323  48.4760763  54.5506295  79.4081314  52.2481446  45.3043279
  78.9700744  51.5317305  44.8448917  80.1491755  52.4757561  44.7428371
  76.1982481  46.9378383  51.8255375  75.3850346  47.2372554  52.2320567
  76.6941475  46.5434072  52.5429857  78.3491058  56.9336140  53.7589640
  78.3067237  57.1596986  52.8298172  79.2653757  56.6999515  53.9075441
  81.7956692  47.4020208  60.6570269  82.1506080  47.6291681  61.5164735
  82.4428823  47.7338584  60.0347524  75.6896555  44.5096739  57.4416610
  76.3295935  44.3685498  56.7439573  74.8574086  44.2231252  57.0655212
  76.4656859  53.8099169  53.5551602  77.2597458  53.3149489  53.3534177
  75.7548552  53.2817032  53.1919308  81.2851704  56.1917265  57.9063970
  81.3388726  56.7608201  58.6741686  80.4166485  56.3619150  57.5418007
  72.7739623  47.9542251  49.6311355  71.8437211  47.8926706  49.8481317
  72.8697095  47.4318204  48.8347996  72.6925172  44.4797064  52.2189597
  72.9531989  45.3942397  52.1098757  73.5142344  44.0121506  52.3686210
  74.1650097  45.8934821  59.3888421  74.8373150  45.6852183  58.7401070
  73.3379884  45.6956907  58.9493654  80.0675669  42.5196762  61.4054082
  79.4203584  43.2186711  61.3118559  80.8376684  42.9532906  61.7730330
  80.2439803  50.3577527  59.4650902  81.1731863  50.5088686  59.2919869
  79.8230833  50.4461547  58.6099548  79.0428135  54.3828191  57.2349440
  78.9039221  54.0146975  58.1075378  78.2542731  54.8975831  57.0633397
  79.6376287  59.4837288  48.5774976  79.8128043  59.0125331  49.3920599
  78.9509075  60.1103054  48.8056237  80.5933350  53.7609794  54.6238277
  80.2583183  53.7210564  55.5195927  80.0937296  53.0954510  54.1508688
  74.5677594  49.1677424  60.1490859  74.4297392  48.4357663  60.7502398
  75.4782518  49.0786324  59.8675046  77.1959895  48.8797383  59.6374538
  77.9059513  48.2390575  59.5961157  77.1529203  49.1310278  60.5600719
  75.9088829  45.8662601  61.4570178  75.3726186  45.4153339  62.1091774
  75.3205537  46.0008510  60.7140642  74.2037372  62.6326650  55.3514836
  74.4433971  63.2645174  56.0293855  73.3606569  62.2814690  55.6380196
  75.3191088  45.3251252  44.0196641  74.4420554  45.2040053  43.6558888
  75.7948841  44.5337331  43.7675530  66.8393228  50.1128412  54.1138148
  67.5264268  49.7990142  53.5259164  66.6841357  51.0169777  53.8405400
  71.6427950  45.0018609  58.5423172  71.5586139  44.3944278  57.8073582
  70.8210657  45.4927627  58.5432668  78.7165234  58.4405773  57.7556340
  78.6435406  59.2460744  58.2675645  78.2742627  58.6397739  56.9304362
  78.5055014  57.6777543  51.2659162  77.7222536  58.2199223  51.3597386
  79.2047759  58.1951522  51.6653403  81.8151664  43.4872172  53.9093367
  82.3120364  42.7342135  53.5894437  81.0438646  43.5236489  53.3436577
  81.1763918  58.3392607  59.9114499  81.8891890  58.9740072  59.8390400
  80.6853946  58.4356473  59.0954501  82.8981445  52.2443859  51.4831791
  81.9637723  52.3645322  51.3136495  83.0758113  51.3416326  51.2191800
  78.3986633  45.6289555  53.6365052  78.0284420  45.0760596  54.3245957
  78.8945725  45.0247689  53.0840052  76.2275831  56.0887050  60.7320070
  76.9285291  56.7223533  60.8849464  75.7570946  56.4301782  59.9715709
  80.9884291  58.6791351  52.6600790  81.1706686  57.8613007  53.1228543
  81.8117277  58.8959043  52.2225680  81.3226457  57.6059536  49.9215839
  81.8514223  57.0951991  49.3086001  81.5854676  57.2902066  50.7861372
  80.0764690  49.3851469  65.0438657  79.4005327  49.2845598  65.7141032
  80.8992324  49.2290682  65.5074654  71.8243549  55.6223405  57.6651172
  72.4096986  54.8767093  57.7979077  71.6268388  55.9327362  58.5487836
  74.6782205  58.6574653  52.6813615  74.0092580  59.1420780  52.1977655
  74.5395074  58.9043873  53.5956993  66.4161204  48.1929006  56.3855616
  66.4545304  47.6592596  57.1792734  65.9101497  47.6664211  55.7666593
  78.8187473  60.6918396  59.2796273  79.3705781  60.8550018  60.0445358
  79.1593667  61.2822834  58.6076298  73.7951966  43.0393546  59.8818158
  73.8593293  43.9008377  59.4695556  73.7319087  42.4267548  59.1490516
  73.2704239  45.1116679  63.5291192  73.8976278  44.7293756  64.1428716
  72.4132158  44.8930880  63.8946885  70.0469782  46.9193108  49.4609547
  70.3423223  46.0103786  49.4076601  69.1457817  46.8980847  49.1390549
  81.9555860  58.6400372  56.2659955  81.8307000  57.8390112  55.7570901
  82.6134952  59.1346565  55.7773925  73.5764029  44.9949104  55.4437096
  72.8550614  45.6085072  55.3044569  74.3657284  45.5306869  55.3653742
  76.3790342  42.3303531  61.7177747  76.9024744  42.5765827  62.4804057
  76.1602676  43.1623566  61.2980885  71.7757623  44.6007205  49.5848872
  71.4470329  43.7204584  49.4023978  72.1296994  44.5454874  50.4725261
  81.0237202  56.2362108  54.0943858  80.8762165  55.3078815  54.2751428
  81.8490696  56.2582199  53.6100933  74.8899446  44.8880175  49.9524350
  75.2295519  45.4166096  49.2302958  75.3371567  45.2260581  50.7282916
  77.5842887  43.2717226  59.4027418  77.2439708  42.4725039  59.8048098
  76.8781894  43.5718937  58.8304251  78.2359359  40.3566538  57.8554741
  79.0585428  39.8827016  57.7333631  78.4797423  41.1357022  58.3553427
  76.8767594  43.3854797  48.1517643  77.5975956  43.7636049  47.6481359
  76.2532898  44.1043674  48.2552621  81.0198716  44.0899946  49.0875975
  81.2362331  44.9724584  48.7864803  80.5392784  43.6986159  48.3581617
  75.7597938  47.0485659  55.6646719  75.6142519  47.3625962  56.5571001
  75.2823142  47.6670559  55.1117618  77.6194321  44.0388207  55.7127609
  77.6055890  43.1429300  55.3759907  78.3366749  44.0458871  56.3465895
  79.4720451  44.4725547  57.7580736  79.2138229  45.3942618  57.7565067
  78.9405492  44.0755982  58.4481201  70.2343600  49.5891003  58.6034381
  69.6897068  50.3650811  58.7354655  71.1122950  49.9361808  58.4453502
  77.0231217  42.9202587  50.9815179  77.1447128  41.9919233  51.1806067
  76.7333259  42.9341273  50.0693495  79.8922407  40.6057498  54.1181899
  79.9144104  40.6696831  53.1633879  80.3090466  39.7662006  54.3122405
  71.0209622  48.7160900  61.4964538  70.2791358  48.8643535  62.0829168
  70.7002366  48.9769165  60.6331287  78.9653285  58.2576878  61.2944928
  79.2740411  58.0126025  62.1667627  79.7628767  58.4623516  60.8063798
  78.9873897  60.4114787  53.5250304  78.5478887  59.9191166  54.2183161
  79.7382014  59.8687755  53.2842379  71.4666236  56.6026328  53.5274932
  72.2924255  56.3030100  53.1473576  71.1160288  55.8333951  53.9764721
  76.4347769  55.9552797  55.5972606  75.8127778  55.2923502  55.2974834
  77.1052636  55.9813928  54.9146254  69.6674841  54.5212655  54.4863866
  68.8306749  54.0934829  54.3047867  69.6398486  54.7145098  55.4234657
  76.5072296  44.4334585  65.1905112  76.5560452  45.3096707  64.8082881
  77.0494810  43.8911978  64.6176755  75.9961276  54.5056720  49.0731066
  76.1449396  55.1892184  48.4197739  76.8027719  54.4861810  49.5880522
  78.7371585  45.1865957  61.9451470  77.8674894  45.4799523  61.6734059
  78.9731065  45.7706402  62.6658734  73.7513909  50.5321897  50.0792135
  73.5059951  49.6284227  50.2772345  73.9209823  50.5339048  49.1371613
  81.4410619  41.4045574  59.4616891  81.9592562  42.1406601  59.1363379
  81.0865751  41.7109567  60.2963650  73.0209556  46.2650255  47.5778297
  72.3278801  46.3394610  46.9218333  72.7761308  45.5010599  48.0999814
  81.6923213  37.8245856  54.9817787  81.9724966  37.1569045  55.6078214
  82.4773820  38.0174952  54.4692451  79.4956681  57.0004850  46.5442814
  78.9230648  57.6195037  46.0913286  80.0689475  57.5504212  47.0782736
  79.8803480  48.3365663  43.8858866  80.8262584  48.2071871  43.9547284
  79.5017725  47.5980325  44.3628294  79.7642172  52.3883409  65.3459523
  80.6845182  52.5662008  65.5399570  79.7291755  51.4439455  65.1939222
  78.0646397  46.2615639  43.8213751  77.1577852  45.9648752  43.8976465
  78.3422378  45.9645458  42.9548038  68.9824337  47.5822003  54.2712798
  68.6627122  46.7287311  53.9787172  68.4357765  47.7970581  55.0270765
  72.7604245  50.2984444  57.9882304  72.9790255  51.2301552  58.0070338
  73.1730019  49.9392418  58.7737108  79.6808463  40.8052529  49.9757993
  78.8709191  40.4599614  50.3513239  80.3692879  40.4960073  50.5645604
  81.6099011  39.8830576  51.5982289  82.1630049  40.3026029  52.2572312
  81.8469097  38.9566324  51.6405245  77.6332110  45.8717650  67.3785053
  77.5328837  46.8212007  67.3097144  77.4153652  45.5435889  66.5061123
  76.8345181  43.1202575  43.9625731  77.6964345  43.4457473  44.2221548
  77.0195526  42.3334071  43.4498796  68.8512597  51.2024914  56.2405919
  68.1576069  50.7878867  55.7275874  69.5985588  51.2445451  55.6439338
  77.4963380  49.3014788  66.1950115  77.0130462  50.1015149  66.4014004
  77.5824319  49.3122733  65.2417559  70.7649340  51.1343168  54.1171934
  70.7420028  51.2330855  53.1653817  71.0749976  51.9808319  54.4389100
  73.4236718  53.1919323  58.2318549  74.3779971  53.1603265  58.1648480
  73.2249241  52.7309947  59.0468775  74.0136100  51.7620439  60.7989346
  74.8328989  52.2564518  60.8224184  74.2872907  50.8452407  60.7706914
  71.7786946  58.7338943  55.2488747  71.6441414  57.9739344  54.6826745
  71.3619009  59.4579843  54.7817535  74.9356072  59.6308260  55.4607189
  74.8188456  60.5753692  55.3585880  74.1148519  59.3281821  55.8492988
  69.2671014  46.0958573  61.4981543  69.9129878  45.5857527  61.9868769
  69.0588165  46.8327255  62.0724969  81.7924406  53.1639421  66.9973684
  82.6615566  53.3380073  66.6360319  81.3131158  53.9833837  66.8749413
  77.7874624  40.3598618  47.2505440  77.7753294  41.3040458  47.4073711
  78.6798046  40.1768763  46.9564901  75.9610586  60.2836522  58.6763118
  76.8637833  60.3160132  58.9929613  75.7347956  59.3536973  58.6909453
  77.7164188  59.0367508  55.3373196  76.7659819  59.0369370  55.2237569
  78.0196675  58.2900243  54.8209231  81.6026744  36.9541394  51.5051376
  80.8359140  36.3999881  51.6508059  82.0137449  37.0263263  52.3665528
  73.6068505  43.2426190  65.5956558  74.4699967  42.8862995  65.8059882
  73.0333916  42.9040085  66.2831962  82.1814235  62.0157937  55.1527202
  81.3913289  62.2715466  54.6767313  82.6725483  62.8306275  55.2579243
  80.4651938  62.2688427  57.5842193  80.7159977  63.1535437  57.8499769
  81.0011487  62.0893029  56.8117285  81.0960980  66.4179419  51.2759670
  81.9336202  66.8276428  51.0593377  81.2739248  65.4778861  51.2459864
  81.1187151  63.7570135  51.9470403  80.9211551  63.1639495  51.2221470
  80.5633815  63.4522345  52.6646342  77.6786983  65.4420330  54.1138148
  78.3658022  65.1282060  53.5259164  77.5235111  66.3461694  53.8405400
  82.4821705  60.3310526  58.5423172  82.3979893  59.7236196  57.8073582
  81.6604411  60.8219545  58.5432668  77.2554959  63.5220923  56.3855616
  77.2939058  62.9884514  57.1792734  76.7495251  62.9956129  55.7666593
  80.8863536  62.2485025  49.4609547  81.1816977  61.3395704  49.4076601
  79.9851572  62.2272765  49.1390549  82.6151378  59.9299123  49.5848872
  82.2864084  59.0496502  49.4023978  82.9690748  59.8746792  50.4725261
  81.0737355  64.9182921  58.6034381  80.5290823  65.6942729  58.7354655
  81.9516704  65.2653725  58.4453502  81.8603376  64.0452817  61.4964538
  81.1185112  64.1935453  62.0829168  81.5396121  64.3061083  60.6331287
  80.5068595  69.8504572  54.4863866  79.6700503  69.4226747  54.3047867
  80.4792241  70.0437016  55.4234657  79.8218092  62.9113921  54.2712798
  79.5020876  62.0579229  53.9787172  79.2751520  63.1262499  55.0270765
  79.6906352  66.5316832  56.2405919  78.9969823  66.1170785  55.7275874
  80.4379343  66.5737369  55.6439338  81.6043094  66.4635086  54.1171934
  81.5813782  66.5622773  53.1653817  81.9143731  67.3100237  54.4389100
  80.1064768  61.4250491  61.4981543  80.7523632  60.9149445  61.9868769
  79.8981920  62.1619172  62.0724969  54.8863035   6.2319544  37.9311941
  54.8087065   7.1827369  38.0100421  54.2824679   5.8865416  38.5886867
  53.5457001   3.7421065  45.3078501  54.0964427   3.6138128  44.5355495
  52.7068477   4.0415954  44.9573394  59.7597564   5.6635902  33.0873204
  59.0859263   5.9667599  33.6958161  60.1463386   6.4664983  32.7378661
  57.9588779   5.8315575  35.3020283  58.1340535   5.3603618  36.1165905
  57.2721567   6.4581341  35.5301543  52.5249865   8.9804938  42.0760143
  52.7646463   9.6123462  42.7539161  51.6819061   8.6292978  42.3625502
  57.0377727   4.7884060  44.4801647  56.9647898   5.5939031  44.9920951
  56.5955120   4.9876026  43.6549668  56.8267506   4.0255830  37.9904468
  56.0435028   4.5677510  38.0842693  57.5260251   4.5429810  38.3898710
  59.4976410   4.6870894  46.6359806  60.2104382   5.3218359  46.5635707
  59.0066439   4.7834760  45.8199807  50.1456042   1.9701693  44.3896479
  50.7309479   1.2245380  44.5224383  49.9480880   2.2805649  45.2733143
  52.9994697   5.0052940  39.4058921  52.3305072   5.4899068  38.9222962
  52.8607567   5.2522160  40.3202300  57.1399966   7.0396683  46.0041580
  57.6918274   7.2028305  46.7690665  57.4806159   7.6301121  45.3321605
  57.2865777   4.6055165  48.0190234  57.5952903   4.3604312  48.8912934
  58.0841259   4.8101804  47.5309104  57.3086389   6.7593075  40.2495611
  56.8691379   6.2669453  40.9428467  58.0594506   6.2166042  40.0087686
  49.7878728   2.9504616  40.2520239  50.6136748   2.6508387  39.8718882
  49.4372780   2.1812238  40.7010027  47.9887333   0.8690942  41.2109172
  47.1519241   0.4413116  41.0293174  47.9610978   1.0623385  42.1479964
  50.0999439   5.0817230  41.9734053  49.9653907   4.3217631  41.4072051
  49.6831501   5.8058130  41.5062842  53.2568565   5.9786547  42.1852496
  53.1400949   6.9231979  42.0831186  52.4361011   5.6760108  42.5738295
  54.2823079   6.6314809  45.4008424  55.1850325   6.6638419  45.7174919
  54.0560449   5.7015260  45.4154760  56.0376681   5.3845795  42.0618503
  55.0872312   5.3847657  41.9482875  56.3409167   4.6378530  41.5454538
  71.7729374  11.2206334  43.1264265  72.4107784  11.1013081  42.4227605
  71.6550217  12.1687178  43.1852217  68.5819080  11.1733762  43.0625790
  68.2437592  11.0574827  42.1746325  69.4508849  10.7724927  43.0426796
  64.4405896  13.0269238  39.0522681  63.8770761  12.9359175  38.2838969
  64.3258291  12.2069143  39.5325174  69.0638863  12.3268614  49.0211996
  69.0527504  11.9321412  48.1492499  69.2259503  11.5934686  49.6145767
  61.9870328  14.5220430  41.8906901  62.7791620  14.1811254  41.4753201
  62.2266978  14.6315405  42.8109055  70.0205455  16.6940206  34.3637146
  69.3693435  17.2794286  33.9771160  70.8149818  17.2246401  34.4232183
  63.9461082  13.7829343  34.7624280  64.7191958  13.2358330  34.6237156
  64.2986481  14.6473592  34.9738742  65.7846125  15.1105725  47.9691180
  65.4935991  16.0151356  47.8537846  66.4203109  15.1522253  48.6835249
  66.7102331  12.4882574  44.5592539  67.3065904  12.2638596  43.8449502
  66.7677303  11.7467319  45.1617987  66.2827360   9.9422009  32.3942730
  66.5352881   9.4203530  31.6326193  65.3451919   9.7788155  32.4969414
  71.4980720  14.3830638  34.9006130  70.8626553  14.4565264  35.6127035
  71.1678126  14.9724237  34.2225209  66.0023649  11.8450115  34.5967105
  65.8859907  11.1695019  35.2648189  66.1125908  11.3582489  33.7799258
  68.3455190  11.3060262  38.3013794  67.9813397  10.7790883  39.0126716
  69.2022305  10.9158731  38.1280280  70.7436010  14.7967141  44.9640973
  70.4436733  15.6992180  44.8556780  70.3987069  14.5299324  45.8162126
  64.1948491  11.2480938  40.9977678  63.2698988  11.1157152  41.2055369
  64.4432904  12.0275157  41.4947620  67.9649897   8.7907819  34.2821810
  67.8449523   9.2364870  35.1207290  67.2702486   9.1393137  33.7235348
  61.5557302  10.8914211  41.8321467  61.6849683  11.1448690  42.7460878
  60.8754754  11.4841919  41.5126122  65.7256789  21.5611461  37.9311941
  65.6480819  22.5119286  38.0100421  65.1218433  21.2157334  38.5886867
  68.2174019   8.7339327  50.5873308  67.4407353   9.2933247  50.5776172
  68.8564582   9.2196110  51.1088178  66.4720392  11.5424780  50.1491275
  67.2135076  12.0809824  49.8726098  65.7657377  12.1691069  50.3062827
  71.9475731  13.6853920  48.7463436  72.3559087  13.2436331  48.0018069
  71.2252993  13.1106548  48.9997629  68.3006801   8.6226527  46.1196993
  69.1467996   9.0465941  46.2631642  68.2405439   7.9660152  46.8135556
  72.2704546  14.2455111  42.5015725  71.6413408  14.4100825  41.7991793
  71.8830208  14.6596721  43.2726689  76.1493778  15.1809549  39.8560089
  75.4644816  15.5608450  39.3057122  76.2337627  15.7904876  40.5892037
  73.4044709  12.8269508  46.4555432  73.6161605  13.4701268  45.7789814
  73.3574458  11.9931825  45.9877363  67.8232508  13.9829519  39.7665810
  68.2870853  14.2617222  38.9770433  67.5589306  13.0812964  39.5838901
  64.7156589  13.5301001  42.7045574  65.2857946  13.9588269  42.0663058
  65.3064701  13.2483585  43.4029759  65.2081755   8.6964428  50.9506585
  64.5780416   9.3780709  51.1841982  65.1017843   8.5847510  50.0059723
  60.5026728   8.3636224  41.8772509  59.7125782   8.6193753  41.4012620
  60.9937975   9.1784562  41.9824550  74.5190537  15.7041463  44.6277790
  75.3407981  15.3021651  44.3460471  74.5152940  15.6009698  45.5793906
  62.4541473   8.7280803  38.8355986  61.6572636   8.8399498  39.3539481
  62.2267065   9.0667456  37.9696876  68.2847141  15.2525507  46.7838500
  68.3491573  15.7145914  47.6196672  67.5758065  14.6222872  46.9120810
  58.7864431   8.6166715  44.3087500  59.0372469   9.5013725  44.5745076
  59.3223979   8.4371316  43.5362592  67.9995158  16.9193614  36.6517481
  67.8640833  17.7645150  37.0802328  68.5404971  17.1212892  35.8883414
  61.4524556  14.4369052  37.2245406  61.9649076  15.2312302  37.3750970
  62.1047269  13.7395343  37.1579007  63.2619440  17.5534809  39.3068159
  63.4386069  18.4752773  39.1189143  64.0576274  17.2393228  39.7362539
  62.5471797   9.5999440  49.1830322  62.4325312   8.6984698  49.4837421
  61.6916315   9.8463137  48.8315139  69.6263635  17.5417181  50.7817823
  69.1827489  16.7553559  50.4638727  70.2880848  17.7296331  50.1161714
  64.3850756  19.0712982  45.3078501  64.9358181  18.9430046  44.5355495
  63.5462232  19.3707871  44.9573394  71.7244873  17.8219981  48.8099224
  71.7063348  18.6428862  48.3179493  72.6464793  17.6974056  49.0349365
  68.1817927  15.3364110  49.6522732  68.7146264  14.5752398  49.4222040
  67.6532008  15.0437762  50.3946887  59.4173473  12.7657707  38.0004976
  60.2548695  13.1754715  37.7838684  59.5951740  11.8257149  37.9705170
  71.3137905  10.4332787  33.6888809  70.7984528  11.2037392  33.9277197
  71.0415213   9.7597923  34.3121871  76.2872179  13.1865142  35.6241983
  75.5101622  12.8476301  35.1797145  76.9663660  13.1917765  34.9496948
  69.5470640  14.4650103  37.1641544  69.0192001  13.7302862  36.8514782
  69.0458142  15.2424779  36.9181513  74.5263486  12.6599123  42.2808591
  73.8687160  13.3498384  42.3688719  75.3303885  13.0495555  42.6242577
  73.3368945  11.0143496  40.3312532  73.8500826  11.6473488  40.8334242
  73.9870168  10.4144691  39.9655892  64.6058954   7.1574230  33.5444041
  63.7696267   7.4948916  33.8653316  64.4663724   7.0223210  32.6071178
  67.6923240  12.2830313  30.1676517  66.7850302  12.0519566  30.3667666
  68.1894272  11.4867932  30.3550499  70.5991319  20.9927820  33.0873204
  69.9253018  21.2959517  33.6958161  70.9857141  21.7956900  32.7378661
  69.8149775   8.4892951  42.5770873  68.8972337   8.7107898  42.4192561
  70.2309919   8.5639262  41.7182580  70.5984823   9.8884367  37.7073553
  71.3456642  10.4005764  37.3980675  70.8676413   9.5668420  38.5677947
  68.8711473  12.3842908  34.6900508  67.9622693  12.1001941  34.7872977
  68.9006557  12.8041986  33.8303814  74.1030741  15.9949497  38.4591675
  73.6493068  15.1540407  38.5156866  73.4724707  16.6310896  38.7966455
  72.5463680  17.8325994  39.3941493  72.8386654  18.3931051  38.6753859
  73.0562301  18.1254555  40.1494652  59.4399644  10.1048422  38.6715710
  59.2424044   9.5117783  37.9466776  58.8846308   9.8000632  39.3891649
  67.4196367   9.9971528  40.7910303  67.4744977   9.0445365  40.7152779
  66.6087569  10.1530967  41.2751601  68.5687561  13.9251651  32.0288586
  68.1306991  13.2087510  31.5694223  69.3098002  14.1527766  31.4673677
  65.3588727   8.6148588  38.5500682  64.5456593   8.9142759  38.9565874
  65.8547721   8.2204277  39.2675164  67.5097305  18.6106345  40.4834946
  67.4673484  18.8367191  39.5543478  68.4260004  18.3769720  40.6320748
  70.9562939   9.0790413  47.3815576  71.3112327   9.3061886  48.2410041
  71.6035070   9.4108789  46.7592831  76.6860676  12.2008848  38.0864905
  76.5478575  12.3910444  37.1586094  76.3296895  12.9628231  38.5432956
  76.7130056  14.2685375  43.0976176  77.1466562  14.1760665  43.9459230
  77.4261636  14.2442876  42.4596192  65.6263106  15.4869374  40.2796909
  66.4203704  14.9919694  40.0779484  64.9154798  14.9587237  39.9164615
  70.4457950  17.8687470  44.6309277  70.4994973  18.4378406  45.3986993
  69.5772732  18.0389355  44.2663314  61.9345869   9.6312456  36.3556662
  61.0043458   9.5696911  36.5726624  62.0303341   9.1088409  35.5593303
  61.8531418   6.1567269  38.9434903  62.1138236   7.0712602  38.8344064
  62.6748591   5.6891711  39.0931516  63.3256344   7.5705026  46.1133728
  63.9979397   7.3622388  45.4646377  62.4986130   7.3727112  45.6738960
  77.5745605  14.3109076  45.6309062  77.7681495  15.2154887  45.8768336
  77.4746223  13.8516495  46.4647647  72.6360714  14.4615819  51.2049942
  72.4846220  14.2326371  50.2880026  72.6265393  15.4186420  51.2181287
  69.4046050  12.0347732  46.1896209  70.3338110  12.1858891  46.0165176
  68.9837080  12.1231752  45.3344855  68.2034382  16.0598396  43.9594746
  68.0645468  15.6917180  44.8320684  67.4148978  16.5746035  43.7878704
  68.7982534  21.1607492  35.3020283  68.9734290  20.6895536  36.1165905
  68.1115322  21.7873259  35.5301543  69.7539597  15.4379999  41.3483584
  69.4189430  15.3980769  42.2441234  69.2543543  14.7724715  40.8753994
  63.7283841  10.8447629  46.8736165  63.5903639  10.1127868  47.4747704
  64.6388765  10.7556529  46.5920353  72.6898789  12.7836033  31.6220644
  72.0727959  12.0582861  31.5253696  72.2215277  13.5445393  31.2787718
  66.3566142  10.5567588  46.3619845  67.0665760   9.9160780  46.3206463
  66.3135450  10.8080483  47.2846026  74.3452920  17.4934941  49.2826424
  74.2865467  16.8094162  48.6157007  74.7472439  18.2353931  48.8307050
  65.0695076   7.5432806  48.1815484  64.5332433   7.0923544  48.8337081
  64.4811784   7.6778715  47.4385949  74.3470328  15.4574525  47.5140404
  73.4597106  15.1200447  47.6366803  74.9168879  14.7257557  47.7509169
  55.9999475  11.7898617  40.8383455  56.6870515  11.4760347  40.2504470
  55.8447603  12.6939982  40.5650707  60.8034197   6.6788814  45.2668479
  60.7192386   6.0714483  44.5318889  59.9816903   7.1697832  45.2677975
  67.8771481  20.1175978  44.4801647  67.8041653  20.9230949  44.9920951
  67.4348874  20.3167943  43.6549668  67.6661261  19.3547748  37.9904468
  66.8828783  19.8969428  38.0842693  68.3654006  19.8721727  38.3898710
  70.3370165  20.0162812  46.6359806  71.0498137  20.6510277  46.5635707
  69.8460193  20.1126678  45.8199807  72.0587691  13.9214064  38.2077097
  71.1243970  14.0415527  38.0381802  72.2364360  13.0186531  37.9437107
  65.3882078  17.7657255  47.4565376  66.0891538  18.3993738  47.6094771
  64.9177193  18.1071987  46.6961016  73.5136474  16.1075205  35.7413283
  73.7896318  15.9931800  36.6507157  72.6440973  15.7092690  35.7025457
  73.1883364  10.3201863  45.2817927  72.5354814  10.5677770  44.6270379
  73.5663744   9.5066001  44.9480404  70.1490538  20.3561556  39.3846097
  70.3312932  19.5383212  39.8473849  70.9723524  20.5729248  38.9470987
  70.4832703  19.2829741  36.6461146  71.0120470  18.7722196  36.0331308
  70.7460923  18.9672271  37.5106679  69.2370937  11.0621674  51.7683964
  68.5611574  10.9615803  52.4386339  70.0598571  10.9060887  52.2319961
  60.9849796  17.2993610  44.3896479  61.5703233  16.5537298  44.5224383
  60.7874635  17.6097567  45.2733143  63.8388451  20.3344858  39.4058921
  63.1698827  20.8190985  38.9222962  63.7001321  20.5814078  40.3202300
  55.5767451   9.8699210  43.1100922  55.6151550   9.3362801  43.9038040
  55.0707744   9.3434416  42.4911899  67.9793720  22.3688601  46.0041580
  68.5312028  22.5320223  46.7690665  68.3199913  22.9593039  45.3321605
  62.4310486   6.7886883  50.2536499  63.0582525   6.4063961  50.8674023
  61.5738405   6.5701085  50.6192191  72.8304594  17.1949859  51.8590234
  73.3744498  17.8079817  51.3645189  72.2491439  17.7529437  52.3757247
  59.2076029   8.5963313  36.1854854  59.5029470   7.6873991  36.1321907
  58.3064064   8.5751052  35.8635856  71.1162107  20.3170577  42.9905262
  70.9913247  19.5160317  42.4816207  71.7741198  20.8116770  42.5019232
  62.7370276   6.6719309  42.1682402  62.0156861   7.2855277  42.0289876
  63.5263531   7.2077074  42.0899048  73.1797016  18.1179597  44.6184812
  72.2327351  17.9984948  44.5463139  73.5279789  17.2302095  44.7011073
  60.9363870   6.2777410  36.3094179  60.6076576   5.3974789  36.1269285
  61.2903241   6.2225079  37.1970568  70.1843449  17.9132313  40.8189164
  70.0368411  16.9849020  40.9996734  71.0096942  17.9352404  40.3346240
  64.0505693   6.5650380  36.6769656  64.3901766   7.0936301  35.9548265
  64.4977814   6.9030786  37.4528223  73.7877571  18.7360872  41.9054037
  74.7124118  18.5303733  41.7678488  73.6192874  18.4877273  42.8143379
  64.9204185   8.7255864  42.3892026  64.7748765   9.0396167  43.2816308
  64.4429388   9.3440764  41.8362925  73.5772887  19.2546539  37.2616129
  73.7509765  18.6892962  36.5089981  74.0701778  20.0547434  37.0795618
  59.3949847  11.2661208  45.3279687  58.8503315  12.0421016  45.4599962
  60.2729197  11.6132013  45.1698809  74.5648059  18.5713304  34.3613027
  75.2598964  19.1919996  34.5800341  74.9071210  17.7208655  34.6365405
  60.1815869  10.3931104  48.2209844  59.4397605  10.5413740  48.8074475
  59.8608613  10.6539370  47.3576594  76.4639483  16.0213009  35.8900358
  76.9890807  16.3600282  35.1649678  76.3761835  15.0860024  35.7063492
  68.1259531  19.9347083  48.0190234  68.4346658  19.6896229  48.8912934
  68.9235013  20.1393721  47.5309104  68.1480143  22.0884992  40.2495611
  67.7085134  21.5961371  40.9428467  68.8988260  21.5457960  40.0087686
  60.6272482  18.2796533  40.2520239  61.4530502  17.9800305  39.8718882
  60.2766534  17.5104156  40.7010027  65.5954016  17.6323001  42.3217912
  64.9734025  16.9693706  42.0220140  66.2658882  17.6584133  41.6391560
  58.8281087  16.1982860  41.2109172  57.9912996  15.7705034  41.0293174
  58.8004733  16.3915303  42.1479964  76.1533389  16.6545913  51.1951556
  75.3628932  16.6370052  50.6556055  75.9166743  17.1934206  51.9500592
  76.2731264  13.5038379  48.5084284  76.3229269  13.3388387  49.4499807
  76.1645187  12.6365638  48.1182165  65.1567522  16.1826925  35.7976373
  65.3055643  16.8662389  35.1443046  65.9633966  16.1632015  36.3125829
  77.7749461  15.9235321  48.7526306  77.4834269  16.2865301  49.5889767
  77.1621592  15.2102329  48.5739638  78.9745143  13.4888200  41.2728876
  79.8092034  13.9278004  41.4366436  79.1104272  13.0126854  40.4537122
  76.0236649  11.0467935  47.2206364  76.4990770  11.2395582  46.4125215
  75.1002214  11.1027121  46.9749747  62.9120155  12.2092102  36.8037442
  62.6666197  11.3054432  37.0017652  63.0816070  12.2109253  35.8616920
  62.1815803   7.9420460  34.3023603  61.4885048   8.0164815  33.6463639
  61.9367555   7.1780804  34.8245120  68.6562928  18.6775055  33.2688120
  68.0836895  19.2965242  32.8158592  69.2295722  19.2274417  33.8028042
  71.8760188  18.9612205  34.3996703  72.8090861  18.8957767  34.6029578
  71.7883401  19.7968472  33.9411235  74.5048204  18.2778076  31.3600650
  74.4261836  17.9437939  32.2536408  75.3257871  18.7699844  31.3592123
  69.0409726  10.0135868  30.6104173  69.9868831   9.8842076  30.6792591
  68.6623971   9.2750530  31.0873601  68.9248419  14.0653614  52.0704830
  69.8451428  14.2432213  52.2644876  68.8898002  13.1209659  51.9184529
  67.2252644   7.9385844  30.5459058  66.3184099   7.6418957  30.6221772
  67.5028625   7.6415662  29.6793344  58.1430584   9.2592208  40.9958104
  57.8233368   8.4057516  40.7032478  57.5964012   9.4740786  41.7516072
  61.9210492  11.9754649  44.7127611  62.1396501  12.9071757  44.7315645
  62.3336265  11.6162623  45.4982415  66.7938357   7.5487855  54.1030360
  66.6935084   8.4982211  54.0342451  66.5759899   7.2206093  53.2306430
  58.0118844  12.8795119  42.9651226  57.3182315  12.4649072  42.4521180
  58.7591835  12.9215656  42.3684645  66.6569627  10.9784993  52.9195422
  66.1736709  11.7785353  53.1259311  66.7430566  10.9892938  51.9662866
  59.9255587  12.8113373  40.8417241  59.9026275  12.9101060  39.8899124
  60.2356223  13.6578524  41.1634407  62.5842964  14.8689528  44.9563855
  63.5386218  14.8373470  44.8893787  62.3855488  14.4080152  45.7714081
  63.1742347  13.4390644  47.5234653  63.9935236  13.9334723  47.5469490
  63.4479154  12.5222612  47.4952221  72.0752156  15.5946071  30.9810629
  72.7788006  15.7996074  31.5968284  71.3514805  16.1622833  31.2459712
  72.9049966  11.3455932  37.1012899  72.8485168  11.8024484  36.2620531
  73.4578309  10.5846617  36.9235741  64.0962319  21.3078465  42.1852496
  63.9794703  22.2523897  42.0831186  63.2754765  21.0052026  42.5738295
  73.9838854  16.0328600  33.0309089  74.8184458  15.6009799  32.8486563
  73.8223197  15.8610614  33.9585983  73.6384746  12.5360714  34.3965428
  73.5833550  12.3704985  33.4553872  73.0130801  13.2436747  34.5527618
  58.4277261   7.7728778  48.2226850  59.0736124   7.2627732  48.7114075
  58.2194412   8.5097460  48.7970275  70.9530653  14.8409625  53.7218991
  71.8221813  15.0150278  53.3605626  70.4737404  15.6604042  53.5994720
  65.1216833  21.9606726  45.4008424  66.0244080  21.9930337  45.7174919
  64.8954203  21.0307177  45.4154760  66.8770435  20.7137713  42.0618503
  65.9266066  20.7139575  41.9482875  67.1802921  19.9670448  41.5454538
  79.4212835  26.5025680  43.0625790  79.0831346  26.3866744  42.1746325
  80.2902603  26.1016845  43.0426796  75.2799651  28.3561156  39.0522681
  74.7164516  28.2651093  38.2838969  75.1652046  27.5361060  39.5325174
  79.9032618  27.6560531  49.0211996  79.8921259  27.2613330  48.1492499
  80.0653257  26.9226604  49.6145767  72.8264083  29.8512348  41.8906901
  73.6185375  29.5103172  41.4753201  73.0660733  29.9607323  42.8109055
  80.8599209  32.0232124  34.3637146  80.2087189  32.6086204  33.9771160
  81.6543572  32.5538319  34.4232183  74.7854837  29.1121261  34.7624280
  75.5585713  28.5650248  34.6237156  75.1380235  29.9765510  34.9738742
  76.6239879  30.4397643  47.9691180  76.3329745  31.3443274  47.8537846
  77.2596863  30.4814171  48.6835249  77.5496086  27.8174492  44.5592539
  78.1459658  27.5930514  43.8449502  77.6071057  27.0759237  45.1617987
  77.1221114  25.2713927  32.3942730  77.3746635  24.7495448  31.6326193
  76.1845673  25.1080072  32.4969414  82.1664397  24.2749705  40.2017473
  82.9527486  23.8569128  39.8507890  82.4303101  25.1795797  40.3699122
  82.3374475  29.7122556  34.9006130  81.7020307  29.7857182  35.6127035
  82.0071881  30.3016154  34.2225209  76.8417403  27.1742033  34.5967105
  76.7253661  26.4986936  35.2648189  76.9519663  26.6874407  33.7799258
  79.1848944  26.6352180  38.3013794  78.8207151  26.1082801  39.0126716
  80.0416060  26.2450649  38.1280280  78.8254431  21.6642080  33.2975143
  78.9928833  22.5322316  33.6645614  78.6351600  21.8269361  32.3736432
  81.5829764  30.1259059  44.9640973  81.2830487  31.0284097  44.8556780
  81.2380824  29.8591242  45.8162126  75.0342246  26.5772855  40.9977678
  74.1092742  26.4449070  41.2055369  75.2826659  27.3567075  41.4947620
  78.8043652  24.1199737  34.2821810  78.6843277  24.5656788  35.1207290
  78.1096240  24.4685055  33.7235348  72.3951057  26.2206129  41.8321467
  72.5243438  26.4740608  42.7460878  71.7148508  26.8133837  41.5126122
  76.5650544  36.8903379  37.9311941  76.4874574  37.8411204  38.0100421
  75.9612188  36.5449251  38.5886867  79.0567774  24.0631244  50.5873308
  78.2801108  24.6225164  50.5776172  79.6958337  24.5488027  51.1088178
  77.3114146  26.8716698  50.1491275  78.0528830  27.4101742  49.8726098
  76.6051132  27.4982986  50.3062827  82.7869486  29.0145838  48.7463436
  83.1952842  28.5728249  48.0018069  82.0646747  28.4398466  48.9997629
  79.1400556  23.9518445  46.1196993  79.9861751  24.3757858  46.2631642
  79.0799193  23.2952069  46.8135556  83.1098300  29.5747029  42.5015725
  82.4807163  29.7392743  41.7991793  82.7223962  29.9888638  43.2726689
  82.2900001  21.6122813  47.7778167  82.0460933  22.3664874  47.2412443
  82.5659932  21.9908161  48.6125414  81.8464693  20.7679246  43.3592005
  80.9849172  21.0660500  43.6508742  81.8727127  20.9849645  42.4273037
  78.6626262  29.3121437  39.7665810  79.1264608  29.5909140  38.9770433
  78.3983060  28.4104881  39.5838901  75.5550343  28.8592918  42.7045574
  76.1251700  29.2880187  42.0663058  76.1458455  28.5775503  43.4029759
  77.5995148  25.4344589  36.5755375  78.3019192  25.8865633  37.0429302
  77.2675777  24.7928408  37.2035269  76.0475510  24.0256346  50.9506585
  75.4174170  24.7072627  51.1841982  75.9411598  23.9139427  50.0059723
  71.3420482  23.6928142  41.8772509  70.5519536  23.9485670  41.4012620
  71.8331730  24.5076480  41.9824550  73.2935228  24.0572721  38.8355986
  72.4966391  24.1691415  39.3539481  73.0660820  24.3959373  37.9696876
  79.1240895  30.5817424  46.7838500  79.1885328  31.0437832  47.6196672
  78.4151819  29.9514789  46.9120810  69.6258185  23.9458632  44.3087500
  69.8766224  24.8305642  44.5745076  70.1617734  23.7663234  43.5362592
  78.8388913  32.2485532  36.6517481  78.7034588  33.0937068  37.0802328
  79.3798725  32.4504810  35.8883414  75.3256253  18.3277112  53.3131836
  74.9323198  17.7743310  53.9879480  76.1422393  18.6387690  53.7038353
  72.2918310  29.7660970  37.2245406  72.8042831  30.5604220  37.3750970
  72.9441023  29.0687260  37.1579007  74.1013195  32.8826726  39.3068159
  74.2779823  33.8044691  39.1189143  74.8970029  32.5685145  39.7362539
  78.2424214  19.7434991  50.9052092  78.9833927  20.3442144  50.8256555
  78.4742136  19.0012629  50.3470135  73.3865552  24.9291358  49.1830322
  73.2719067  24.0276615  49.4837421  72.5310069  25.1755055  48.8315139
  80.4657389  32.8709098  50.7817823  80.0221243  32.0845477  50.4638727
  81.1274603  33.0588249  50.1161714  75.2244510  34.4004900  45.3078501
  75.7751936  34.2721963  44.5355495  74.3855986  34.6999789  44.9573394
  79.0211682  30.6656028  49.6522732  79.5540018  29.9044316  49.4222040
  78.4925763  30.3729680  50.3946887  82.1881376  15.7716094  45.1816374
  81.8445646  16.6617735  45.1055485  82.5560339  15.5817751  44.3185959
  70.2567227  28.0949624  38.0004976  71.0942449  28.5046633  37.7838684
  70.4345495  27.1549066  37.9705170  82.1531659  25.7624705  33.6888809
  81.6378283  26.5329309  33.9277197  81.8808968  25.0889841  34.3121871
  79.7378770  20.6074406  38.7474048  78.8820367  20.2181256  38.5679686
  80.1505722  20.6866366  37.8873833  81.2677917  18.1420749  43.1465607
  80.7642712  18.1050884  42.3333413  81.5608524  19.0513492  43.2062264
  77.5120803  18.2259479  42.1531789  78.3773800  18.0302287  41.7937679
  77.5798312  17.9969830  43.0801146  81.9417962  23.6351797  35.5148590
  81.6368098  23.9497946  36.3658734  82.8948404  23.7133217  35.5575923
  80.3864394  29.7942020  37.1641544  79.8585756  29.0594780  36.8514782
  79.8851897  30.5716697  36.9181513  75.1183122  20.4561687  39.5248156
  75.6926874  20.2336868  38.7921349  75.7054104  20.5250381  40.2776757
  75.4452709  22.4866148  33.5444041  74.6090021  22.8240834  33.8653316
  75.3057479  22.3515127  32.6071178  77.4205790  17.3302935  38.2523225
  76.7670202  17.0151953  37.6279840  77.3786264  16.7078676  38.9783048
  78.5316994  27.6122231  30.1676517  77.6244056  27.3811484  30.3667666
  79.0288026  26.8159850  30.3550499  81.4385073  36.3219738  33.0873204
  80.7646772  36.6251434  33.6958161  81.8250895  37.1248818  32.7378661
  80.6543530  23.8184869  42.5770873  79.7366091  24.0399816  42.4192561
  81.0703674  23.8931179  41.7182580  81.4378578  25.2176285  37.7073553
  82.1850397  25.7297682  37.3980675  81.7070167  24.8960337  38.5677947
  79.7105228  27.7134825  34.6900508  78.8016447  27.4293858  34.7872977
  79.7400312  28.1333904  33.8303814  70.2793398  25.4340340  38.6715710
  70.0817798  24.8409700  37.9466776  69.7240062  25.1292550  39.3891649
  78.2590122  25.3263446  40.7910303  78.3138732  24.3737282  40.7152779
  77.4481324  25.4822885  41.2751601  79.4081316  29.2543569  32.0288586
  78.9700746  28.5379428  31.5694223  80.1491756  29.4819684  31.4673677
  76.1982482  23.9440506  38.5500682  75.3850347  24.2434676  38.9565874
  76.6941476  23.5496195  39.2675164  78.3491060  33.9398263  40.4834946
  78.3067238  34.1659109  39.5543478  79.2653759  33.7061637  40.6320748
  81.7956693  24.4082330  47.3815576  82.1506081  24.6353803  48.2410041
  82.4428825  24.7400707  46.7592831  75.6896557  21.5158861  44.1661917
  76.3295936  21.3747620  43.4684880  74.8574087  21.2293375  43.7900519
  76.4656860  30.8161292  40.2796909  77.2597459  30.3211612  40.0779484
  75.7548553  30.2879155  39.9164615  81.2851705  33.1979387  44.6309277
  81.3388727  33.7670324  45.3986993  80.4166486  33.3681272  44.2663314
  72.7739624  24.9604373  36.3556662  71.8437212  24.8988829  36.5726624
  72.8697096  24.4380326  35.5593303  72.6925173  21.4859186  38.9434903
  72.9531990  22.4004520  38.8344064  73.5142345  21.0183629  39.0931516
  74.1650098  22.8996943  46.1133728  74.8373152  22.6914306  45.4646377
  73.3379885  22.7019029  45.6738960  80.0675670  19.5258884  48.1299389
  79.4203585  20.2248834  48.0363865  80.8376686  19.9595028  48.4975637
  80.2439805  27.3639649  46.1896209  81.1731865  27.5150809  46.0165176
  79.8230835  27.4523670  45.3344855  79.0428136  31.3890314  43.9594746
  78.9039222  31.0209098  44.8320684  78.2542733  31.9037953  43.7878704
  79.6376288  36.4899410  35.3020283  79.8128044  36.0187453  36.1165905
  78.9509076  37.1165176  35.5301543  80.5933352  30.7671916  41.3483584
  80.2583184  30.7272686  42.2441234  80.0937297  30.1016632  40.8753994
  74.5677596  26.1739546  46.8736165  74.4297393  25.4419785  47.4747704
  75.4782519  26.0848447  46.5920353  77.1959896  25.8859506  46.3619845
  77.9059515  25.2452698  46.3206463  77.1529204  26.1372401  47.2846026
  75.9088830  22.8724724  48.1815484  75.3726187  22.4215462  48.8337081
  75.3205539  23.0070632  47.4385949  74.2037374  39.6388773  42.0760143
  74.4433972  40.2707297  42.7539161  73.3606570  39.2876813  42.3625502
  75.3191089  22.3313375  30.7441948  74.4420555  22.2102176  30.3804195
  75.7948842  21.5399453  30.4920837  71.6427951  22.0080731  45.2668479
  71.5586140  21.4006401  44.5318889  70.8210658  22.4989750  45.2677975
  78.7165236  35.4467895  44.4801647  78.6435407  36.2522867  44.9920951
  78.2742629  35.6459861  43.6549668  78.5055015  34.6839665  37.9904468
  77.7222537  35.2261346  38.0842693  79.2047760  35.2013645  38.3898710
  81.8151665  20.4934295  40.6338674  82.3120365  19.7404257  40.3139744
  81.0438647  20.5298611  40.0681883  81.1763919  35.3454729  46.6359806
  81.8891891  35.9802194  46.5635707  80.6853948  35.4418595  45.8199807
  82.8981446  29.2505982  38.2077097  81.9637725  29.3707445  38.0381802
  83.0758114  28.3478449  37.9437107  78.3986634  22.6351678  40.3610358
  78.0284422  22.0822718  41.0491264  78.8945727  22.0309811  39.8085358
  76.2275833  33.0949173  47.4565376  76.9285292  33.7285656  47.6094771
  75.7570948  33.4363904  46.6961016  80.9884292  35.6853473  39.3846097
  81.1706687  34.8675129  39.8473849  81.8117278  35.9021166  38.9470987
  81.3226458  34.6121659  36.6461146  81.8514224  34.1014113  36.0331308
  81.5854678  34.2964189  37.5106679  80.0764692  26.3913591  51.7683964
  79.4005329  26.2907721  52.4386339  80.8992325  26.2352805  52.2319961
  71.8243551  32.6285528  44.3896479  72.4096987  31.8829216  44.5224383
  71.6268389  32.9389485  45.2733143  74.6782206  35.6636775  39.4058921
  74.0092581  36.1482903  38.9222962  74.5395076  35.9105996  40.3202300
  66.4161205  25.1991128  43.1100922  66.4545305  24.6654719  43.9038040
  65.9101498  24.6726334  42.4911899  78.8187474  37.6980519  46.0041580
  79.3705783  37.8612140  46.7690665  79.1593668  38.2884957  45.3321605
  73.7951968  20.0455669  46.6063465  73.8593294  20.9070500  46.1940862
  73.7319088  19.4329670  45.8735823  73.2704240  22.1178801  50.2536499
  73.8976279  21.7355878  50.8674023  72.4132159  21.8993003  50.6192191
  70.0469783  23.9255230  36.1854854  70.3423224  23.0165909  36.1321907
  69.1457819  23.9042970  35.8635856  81.9555862  35.6462494  42.9905262
  81.8307001  34.8452234  42.4816207  82.6134953  36.1408688  42.5019232
  73.5764030  22.0011227  42.1682402  72.8550616  22.6147195  42.0289876
  74.3657286  22.5368992  42.0899048  76.3790344  19.3365653  48.4423054
  76.9024745  19.5827950  49.2049363  76.1602677  20.1685688  48.0226191
  71.7757625  21.6069328  36.3094179  71.4470331  20.7266707  36.1269285
  72.1296995  21.5516997  37.1970568  81.0237203  33.2424231  40.8189164
  80.8762166  32.3140938  40.9996734  81.8490697  33.2644321  40.3346240
  74.8899448  21.8942298  36.6769656  75.2295520  22.4228219  35.9548265
  75.3371568  22.2322704  37.4528223  77.5842889  20.2779348  46.1272724
  77.2439709  19.4787162  46.5293404  76.8781895  20.5781059  45.5549558
  78.2359360  17.3628661  44.5800048  79.0585430  16.8889139  44.4578938
  78.4797424  18.1419145  45.0798734  76.8767595  20.3916919  34.8762949
  77.5975957  20.7698172  34.3726666  76.2532899  21.1105796  34.9797927
  81.0198718  21.0962068  35.8121282  81.2362332  21.9786706  35.5110110
  80.5392785  20.7048282  35.0826924  75.7597939  24.0547782  42.3892026
  75.6142520  24.3688085  43.2816308  75.2823143  24.6732682  41.8362925
  77.6194322  21.0450329  42.4372916  77.6055891  20.1491423  42.1005214
  78.3366750  21.0520993  43.0711202  79.4720453  21.4787670  44.4826043
  79.2138231  22.4004740  44.4810374  78.9405493  21.0818104  45.1726507
  70.2343601  26.5953126  45.3279687  69.6897069  27.3712934  45.4599962
  71.1122951  26.9423930  45.1698809  77.0231218  19.9264710  37.7060486
  77.1447129  18.9981356  37.9051373  76.7333260  19.9403396  36.7938801
  79.8922408  17.6119620  40.8427206  79.9144105  17.6758953  39.8879185
  80.3090467  16.7724129  41.0367712  71.0209623  25.7223022  48.2209844
  70.2791359  25.8705658  48.8074475  70.7002367  25.9831288  47.3576594
  78.9653286  35.2639000  48.0190234  79.2740412  35.0188147  48.8912934
  79.7628768  35.4685639  47.5309104  78.9873898  37.4176910  40.2495611
  78.5478888  36.9253289  40.9428467  79.7382015  36.8749878  40.0087686
  71.4666237  33.6088451  40.2520239  72.2924257  33.3092223  39.8718882
  71.1160289  32.8396073  40.7010027  76.4347770  32.9614919  42.3217912
  75.8127779  32.2985624  42.0220140  77.1052637  32.9876051  41.6391560
  69.6674842  31.5274777  41.2109172  68.8306750  31.0996952  41.0293174
  69.6398487  31.7207221  42.1479964  76.5072297  21.4396707  51.9150418
  76.5560453  22.3158830  51.5328188  77.0494812  20.8974100  51.3422062
  75.9961277  31.5118842  35.7976373  76.1449397  32.1954307  35.1443046
  76.8027720  31.4923933  36.3125829  78.7371586  22.1928080  48.6696777
  77.8674895  22.4861646  48.3979366  78.9731066  22.7768525  49.3904041
  73.7513910  27.5384020  36.8037442  73.5059952  26.6346350  37.0017652
  73.9209824  27.5401171  35.8616920  81.4410620  18.4107696  46.1862197
  81.9592564  19.1468723  45.8608686  81.0865753  18.7171690  47.0208957
  73.0209557  23.2712378  34.3023603  72.3278802  23.3456733  33.6463639
  72.7761309  22.5072721  34.8245120  81.6923214  14.8307979  41.7063094
  81.9724968  14.1631168  42.3323521  82.4773821  15.0237075  41.1937758
  79.4956682  34.0066973  33.2688120  78.9230650  34.6257160  32.8158592
  80.0689476  34.5566335  33.8028042  79.8803481  25.3427786  30.6104173
  80.8262586  25.2133994  30.6792591  79.5017726  24.6042448  31.0873601
  79.7642173  29.3945532  52.0704830  80.6845183  29.5724131  52.2644876
  79.7291757  28.4501577  51.9184529  78.0646398  23.2677762  30.5459058
  77.1577853  22.9710875  30.6221772  78.3422379  22.9707580  29.6793344
  68.9824338  24.5884125  40.9958104  68.6627123  23.7349434  40.7032478
  68.4357767  24.8032704  41.7516072  72.7604246  27.3046566  44.7127611
  72.9790256  28.2363674  44.7315645  73.1730020  26.9454541  45.4982415
  79.6808464  17.8114652  36.7003299  78.8709192  17.4661737  37.0758545
  80.3692881  17.5022195  37.2890911  81.6099012  16.8892699  38.3227596
  82.1630051  17.3088152  38.9817619  81.8469098  15.9628447  38.3650552
  77.6332111  22.8779772  54.1030360  77.5328838  23.8274129  54.0342451
  77.4153653  22.5498011  53.2306430  76.8345183  20.1264697  30.6871037
  77.6964347  20.4519596  30.9466855  77.0195527  19.3396193  30.1744103
  68.8512598  28.2087037  42.9651226  68.1576070  27.7940990  42.4521180
  69.5985589  28.2507573  42.3684645  77.4963381  26.3076911  52.9195422
  77.0130463  27.1077271  53.1259311  77.5824320  26.3184856  51.9662866
  70.7649341  28.1405291  40.8417241  70.7420029  28.2392978  39.8899124
  71.0749977  28.9870442  41.1634407  73.4236719  30.1981446  44.9563855
  74.3779972  30.1665388  44.8893787  73.2249242  29.7372069  45.7714081
  74.0136101  28.7682562  47.5234653  74.8328990  29.2626640  47.5469490
  74.2872909  27.8514530  47.4952221  71.7786948  35.7401065  41.9734053
  71.6441416  34.9801466  41.4072051  71.3619010  36.4641965  41.5062842
  74.9356074  36.6370382  42.1852496  74.8188458  37.5815815  42.0831186
  74.1148520  36.3343944  42.5738295  69.2671015  23.1020696  48.2226850
  69.9129879  22.5919650  48.7114075  69.0588166  23.8389377  48.7970275
  81.7924407  30.1701543  53.7218991  82.6615567  30.3442195  53.3605626
  81.3131159  30.9895960  53.5994720  77.7874626  17.3660740  33.9750746
  77.7753296  18.3102580  34.1319017  78.6798048  17.1830886  33.6810207
  75.9610588  37.2898644  45.4008424  76.8637834  37.3222254  45.7174919
  75.7347958  36.3599095  45.4154760  77.7164190  36.0429631  42.0618503
  76.7659821  36.0431492  41.9482875  78.0196676  35.2962365  41.5454538
  81.6026745  13.9603517  38.2296683  80.8359141  13.4062004  38.3753365
  82.0137450  14.0325386  39.0910835  73.6068506  20.2488313  52.3201864
  74.4699968  19.8925118  52.5305189  73.0333917  19.9102208  53.0077269
  82.1814237  39.0220060  41.8772509  81.3913291  39.2777588  41.4012620
  82.6725484  39.8368397  41.9824550  80.4651940  39.2750550  44.3087500
  80.7159978  40.1597560  44.5745076  81.0011488  39.0955152  43.5362592
  81.0960982  43.4241542  38.0004976  81.9336204  43.8338550  37.7838684
  81.2739249  42.4840984  37.9705170  81.1187153  40.7632257  38.6715710
  80.9211553  40.1701618  37.9466776  80.5633817  40.4584467  39.3891649
  77.6786984  42.4482452  40.8383455  78.3658024  42.1344182  40.2504470
  77.5235112  43.3523817  40.5650707  82.4821706  37.3372649  45.2668479
  82.3979895  36.7298319  44.5318889  81.6604412  37.8281667  45.2677975
  77.2554960  40.5283046  43.1100922  77.2939059  39.9946636  43.9038040
  76.7495253  40.0018251  42.4911899  80.8863537  39.2547148  36.1854854
  81.1816979  38.3457826  36.1321907  79.9851573  39.2334887  35.8635856
  82.6151379  36.9361246  36.3094179  82.2864085  36.0558625  36.1269285
  82.9690750  36.8808914  37.1970568  81.0737356  41.9245044  45.3279687
  80.5290824  42.7004852  45.4599962  81.9516706  42.2715848  45.1698809
  81.8603378  41.0514940  48.2209844  81.1185114  41.1997575  48.8074475
  81.5396122  41.3123205  47.3576594  82.3059991  48.9380369  40.2520239
  83.1318011  48.6384140  39.8718882  81.9554043  48.1687991  40.7010027
  80.5068596  46.8566695  41.2109172  79.6700505  46.4288869  41.0293174
  80.4792242  47.0499138  42.1479964  79.8218093  39.9176043  40.9958104
  79.5020877  39.0641351  40.7032478  79.2751521  40.1324621  41.7516072
  79.6906353  43.5378955  42.9651226  78.9969824  43.1232907  42.4521180
  80.4379344  43.5799491  42.3684645  81.6043095  43.4697208  40.8417241
  81.5813784  43.5684896  39.8899124  81.9143732  44.3162359  41.1634407
  82.6180702  51.0692983  41.9734053  82.4835170  50.3093384  41.4072051
  82.2012764  51.7933883  41.5062842  80.1064770  38.4312613  48.2226850
  80.7523633  37.9211567  48.7114075  79.8981921  39.1681295  48.7970275
  76.5650545  13.8965502  24.6557248  76.4874575  14.8473327  24.7345728
  75.9612189  13.5511374  25.3132174  75.2244512  11.4067023  32.0323808
  75.7751937  11.2784086  31.2600802  74.3855988  11.7061912  31.6818701
  79.6376290  13.4961533  22.0265589  79.8128045  13.0249576  22.8411212
  78.9509078  14.1227299  22.2546850  74.2037375  16.6450896  28.8005450
  74.4433973  17.2769420  29.4784468  73.3606571  16.2938936  29.0870809
  78.7165237  12.4530018  31.2046954  78.6435408  13.2584989  31.7166258
  78.2742630  12.6521984  30.3794975  78.5055016  11.6901788  24.7149775
  77.7222538  12.2323468  24.8088000  79.2047762  12.2075768  25.1144016
  81.1763920  12.3516852  33.3605112  81.8891893  12.9864317  33.2881014
  80.6853949  12.4480718  32.5445114  71.8243552   9.6347650  31.1141786
  72.4096989   8.8891338  31.2469690  71.6268390   9.9451607  31.9978450
  74.6782207  12.6698898  26.1304228  74.0092582  13.1545026  25.6468268
  74.5395077  12.9168118  27.0447607  78.8187476  14.7042641  32.7286886
  79.3705784  14.8674263  33.4935972  79.1593669  15.2947079  32.0566911
  78.9653287  12.2701123  34.7435541  79.2740414  12.0250270  35.6158240
  79.7628769  12.4747761  34.2554411  78.9873899  14.4239033  26.9740917
  78.5478889  13.9315411  27.6673774  79.7382016  13.8812000  26.7332993
  71.4666238  10.6150573  26.9765545  72.2924258  10.3154345  26.5964189
  71.1160290   9.8458196  27.4255334  69.6674843   8.5336900  27.9354479
  68.8306751   8.1059074  27.7538480  69.6398489   8.7269343  28.8725270
  71.7786949  12.7463188  28.6979360  71.6441417  11.9863589  28.1317358
  71.3619011  13.4704088  28.2308149  74.9356075  13.6432505  28.9097803
  74.8188459  14.5877937  28.8076493  74.1148521  13.3406066  29.2983602
  75.9610589  14.2960767  32.1253731  76.8637836  14.3284377  32.4420226
  75.7347959  13.3661218  32.1400067  77.7164191  13.0491753  28.7863810
  76.7659822  13.0493615  28.6728182  78.0196677  12.3024488  28.2699844
  82.1814238  16.0282182  28.6017816  81.3913292  16.2839711  28.1257926
  82.6725485  16.8430520  28.7069856  80.4651941  16.2812673  31.0332806
  80.7159979  17.1659683  31.2990382  81.0011489  16.1017274  30.2607898
  81.0960983  20.4303664  24.7250283  81.9336205  20.8400673  24.5083991
  81.2739251  19.4903107  24.6950477  81.1187154  17.7694380  25.3961016
  80.9211554  17.1763741  24.6712083  80.5633818  17.4646590  26.1136955
  77.6786985  19.4544575  27.5628762  78.3658025  19.1406305  26.9749777
  77.5235114  20.3585940  27.2896013  82.4821707  14.3434772  31.9913785
  82.3979896  13.7360441  31.2564195  81.6604414  14.8343790  31.9923282
  77.2554961  17.5345168  29.8346229  77.2939061  17.0008759  30.6283347
  76.7495254  17.0080374  29.2157206  80.8863539  16.2609271  22.9100160
  81.1816980  15.3519949  22.8567214  79.9851574  16.2397010  22.5881163
  81.0737357  18.9307166  32.0524994  80.5290825  19.7066974  32.1845268
  81.9516707  19.2777971  31.8944115  81.8603379  18.0577062  34.9455151
  81.1185115  18.2059698  35.5319781  81.5396123  18.3185328  34.0821900
  82.3059993  25.9442491  26.9765545  83.1318012  25.6446263  26.5964189
  81.9554045  25.1750114  27.4255334  80.5068598  23.8628818  27.9354479
  79.6700506  23.4350992  27.7538480  80.4792243  24.0561261  28.8725270
  79.8218094  16.9238166  27.7203411  79.5020879  16.0703474  27.4277785
  79.2751522  17.1386744  28.4761378  79.6906354  20.5441077  29.6896533
  78.9969826  20.1295030  29.1766487  80.4379345  20.5861614  29.0929952
  81.6043097  20.4759331  27.5662548  81.5813785  20.5747018  26.6144431
  81.9143733  21.3224482  27.8879714  82.6180703  28.0755106  28.6979360
  82.4835171  27.3155506  28.1317358  82.2012766  28.7996005  28.2308149
  80.1064771  15.4374736  34.9472157  80.7523635  14.9273690  35.4359382
  79.8981922  16.1743418  35.5215582   4.9842924  39.6878085  74.1901223
   4.3330904  40.2732166  73.8035237   5.7787287  40.2184280  74.2496260
  11.2509648  36.1803021  75.4506060  10.4739091  35.8414181  75.0061222
  11.9301129  36.1855644  74.7761025   2.6560709  35.2768192  69.9940594
   1.7487771  35.0457445  70.1931743   3.1531741  34.4805811  70.1814576
   5.5628788  43.9865699  72.9137281   4.8890487  44.2897396  73.5222238
   5.9494610  44.7894780  72.5642738   3.5325030  36.9189531  71.8552663
   3.0944460  36.2025390  71.3958300   4.2735471  37.1465645  71.2937754
   3.7620003  44.1545372  75.1284360   3.9371759  43.6833415  75.9429982
   3.0752791  44.7811138  75.3565620   7.6536258  35.7773912  71.4484721
   7.0365429  35.0520740  71.3517773   7.1852746  36.5383272  71.1051795
   8.4773943  39.1013084  75.5677360   8.7533787  38.9869679  76.4771234
   7.6078442  38.7030569  75.5289534   5.4470173  42.2767620  76.4725223
   5.9757939  41.7660075  75.8595385   5.7098392  41.9610150  77.3370756
   8.5410356  42.2484418  77.0880206   8.7147234  41.6830841  76.3354058
   9.0339248  43.0485313  76.9059695   9.5285529  41.5651183  74.1877104
  10.2236433  42.1857875  74.4064418   9.8708679  40.7146534  74.4629482
  11.4276952  39.0150888  75.7164435  11.9528276  39.3538161  74.9913755
  11.3399304  38.0797904  75.5327569   3.6200397  41.6712934  73.0952197
   3.0474364  42.2903122  72.6422669   4.1933191  42.2212296  73.6292119
   6.8397657  41.9550085  74.2260780   7.7728330  41.8895646  74.4293655
   6.7520870  42.7906351  73.7675312   9.4685674  41.2715955  71.1864727
   9.3899305  40.9375818  72.0800485  10.2895340  41.7637723  71.1856200
   4.0047196  33.0073747  70.4368250   4.9506300  32.8779955  70.5056668
   3.6261441  32.2688409  70.9137678   7.0389625  38.5883950  70.8074706
   7.7425476  38.7933953  71.4232361   6.3152274  39.1560712  71.0723789
   8.9476323  39.0266479  72.8573166   9.7821927  38.5947678  72.6750640
   8.7860666  38.8548493  73.7850060   8.6022215  35.5298593  74.2229505
   8.5471019  35.3642864  73.2817949   7.9768270  36.2374626  74.3791695
  17.5760598  49.5436131  82.9528342  18.2139008  49.4242878  82.2491682
  17.4581441  50.4916975  83.0116294  15.8236679  55.0170003  74.1901223
  15.1724658  55.6024083  73.8035237  16.6181041  55.5476198  74.2496260
   9.7492306  52.1059140  74.5888357  10.5223182  51.5588127  74.4501233
  10.1017705  52.9703389  74.8002819  12.0858584  48.2651806  72.2206807
  12.3384104  47.7433327  71.4590270  11.1483143  48.1017952  72.3233491
  17.1301866  47.2687584  80.0281550  17.9164956  46.8507008  79.6771967
  17.3940571  48.1733677  80.1963199  17.3011944  52.7060435  74.7270207
  16.6657777  52.7795061  75.4391112  16.9709350  53.2954034  74.0489286
  22.5310294  47.2062818  80.9314529  23.2635466  46.6362034  81.1652358
  21.7749649  46.8184418  81.3721034  11.8054872  50.1679912  74.4231182
  11.6891130  49.4924815  75.0912266  11.9157132  49.6812286  73.6063335
  14.1486413  49.6290059  78.1277871  13.7844621  49.1020680  78.8390793
  15.0053529  49.2388528  77.9544357  13.7891900  44.6579959  73.1239220
  13.9566303  45.5260195  73.4909691  13.5989069  44.8207241  72.2000509
  19.9464377  45.6379478  82.4702488  19.0381255  45.5694886  82.1761249
  19.8951973  46.1151423  83.2984313  13.7681121  47.1137616  74.1085887
  13.6480746  47.5594667  74.9471367  13.0733710  47.4622934  73.5499425
  21.8126024  43.8395916  84.2480361  21.1700404  44.1328449  83.6020156
  21.3080952  43.7248837  85.0533558  19.4666187  47.5859090  74.9366221
  20.3784043  47.8186476  74.7613918  18.9575834  48.1696134  74.3741299
  18.0735770  52.5684908  82.3279802  17.4444632  52.7330622  81.6255870
  17.6861432  52.9826518  83.0990766  21.9525002  53.5039346  79.6824166
  21.2676040  53.8838247  79.1321199  22.0368851  54.1134672  80.4156114
  13.6263731  52.3059316  79.5929887  14.0902077  52.5847019  78.8034510
  13.3620530  51.4042761  79.4102978  12.5632618  48.4282468  76.4019452
  13.2656661  48.8803512  76.8693379  12.2313246  47.7866287  77.0299346
  28.4127754  50.3710009  80.8026838  27.6591463  49.8017407  80.6470843
  28.5475295  50.3372673  81.7497473  13.8026382  55.2423411  76.4781558
  13.6672057  56.0874947  76.9066405  14.3436195  55.4442689  75.7147491
  17.1169128  48.7562584  73.5152886  16.6015752  49.5267189  73.7541274
  16.8446437  48.0827720  74.1385948  14.7016240  43.6012285  78.5738125
  13.8457836  43.2119135  78.3943763  15.1143191  43.6804246  77.7137910
  22.0903403  51.5094939  75.4506060  21.3132845  51.1706098  75.0061222
  22.7694884  51.5147562  74.7761025  16.9055432  46.6289676  75.3412667
  16.6005567  46.9435825  76.1922811  17.8585874  46.7071096  75.3840000
  15.3501863  52.7879899  76.9905621  14.8223225  52.0532659  76.6778859
  14.8489366  53.5654576  76.7445590  20.3294710  50.9828920  82.1072668
  19.6718384  51.6728181  82.1952796  21.1335109  51.3725352  82.4506654
  10.0820591  43.4499566  79.3512233  10.6564343  43.2274747  78.6185426
  10.6691574  43.5188260  80.1040834  19.1400168  49.3373293  80.1576609
  19.6532050  49.9703284  80.6598319  19.7901392  48.7374488  79.7919969
  10.4090178  45.4804027  73.3708118   9.5727490  45.8178713  73.6917393
  10.2694948  45.3453007  72.4335255  12.3843259  40.3240815  78.0787302
  11.7307671  40.0089832  77.4543917  12.3423733  39.7016555  78.8047125
  13.4954464  50.6060110  69.9940594  12.5881525  50.3749363  70.1931743
  13.9925496  49.8097729  70.1814576  16.4022543  59.3157617  72.9137281
  15.7284241  59.6189314  73.5222238  16.7888365  60.1186697  72.5642738
  15.6180999  46.8122748  82.4034950  14.7003561  47.0337695  82.2456638
  16.0341143  46.8869059  81.5446657  16.4016047  48.2114164  77.5337630
  17.1487866  48.7235561  77.2244752  16.6707636  47.8898217  78.3942024
  14.6742697  50.7072705  74.5164585  13.7653916  50.4231737  74.6137054
  14.7037781  51.1271783  73.6567891  19.9061965  54.3179294  78.2855752
  19.4524292  53.4770204  78.3420943  19.2755931  54.9540692  78.6230532
  18.8494884  45.2471280  79.5156420  18.1117641  44.7348666  79.8466662
  19.1021658  44.8071662  78.7039696  18.3494904  56.1555791  79.2205570
  18.6417878  56.7160848  78.5017936  18.8593524  56.4484352  79.9758729
  18.9506511  38.0247532  80.1098189  19.2565388  37.1644896  79.8224104
  19.6759116  38.6165152  79.9097183  13.2227591  48.3201325  80.6174380
  13.2776201  47.3675162  80.5416856  12.4118793  48.4760764  81.1015678
  14.3718785  52.2481448  71.8552663  13.9338215  51.5317307  71.3958300
  15.1129226  52.4757563  71.2937754  11.1619951  46.9378385  78.3764759
  10.3487817  47.2372555  78.7829951  11.6578945  46.5434074  79.0939241
  22.4891900  50.5238645  77.9128982  22.3509798  50.7140241  76.9850171
  22.1328119  51.2858028  78.3697033  22.5161279  52.5915172  82.9240253
  22.9497786  52.4990461  83.7723307  23.2292860  52.5672673  82.2860269
   7.7377093  47.9542253  76.1820739   6.8074681  47.8926708  76.3990701
   7.8334565  47.4318205  75.3857380   7.6562642  44.4797065  78.7698980
   7.9169460  45.3942399  78.6608141   8.4779815  44.0121508  78.9195593
  23.3776829  52.6338873  85.4573139  23.5712719  53.5384683  85.7032413
  23.2777447  52.1746292  86.2911724  14.6013758  59.4837289  75.1284360
  14.7765513  59.0125333  75.9429982  13.9146546  60.1103056  75.3565620
  18.4930013  51.1065830  71.4484721  17.8759183  50.3812658  71.3517773
  18.0246501  51.8675190  71.1051795  10.2828558  45.3251254  70.5706025
   9.4058025  45.2040055  70.2068272  10.7586311  44.5337332  70.3184914
  16.7789135  43.4872174  80.4602751  17.2757834  42.7342136  80.1403821
  16.0076116  43.5236491  79.8945960  24.6318892  49.1912540  82.1021042
  24.6208768  50.0737255  81.7314975  23.7636271  48.8384090  81.9075579
  17.8618915  52.2443861  78.0341174  16.9275194  52.3645324  77.8645879
  18.0395584  51.3416328  77.7701184  13.3624103  45.6289557  80.1874435
  12.9921891  45.0760597  80.8755341  13.8583196  45.0247690  79.6349435
  21.2491467  48.0861181  78.5691208  21.7151919  48.9189172  78.4951511
  21.6998967  47.6206162  79.2736467  19.3167698  54.4305002  75.5677360
  19.5927542  54.3161596  76.4771234  18.4472196  54.0322487  75.5289534
  18.9914588  48.6431659  85.1082004  18.3386038  48.8907567  84.4534457
  19.3694968  47.8295798  84.7744481  16.2863927  57.6059538  76.4725223
  16.8151694  57.0951992  75.8595385  16.5492147  57.2902068  77.3370756
   5.0107252  46.9193109  76.0118931   5.3060693  46.0103788  75.9585984
   4.1095288  46.8980849  75.6899933   6.7395094  44.6007207  76.1358256
   6.4107800  43.7204586  75.9533362   7.0934465  44.5454876  77.0234645
   9.8536917  44.8880177  76.5033733  10.1932990  45.4166098  75.7812342
  10.3009037  45.2260583  77.2792300  19.5908795  57.0590669  81.7318114
  20.5155342  56.8533530  81.5942565  19.4224098  56.8107070  82.6407456
  11.8405064  43.3854798  74.7027026  12.5613427  43.7636051  74.1990743
  11.2170368  44.1043675  74.8062004  15.9836187  44.0899947  75.6385359
  16.1999801  44.9724585  75.3374187  15.5030254  43.6986161  74.9091001
  19.3804111  57.5776336  77.0880206  19.5540988  57.0122758  76.3354058
  19.8733002  58.3777231  76.9059695  11.9868687  42.9202589  77.5324563
  12.1084598  41.9919235  77.7315450  11.6970730  42.9341275  76.6202878
  25.2343502  50.3412759  78.7070505  25.6774648  49.5920084  78.3089629
  24.3570012  50.3322895  78.3244237  20.3679283  56.8943100  74.1877104
  21.0630188  57.5149793  74.4064418  20.7102433  56.0438452  74.4629482
  22.2670706  54.3442806  75.7164435  22.7922030  54.6830079  74.9913755
  22.1793059  53.4089821  75.5327569  10.9598746  54.5056722  75.6240450
  11.1086867  55.1892186  74.9707123  11.7665190  54.4861812  76.1389906
  24.7776367  51.8117997  81.0992953  25.6123258  52.2507801  81.2630513
  24.9135495  51.3356650  80.2801199  21.8267873  49.3697732  87.0470441
  22.3021994  49.5625378  86.2389292  20.9033438  49.4256918  86.8013824
   8.7151379  50.5321899  76.6301519   8.4697421  49.6284229  76.8281729
   8.8847294  50.5339050  75.6880997   7.9847027  46.2650257  74.1287680
   7.2916272  46.3394612  73.4727716   7.7398779  45.5010600  74.6509197
  14.4594152  57.0004852  73.0952197  13.8868119  57.6195039  72.6422669
  15.0326945  57.5504214  73.6292119  20.5269542  46.2463492  85.2798746
  21.4786964  46.3461590  85.3010970  20.3572992  45.4541761  85.7896831
  17.6791412  57.2842002  74.2260780  18.6122085  57.2187564  74.4293655
  17.5914624  58.1198269  73.7675312  20.3079428  56.6007873  71.1864727
  20.2293060  56.2667736  72.0800485  21.1289095  57.0929640  71.1856200
  23.0057619  49.4669612  84.3941046  22.9733939  48.5285613  84.5800730
  23.6158243  49.5453649  83.6606871  14.8440950  48.3365665  70.4368250
  15.7900055  48.2071873  70.5056668  14.4655195  47.5980327  70.9137678
  23.1552108  46.2580655  84.4399329  22.6391156  45.4739112  84.2529258
  24.0392056  45.9299372  84.6045848  20.8162835  40.0021671  80.3995142
  20.6187656  39.6936759  81.2838474  21.4262540  40.7283310  80.5293072
  28.8234169  50.5285619  83.5347083  29.5537558  50.2670907  84.0954786
  28.2141115  49.7914341  83.5749151  26.9049466  48.6693481  84.1321534
  26.1782630  48.5349446  83.5238025  26.4896753  48.9770310  84.9378252
  13.0283867  46.2615641  70.3723135  12.1215323  45.9648754  70.4485849
  13.3059848  45.9645459  69.5057421  14.6445933  40.8052531  76.5267376
  13.8346661  40.4599616  76.9022622  15.3330350  40.4960075  77.1154988
  16.5736481  39.8830578  78.1491673  17.1267520  40.3026031  78.8081696
  16.8106568  38.9566326  78.1914629  11.7982652  43.1202576  70.5135114
  12.6601816  43.4457475  70.7730932  11.9832996  42.3334072  70.0008180
  19.9515288  41.9931103  77.6570337  19.3713958  42.6515907  77.2748390
  19.6851221  41.1708448  77.2457755  18.4018855  41.3936161  79.8591658
  18.9018633  41.5052695  79.0505976  19.0454463  41.0897213  80.4992466
  18.7340166  44.1531193  76.7126686  17.8466022  44.4380844  76.4946880
  19.1494156  43.9924957  75.8653962  22.0854703  44.1777714  80.4281025
  22.8615093  44.6674167  80.7005642  21.3602837  44.6035768  80.8852894
  24.5227261  44.8905333  81.4854965  25.1171752  44.6501069  80.7748274
  24.5953845  44.1712464  82.1128502  17.8783380  53.9175868  70.8074706
  18.5819230  54.1225870  71.4232361  17.1546029  54.4852630  71.0723789
  18.7081190  49.6685729  76.9276976  18.6516392  50.1254281  76.0884608
  19.2609533  48.9076414  76.7499818  22.5185996  45.4575461  77.7527095
  22.2622930  45.0572097  78.5835303  21.8938864  46.1719255  77.6277234
  26.8298334  48.1971534  80.2598387  26.2697892  48.2664724  81.0329949
  26.2241837  48.0212519  79.5397883  19.7870077  54.3558397  72.8573166
  20.6215681  53.9239596  72.6750640  19.6254420  54.1840411  73.7850060
  19.4415970  50.8590510  74.2229505  19.3864773  50.6934782  73.2817949
  18.8162025  51.5666543  74.3791695  12.7512095  40.3598619  73.8014823
  12.7390765  41.3040459  73.9583094  13.6435517  40.1768765  73.5074284
  16.5664214  36.9541396  78.0560760  15.7996610  36.3999883  78.2017442
  16.9774919  37.0263265  78.9174912  28.4154352  64.8728048  82.9528342
  29.0532762  64.7534796  82.2491682  28.2975195  65.8208892  83.0116294
  26.6630433  70.3461920  74.1901223  26.0118413  70.9316001  73.8035237
  27.4574796  70.8768115  74.2496260  20.5886060  67.4351058  74.5888357
  21.3616936  66.8880045  74.4501233  20.9411459  68.2995307  74.8002819
  22.9252338  63.5943724  72.2206807  23.1777859  63.0725245  71.4590270
  21.9876897  63.4309869  72.3233491  27.9695621  62.5979502  80.0281550
  28.7558710  62.1798925  79.6771967  28.2334325  63.5025594  80.1963199
  28.1405698  68.0352352  74.7270207  27.5051531  68.1086979  75.4391112
  27.8103105  68.6245951  74.0489286  33.3704048  62.5354735  80.9314529
  34.1029220  61.9653952  81.1652358  32.6143404  62.1476336  81.3721034
  22.6448627  65.4971830  74.4231182  22.5284885  64.8216733  75.0912266
  22.7550887  65.0104204  73.6063335  24.9880168  64.9581977  78.1277871
  24.6238375  64.4312598  78.8390793  25.8447284  64.5680446  77.9544357
  30.8929468  56.2476309  85.3909137  30.5612793  57.1171720  85.1670352
  30.2975082  55.9312593  86.0703168  24.6285655  59.9871877  73.1239220
  24.7960057  60.8552113  73.4909691  24.4382824  60.1499158  72.2000509
  30.7858132  60.9671396  82.4702488  29.8775009  60.8986804  82.1761249
  30.7345728  61.4443341  83.2984313  24.6074876  62.4429534  74.1085887
  24.4874501  62.8886585  74.9471367  23.9127464  62.7914852  73.5499425
  32.6519778  59.1687834  84.2480361  32.0094158  59.4620367  83.6020156
  32.1474707  59.0540754  85.0533558  30.3059942  62.9151007  74.9366221
  31.2177798  63.1478394  74.7613918  29.7969589  63.4988051  74.3741299
  27.6495917  59.0909043  83.1856082  26.7880396  59.3890297  83.4772819
  27.6758351  59.3079442  82.2537114  24.4657486  67.6351234  79.5929887
  24.9295832  67.9138937  78.8034510  24.2014284  66.7334678  79.4102978
  23.4026372  63.7574386  76.4019452  24.1050415  64.2095430  76.8693379
  23.0707001  63.1158205  77.0299346  24.6420137  70.5715329  76.4781558
  24.5065811  71.4166864  76.9066405  25.1829949  70.7734606  75.7147491
  27.9912600  54.0945891  85.0080451  27.6476870  54.9847532  84.9319562
  28.3591563  53.9047548  84.1450036  27.9562883  64.0854502  73.5152886
  27.4409506  64.8559106  73.7541274  27.6840191  63.4119638  74.1385948
  25.5409994  58.9304202  78.5738125  24.6851590  58.5411053  78.3943763
  25.9536946  59.0096163  77.7137910  27.0709141  56.4650546  82.9729684
  26.5673936  56.4280681  82.1597490  27.3639747  57.3743288  83.0326341
  23.3152027  56.5489275  81.9795866  24.1805023  56.3532084  81.6201756
  23.3829535  56.3199627  82.9065223  32.9297157  66.8386856  75.4506060
  32.1526600  66.4998016  75.0061222  33.6088638  66.8439480  74.7761025
  27.7449186  61.9581594  75.3412667  27.4399322  62.2727743  76.1922811
  28.6979628  62.0363014  75.3840000  26.1895618  68.1171817  76.9905621
  25.6616980  67.3824577  76.6778859  25.6883121  68.8946493  76.7445590
  20.9214346  58.7791483  79.3512233  21.4958097  58.5566665  78.6185426
  21.5085328  58.8480178  80.1040834  29.9793923  64.6665210  80.1576609
  30.4925805  65.2995202  80.6598319  30.6295147  64.0666406  79.7919969
  21.2483933  60.8095944  73.3708118  20.4121245  61.1470631  73.6917393
  21.1088702  60.6744924  72.4335255  23.2237013  55.6532732  78.0787302
  22.5701426  55.3381749  77.4543917  23.1817487  55.0308473  78.8047125
  24.3348218  65.9352027  69.9940594  23.4275280  65.7041281  70.1931743
  24.8319250  65.1389647  70.1814576  27.2416297  74.6449535  72.9137281
  26.5677996  74.9481231  73.5222238  27.6282119  75.4478615  72.5642738
  26.4574754  62.1414666  82.4034950  25.5397315  62.3629613  82.2456638
  26.8734897  62.2160976  81.5446657  27.2409801  63.5406082  77.5337630
  27.9881620  64.0527479  77.2244752  27.5101391  63.2190134  78.3942024
  25.5136452  66.0364622  74.5164585  24.6047671  65.7523655  74.6137054
  25.5431535  66.4563701  73.6567891  30.7455719  69.6471212  78.2855752
  30.2918046  68.8062122  78.3420943  30.1149686  70.2832610  78.6230532
  29.6888639  60.5763198  79.5156420  28.9511395  60.0640584  79.8466662
  29.9415412  60.1363579  78.7039696  29.1888658  71.4847708  79.2205570
  29.4811633  72.0452766  78.5017936  29.6987279  71.7776269  79.9758729
  29.7900266  53.3539450  80.1098189  30.0959143  52.4936813  79.8224104
  30.5152871  53.9457070  79.9097183  24.0621346  63.6493243  80.6174380
  24.1169955  62.6967079  80.5416856  23.2512548  63.8052682  81.1015678
  25.2112539  67.5773366  71.8552663  24.7731969  66.8609225  71.3958300
  25.9522980  67.8049481  71.2937754  22.0013706  62.2670303  78.3764759
  21.1881571  62.5664473  78.7829951  22.4972700  61.8725991  79.0939241
  33.3285654  65.8530563  77.9128982  33.1903553  66.0432159  76.9850171
  32.9721873  66.6149946  78.3697033  18.5770848  63.2834170  76.1820739
  17.6468436  63.2218626  76.3990701  18.6728320  62.7610123  75.3857380
  18.4956397  59.8088983  78.7698980  18.7563214  60.7234316  78.6608141
  19.3173569  59.3413426  78.9195593  25.4407512  74.8129207  75.1284360
  25.6159268  74.3417250  75.9429982  24.7540300  75.4394973  75.3565620
  29.3323767  66.4357748  71.4484721  28.7152938  65.7104576  71.3517773
  28.8640255  67.1967108  71.1051795  21.1222313  60.6543172  70.5706025
  20.2451779  60.5331973  70.2068272  21.5980066  59.8629250  70.3184914
  27.6182889  58.8164092  80.4602751  28.1151589  58.0634054  80.1403821
  26.8469871  58.8528408  79.8945960  28.7012670  67.5735779  78.0341174
  27.7668948  67.6937241  77.8645879  28.8789338  66.6708246  77.7701184
  24.2017858  60.9581475  80.1874435  23.8315645  60.4052515  80.8755341
  24.6976950  60.3539608  79.6349435  32.0885221  63.4153098  78.5691208
  32.5545673  64.2481090  78.4951511  32.5392722  62.9498080  79.2736467
  30.1561452  69.7596919  75.5677360  30.4321296  69.6453514  76.4771234
  29.2865951  69.3614404  75.5289534  30.0601884  55.7833685  82.6082110
  29.1464964  56.0137912  82.7764317  30.4894985  55.8672129  83.4596142
  27.1257682  72.9351455  76.4725223  27.6545448  72.4243910  75.8595385
  27.3885901  72.6193986  77.3370756  15.8501007  62.2485027  76.0118931
  16.1454448  61.3395706  75.9585984  14.9489043  62.2272767  75.6899933
  17.5788848  59.9299125  76.1358256  17.2501555  59.0496504  75.9533362
  17.9328219  59.8746793  77.0234645  20.6930672  60.2172095  76.5033733
  21.0326744  60.7458016  75.7812342  21.1402792  60.5552501  77.2792300
  24.0390584  55.6858458  84.4064125  24.8616653  55.2118936  84.2843015
  24.2828648  56.4648941  84.9062811  22.6798819  58.7146716  74.7027026
  23.4007181  59.0927969  74.1990743  22.0564123  59.4335593  74.8062004
  26.8229942  59.4191865  75.6385359  27.0393556  60.3016503  75.3374187
  26.3424009  59.0278079  74.9091001  23.4225546  59.3680126  82.2636993
  23.4087115  58.4721220  81.9269291  24.1397974  59.3750790  82.8975279
  25.2751677  59.8017467  84.3090120  25.0169454  60.7234537  84.3074451
  24.7436717  59.4047901  84.9990584  30.2197865  72.9068254  77.0880206
  30.3934743  72.3414676  76.3354058  30.7126757  73.7069149  76.9059695
  22.8262442  58.2494507  77.5324563  22.9478353  57.3211153  77.7315450
  22.5364484  58.2633193  76.6202878  25.6953632  55.9349417  80.6691283
  25.7175329  55.9988750  79.7143262  26.1121691  55.0953926  80.8631789
  36.0737256  65.6704677  78.7070505  36.5168402  64.9212002  78.3089629
  35.1963767  65.6614813  78.3244237  31.2073038  72.2235018  74.1877104
  31.9023942  72.8441711  74.4064418  31.5496188  71.3730369  74.4629482
  33.1064461  69.6734724  75.7164435  33.6315785  70.0121996  74.9913755
  33.0186813  68.7381739  75.5327569  21.7992501  69.8348639  75.6240450
  21.9480621  70.5184104  74.9707123  22.6058944  69.8153729  76.1389906
  19.5545134  65.8613817  76.6301519  19.3091176  64.9576147  76.8281729
  19.7241048  65.8630967  75.6880997  27.2441844  56.7337493  86.0126274
  27.7623787  57.4698520  85.6872763  26.8896976  57.0401487  86.8473034
  18.8240781  61.5942175  74.1287680  18.1310026  61.6686530  73.4727716
  18.5792533  60.8302518  74.6509197  27.4954438  53.1537776  81.5327171
  27.7756191  52.4860965  82.1587598  28.2805045  53.3466871  81.0201835
  25.2987906  72.3296770  73.0952197  24.7261873  72.9486957  72.6422669
  25.8720700  72.8796131  73.6292119  29.3877676  58.6610993  85.4658147
  28.7927608  58.9416006  84.7704636  29.1027372  59.1504894  86.2374888
  28.5185166  72.6133920  74.2260780  29.4515839  72.5479482  74.4293655
  28.4308379  73.4490187  73.7675312  31.1473183  71.9299790  71.1864727
  31.0686814  71.5959654  72.0800485  31.9682849  72.4221558  71.1856200
  25.6834705  63.6657583  70.4368250  26.6293809  63.5363791  70.5056668
  25.3048950  62.9272244  70.9137678  31.6556589  55.3313589  80.3995142
  31.4581410  55.0228677  81.2838474  32.2656295  56.0575227  80.5293072
  23.8677622  61.5907559  70.3723135  22.9609077  61.2940672  70.4485849
  24.1453603  61.2937377  69.5057421  25.4839688  56.1344449  76.5267376
  24.6740416  55.7891534  76.9022622  26.1724105  55.8251992  77.1154988
  27.4130236  55.2122495  78.1491673  27.9661274  55.6317949  78.8081696
  27.6500322  54.2858244  78.1914629  22.6376406  58.4494494  70.5135114
  23.4995570  58.7749392  70.7730932  22.8226751  57.6625990  70.0008180
  30.7909043  57.3223021  77.6570337  30.2107712  57.9807825  77.2748390
  30.5244976  56.5000365  77.2457755  29.2412609  56.7228078  79.8591658
  29.7412388  56.8344613  79.0505976  29.8848217  56.4189131  80.4992466
  29.5733921  59.4823111  76.7126686  28.6859776  59.7672762  76.4946880
  29.9887910  59.3216874  75.8653962  32.9248457  59.5069632  80.4281025
  33.7008847  59.9966084  80.7005642  32.1996591  59.9327686  80.8852894
  35.3621016  60.2197251  81.4854965  35.9565507  59.9792987  80.7748274
  35.4347599  59.5004382  82.1128502  28.7177134  69.2467786  70.8074706
  29.4212985  69.4517788  71.4232361  27.9939783  69.8144548  71.0723789
  29.5474945  64.9977647  76.9276976  29.4910146  65.4546198  76.0884608
  30.1003287  64.2368331  76.7499818  33.3579751  60.7867379  77.7527095
  33.1016685  60.3864014  78.5835303  32.7332619  61.5011173  77.6277234
  37.6692088  63.5263452  80.2598387  37.1091646  63.5956641  81.0329949
  37.0635592  63.3504437  79.5397883  30.6263832  69.6850315  72.8573166
  31.4609436  69.2531513  72.6750640  30.4648175  69.5132329  73.7850060
  30.2809724  66.1882428  74.2229505  30.2258528  66.0226700  73.2817949
  29.6555779  66.8958461  74.3791695  23.5905850  55.6890537  73.8014823
  23.5784519  56.6332377  73.9583094  24.4829271  55.5060683  73.5074284
  27.4057969  52.2833314  78.0560760  26.6390365  51.7291800  78.2017442
  27.8168674  52.3555183  78.9174912  33.7646093  78.9235641  72.2206807
  34.0171613  78.4017163  71.4590270  32.8270652  78.7601787  72.3233491
  35.4679409  75.3163794  73.1239220  35.6353812  76.1844031  73.4909691
  35.2776578  75.4791076  72.2000509  32.0877687  76.1387862  73.3708118
  31.2514999  76.4762549  73.6917393  31.9482457  76.0036842  72.4335255
  34.0630768  70.9824650  78.0787302  33.4095180  70.6673667  77.4543917
  34.0211242  70.3600390  78.8047125  35.1741973  81.2643945  69.9940594
  34.2669034  81.0333199  70.1931743  35.6713005  80.4681564  70.1814576
  29.4164602  78.6126088  76.1820739  28.4862190  78.5510543  76.3990701
  29.5122074  78.0902041  75.3857380  31.9616067  75.9835090  70.5706025
  31.0845534  75.8623890  70.2068272  32.4373820  75.1921168  70.3184914
  26.6894761  77.5776945  76.0118931  26.9848202  76.6687623  75.9585984
  25.7882797  77.5564684  75.6899933  28.4182603  75.2591042  76.1358256
  28.0895309  74.3788421  75.9533362  28.7721974  75.2038711  77.0234645
  33.5192573  74.0438634  74.7027026  34.2400936  74.4219887  74.1990743
  32.8957877  74.7627511  74.8062004  33.6656196  73.5786424  77.5324563
  33.7872107  72.6503070  77.7315450  33.3758239  73.5925110  76.6202878
  29.6634536  76.9234092  74.1287680  28.9703781  76.9978447  73.4727716
  29.4186288  76.1594436  74.6509197  36.5228459  78.9949500  70.4368250
  37.4687564  78.8655708  70.5056668  36.1442704  78.2564162  70.9137678
  34.7071376  76.9199477  70.3723135  33.8002832  76.6232589  70.4485849
  34.9847357  76.6229295  69.5057421  36.3233442  71.4636366  76.5267376
  35.5134170  71.1183451  76.9022622  37.0117859  71.1543910  77.1154988
  33.4770161  73.7786412  70.5135114  34.3389325  74.1041310  70.7730932
  33.6620505  72.9917908  70.0008180  34.4299604  71.0182455  73.8014823
  34.4178274  71.9624295  73.9583094  35.3223026  70.8352600  73.5074284
  38.2451723  67.6125231  78.0560760  37.4784119  67.0583718  78.2017442
  38.6562428  67.6847100  78.9174912   4.9842925  16.6940208  60.9146530
   4.3330905  17.2794288  60.5280543   5.7787288  17.2246403  60.9741567
  11.2509649  13.1865144  62.1751366  10.4739092  12.8476303  61.7306528
  11.9301130  13.1917767  61.5006331   2.6560710  12.2830315  56.7185901
   1.7487772  12.0519568  56.9177050   3.1531742  11.4867934  56.9059883
   5.5628789  20.9927822  59.6382587   4.8890488  21.2959519  60.2467545
   5.9494611  21.7956902  59.2888044   3.5325032  13.9251653  58.5797970
   3.0944462  13.2087512  58.1203607   4.2735473  14.1527768  58.0183061
   3.7620004  21.1607494  61.8529666   3.9371760  20.6895537  62.6675289
   3.0752792  21.7873260  62.0810927   7.6536259  12.7836035  58.1730027
   7.0365430  12.0582863  58.0763080   7.1852748  13.5445395  57.8297102
   8.4773944  16.1075207  62.2922667   8.7533788  15.9931801  63.2016541
   7.6078443  15.7092692  62.2534840   5.4470174  19.2829743  63.1970529
   5.9757940  18.7722197  62.5840691   5.7098394  18.9672273  64.0616062
   8.5410358  19.2546541  63.8125512   8.7147235  18.6892963  63.0599365
   9.0339249  20.0547436  63.6305002   9.5285530  18.5713305  60.9122410
  10.2236435  19.1919998  61.1309725   9.8708680  17.7208657  61.1874788
  11.4276953  16.0213011  62.4409741  11.9528277  16.3600284  61.7159061
  11.3399306  15.0860026  62.2572876   3.6200398  18.6775057  59.8197504
   3.0474366  19.2965244  59.3667976   4.1933192  19.2274419  60.3537426
   6.8397658  18.9612207  60.9506086   7.7728331  18.8957769  61.1538962
   6.7520871  19.7968474  60.4920619   9.4685675  18.2778077  57.9110034
   9.3899306  17.9437941  58.8045792  10.2895342  18.7699845  57.9101506
   7.0389627  15.5946073  57.5320012   7.7425477  15.7996075  58.1477668
   6.3152275  16.1622835  57.7969096   8.9476324  16.0328602  59.5818472
   9.7821928  15.6009801  59.3995947   8.7860667  15.8610616  60.5095367
   8.6022216  12.5360715  60.9474812   8.5471020  12.3704987  60.0063256
   7.9768272  13.2436748  61.1037001  17.5760599  26.5498253  69.6773649
  18.2139009  26.4305001  68.9736989  17.4581442  27.4979097  69.7361601
  14.3850306  26.5025681  69.6135174  14.0468817  26.3866746  68.7255709
  15.2540074  26.1016846  69.5936180  10.2437121  28.3561158  65.6032065
   9.6801986  28.2651095  64.8348352  10.1289516  27.5361062  66.0834557
   7.7901553  29.8512349  68.4416285   8.5822845  29.5103174  68.0262584
   8.0298203  29.9607324  69.3618438  15.8236680  32.0232125  60.9146530
  15.1724660  32.6086206  60.5280543  16.6181043  32.5538320  60.9741567
   9.7492307  29.1121263  61.3133664  10.5223183  28.5650250  61.1746540
  10.1017706  29.9765512  61.5248125  12.5133556  27.8174493  71.1101923
  13.1097129  27.5930516  70.3958886  12.5708528  27.0759239  71.7127371
  12.0858585  25.2713929  58.9452114  12.3384106  24.7495450  58.1835577
  11.1483144  25.1080074  59.0478797  17.1301868  24.2749707  66.7526857
  17.9164957  23.8569130  66.4017274  17.3940572  25.1795799  66.9208505
  17.3011945  29.7122557  61.4515514  16.6657778  29.7857184  62.1636418
  16.9709351  30.3016156  60.7734593  22.5310295  24.2124940  67.6559836
  23.2635467  23.6424157  67.8897665  21.7749651  23.8246541  68.0966341
  11.8054874  27.1742035  61.1476489  11.6891132  26.4986938  61.8157573
  11.9157134  26.6874409  60.3308642  14.1486415  26.6352182  64.8523178
  13.7844622  26.1082803  65.5636099  15.0053530  26.2450651  64.6789663
  13.7891902  21.6642081  59.8484527  13.9566304  22.5322318  60.2154998
  13.5989071  21.8269363  58.9245816  16.5467235  30.1259060  71.5150357
  16.2467958  31.0284099  71.4066164  16.2018294  29.8591244  72.3671510
   9.9979716  26.5772857  67.5487061   9.0730213  26.4449071  67.7564753
  10.2464129  27.3567076  68.0457004  19.9464379  22.6441601  69.1947794
  19.0381256  22.5757009  68.9006555  19.8951974  23.1213545  70.0229620
  13.7681122  24.1199739  60.8331193  13.6480748  24.5656790  61.6716674
  13.0733711  24.4685057  60.2744731   7.3588527  26.2206131  68.3830850
   7.4880908  26.4740610  69.2970262   6.6785979  26.8133839  68.0635505
  11.5288015  36.8903381  64.4821325  11.4512044  37.8411206  64.5609805
  10.9249658  36.5449253  65.1396251  21.8126025  20.8458039  70.9725668
  21.1700405  21.1390572  70.3265463  21.3080953  20.7310959  71.7778865
  19.4666189  24.5921212  61.6611527  20.3784045  24.8248599  61.4859225
  18.9575836  25.1758256  61.0986606  18.0735771  29.5747031  69.0525109
  17.4444633  29.7392745  68.3501177  17.6861433  29.9888640  69.8236073
  21.9525003  30.5101468  66.4069473  21.2676041  30.8900370  65.8566506
  22.0368852  31.1196795  67.1401420  19.2075934  28.1561427  73.0064816
  19.4192830  28.7993187  72.3299197  19.1605683  27.3223744  72.5386746
  13.6263733  29.3121439  66.3175194  14.0902078  29.5909142  65.5279816
  13.3620531  28.4104883  66.1348285  10.5187814  28.8592920  69.2554957
  11.0889171  29.2880189  68.6172442  11.1095926  28.5775505  69.9539143
  12.5632619  25.4344591  63.1264759  13.2656662  25.8865635  63.5938685
  12.2313247  24.7928410  63.7544652  20.3221762  31.0333383  71.1787173
  21.1439206  30.6313570  70.8969855  20.3184165  30.9301617  72.1303289
   8.2572698  24.0572723  65.3865369   7.4603861  24.1691417  65.9048865
   8.0298290  24.3959375  64.5206260  14.0878366  30.5817426  73.3347884
  14.1522798  31.0437833  74.1706056  13.3789290  29.9514791  73.4630194
  28.4127755  27.3772131  67.5272145  27.6591464  26.8079529  67.3716149
  28.5475297  27.3434796  68.4742780  13.8026383  32.2485534  63.2026864
  13.6672058  33.0937069  63.6311712  14.3436196  32.4504811  62.4392798
   7.2555781  29.7660972  63.7754789   7.7680301  30.5604222  63.9260354
   7.9078494  29.0687262  63.7088391   9.0650666  32.8826728  65.8577543
   9.2417294  33.8044693  65.6698526   9.8607499  32.5685147  66.2871922
  10.1881981  34.4004902  71.8587885  10.7389406  34.2721965  71.0864879
   9.3493457  34.6999791  71.5082778  17.5276098  33.1511900  75.3608608
  17.5094573  33.9720781  74.8688877  18.4496018  33.0265975  75.5858749
   5.2204698  28.0949626  64.5514360   6.0579920  28.5046634  64.3348068
   5.3982965  27.1549068  64.5214554  17.1169130  25.7624707  60.2398193
  16.6015753  26.5329311  60.4786580  16.8446438  25.0889843  60.8631254
  14.7016241  20.6074407  65.2983431  13.8457837  20.2181258  65.1189070
  15.1143193  20.6866368  64.4383217  22.0903404  28.5157061  62.1751366
  21.3132847  28.1768221  61.7306528  22.7694885  28.5209684  61.5006331
  16.9055433  23.6351799  62.0657974  16.6005568  23.9497948  62.9168117
  17.8585875  23.7133219  62.1085307  15.3501865  29.7942022  63.7150928
  14.8223226  29.0594782  63.4024165  14.8489367  30.5716698  63.4690896
  20.3294711  27.9891043  68.8317974  19.6718385  28.6790304  68.9198103
  21.1335110  28.3787474  69.1751961  10.0820592  20.4561688  66.0757540
  10.6564344  20.2336870  65.3430732  10.6691575  20.5250383  66.8286141
  19.1400170  26.3435415  66.8821916  19.6532051  26.9765407  67.3843626
  19.7901393  25.7436611  66.5165276  10.4090179  22.4866149  60.0953425
   9.5727492  22.8240836  60.4162700  10.2694949  22.3515129  59.1580562
  12.3843260  17.3302937  64.8032609  11.7307672  17.0151954  64.1789224
  12.3423734  16.7078678  65.5292432  13.4954465  27.6122232  56.7185901
  12.5881527  27.3811486  56.9177050  13.9925497  26.8159852  56.9059883
  16.4022544  36.3219740  59.6382587  15.7284243  36.6251436  60.2467545
  16.7888366  37.1248820  59.2888044  15.6181000  23.8184871  69.1280257
  14.7003562  24.0399818  68.9701945  16.0341144  23.8931181  68.2691964
  16.4016048  25.2176286  64.2582937  17.1487867  25.7297684  63.9490059
  16.6707638  24.8960339  65.1187330  14.6742698  27.7134827  61.2409891
  13.7653918  27.4293860  61.3382361  14.7037782  28.1333906  60.3813198
  19.9061966  31.3241417  65.0101059  19.4524293  30.4832327  65.0666249
  19.2755932  31.9602815  65.3475839  18.8494885  22.2533403  66.2401726
  18.1117642  21.7410789  66.5711969  19.1021659  21.8133784  65.4285003
  18.3494905  33.1617913  65.9450877  18.6417879  33.7222970  65.2263242
  18.8593526  33.4546474  66.7004036  18.9506513  15.0309655  66.8343495
  19.2565389  14.1707018  66.5469411  19.6759117  15.6227275  66.6342489
   5.2430869  25.4340341  65.2225093   5.0455269  24.8409702  64.4976160
   4.6877533  25.1292551  65.9401032  13.2227592  25.3263448  67.3419687
  13.2776202  24.3737284  67.2662163  12.4118794  25.4822887  67.8260985
  14.3718786  29.2543571  58.5797970  13.9338216  28.5379430  58.1203607
  15.1129227  29.4819686  58.0183061  11.1619952  23.9440508  65.1010065
  10.3487818  24.2434678  65.5075258  11.6578947  23.5496196  65.8184548
  13.3128530  33.9398264  67.0344330  13.2704709  34.1659111  66.1052862
  14.2291229  33.7061639  67.1830131  22.4891901  27.5300768  64.6374288
  22.3509800  27.7202364  63.7095478  22.1328120  28.2920151  65.0942339
  22.5161281  29.5977295  69.6485560  22.9497787  29.5052584  70.4968614
  23.2292861  29.5734795  69.0105576  11.4294331  30.8161293  66.8306293
  12.2234929  30.3211614  66.6288868  10.7186023  30.2879157  66.4673998
  16.2489175  33.1979389  71.1818660  16.3026198  33.7670325  71.9496376
  15.3803957  33.3681274  70.8172698   7.7377094  24.9604375  62.9066045
   6.8074683  24.8988831  63.1236008   7.8334566  24.4380328  62.1102687
   7.6562643  21.4859188  65.4944287   7.9169461  22.4004521  65.3853448
   8.4779816  21.0183631  65.6440900  23.3776830  29.6400996  72.1818445
  23.5712720  30.5446806  72.4277720  23.2777448  29.1808415  73.0157030
  15.2077275  27.3639651  72.7405592  16.1369335  27.5150811  72.5674560
  14.7868305  27.4523672  71.8854239  14.0065607  31.3890315  70.5104130
  13.8676693  31.0209100  71.3830068  13.2180203  31.9037955  70.3388088
  14.6013759  36.4899412  61.8529666  14.7765515  36.0187455  62.6675289
  13.9146547  37.1165178  62.0810927  15.5570822  30.7671918  67.8992968
  15.2220655  30.7272688  68.7950618  15.0574768  30.1016634  67.4263378
  18.4930014  28.1127952  58.1730027  17.8759184  27.3874781  58.0763080
  18.0246502  28.8737313  57.8297102  20.1484145  32.8226861  75.8335808
  20.0896692  32.1386081  75.1666391  20.5503664  33.5645851  75.3816434
   9.1674844  39.6388775  68.6269527   9.4071442  40.2707299  69.3048545
   8.3244041  39.2876815  68.9134886  10.2828560  22.3313377  57.2951332
   9.4058026  22.2102178  56.9313578  10.7586313  21.5399455  57.0430220
  20.1501553  30.7866445  74.0649787  19.2628331  30.4492367  74.1876186
  20.7200104  30.0549476  74.3018553   1.8030700  27.1190537  67.3892839
   2.4901740  26.8052267  66.8013854   1.6478829  28.0231901  67.1160090
  13.6802706  35.4467897  71.0311031  13.6072878  36.2522869  71.5430335
  13.2380099  35.6459863  70.2059052  13.4692486  34.6839667  64.5413852
  12.6860008  35.2261347  64.6352077  14.1685231  35.2013647  64.9408093
  16.7789136  20.4934297  67.1848057  17.2757835  19.7404259  66.8649128
  16.0076117  20.5298613  66.6191267  24.6318893  26.1974662  68.8266349
  24.6208769  27.0799378  68.4560282  23.7636273  25.8446213  68.6320886
  16.1401390  35.3454731  73.1869189  16.8529362  35.9802196  73.1145091
  15.6491418  35.4418597  72.3709191  17.8618917  29.2505984  64.7586481
  16.9275195  29.3707446  64.5891185  18.0395585  28.3478451  64.4946491
  13.3624105  22.6351680  66.9119742  12.9921892  22.0822720  67.6000648
  13.8583197  22.0309813  66.3594742  21.2491468  25.0923303  65.2936515
  21.7151920  25.9251295  65.2196818  21.6998968  24.6268285  65.9981774
  11.1913303  33.0949175  74.0074760  11.8922763  33.7285658  74.1604154
  10.7208418  33.4363906  73.2470399  19.3167699  31.4367124  62.2922667
  19.5927543  31.3223719  63.2016541  18.4472198  31.0384609  62.2534840
  18.9914589  25.6493782  71.8327310  18.3386039  25.8969690  71.1779763
  19.3694969  24.8357920  71.4989788  15.9521763  35.6853475  65.9355481
  16.1344158  34.8675131  66.3983233  16.7754749  35.9021168  65.4980371
  16.2863928  34.6121660  63.1970529  16.8151695  34.1014115  62.5840691
  16.5492148  34.2964191  64.0616062   6.7881021  32.6285530  70.9405863
   7.3734458  31.8829218  71.0733767   6.5905860  32.9389486  71.8242527
   9.6419676  35.6636777  65.9568305   8.9730052  36.1482905  65.4732345
   9.5032546  35.9105998  66.8711684  13.7824945  37.6980521  72.5550963
  14.3343253  37.8612142  73.3200049  14.1231138  38.2884958  71.8830988
   5.0107254  23.9255232  62.7364237   5.3060695  23.0165910  62.6831291
   4.1095289  23.9042971  62.4145240  16.9193332  35.6462496  69.5414646
  16.7944472  34.8452236  69.0325591  17.5772423  36.1408689  69.0528616
  18.9828241  33.4471516  71.1694196  18.0358576  33.3276867  71.0972522
  19.3311014  32.5594014  71.2520457   6.7395095  21.6069330  62.8603562
   6.4107801  20.7266709  62.6778668   7.0934466  21.5516998  63.7479952
  15.9874674  33.2424232  67.3698548  15.8399636  32.3140940  67.5506118
  16.8128167  33.2644323  66.8855623   9.8536918  21.8942299  63.2279040
  10.1932991  22.4228221  62.5057648  10.3009039  22.2322706  64.0037607
  19.5908796  34.0652791  68.4563421  20.5155343  33.8595652  68.3187872
  19.4224099  33.8169192  69.3652762  11.8405065  20.3916921  61.4272333
  12.5613428  20.7698174  60.9236050  11.2170370  21.1105798  61.5307311
  15.9836188  21.0962070  62.3630665  16.1999803  21.9786708  62.0619493
  15.5030255  20.7048283  61.6336307  19.3804112  34.5838459  63.8125512
  19.5540990  34.0184881  63.0599365  19.8733003  35.3839353  63.6305002
  11.9868688  19.9264712  64.2569869  12.1084600  18.9981358  64.4560757
  11.6970731  19.9403398  63.3448185  25.2343503  27.3474882  65.4315812
  25.6774649  26.5982207  65.0334935  24.3570013  27.3385018  65.0489544
  20.3679285  33.9005223  60.9122410  21.0630189  34.5211916  61.1309725
  20.7102435  33.0500574  61.1874788  22.2670708  31.3504929  62.4409741
  22.7922032  31.6892201  61.7159061  22.1793060  30.4151944  62.2572876
  13.9290756  35.2639002  74.5699618  14.2377883  35.0188149  75.4422317
  14.7266238  35.4685641  74.0818488  13.9511368  37.4176912  66.8004994
  13.5116359  36.9253291  67.4937851  14.7019485  36.8749879  66.5597070
   6.4303707  33.6088453  66.8029622   7.2561727  33.3092225  66.4228266
   6.0797759  32.8396075  67.2519411  11.3985241  32.9614921  68.8727296
  10.7765250  32.2985626  68.5729524  12.0690107  32.9876053  68.1900944
   4.6312312  31.5274779  67.7618556   3.7944221  31.0996953  67.5802557
   4.6035958  31.7207222  68.6989347  21.9564614  31.9837832  77.7460939
  21.1660157  31.9661971  77.2065439  21.7197968  32.5226126  78.5009976
  22.0762489  28.8330299  75.0593668  22.1260494  28.6680306  76.0009190
  21.9676412  27.9657558  74.6691548  10.9598747  31.5118844  62.3485757
  11.1086868  32.1954309  61.6952429  11.7665191  31.4923934  62.8635212
  23.5780686  31.2527240  75.3035689  23.2865494  31.6157221  76.1399150
  22.9652817  30.5394248  75.1249021  24.7776368  28.8180120  67.8238259
  25.6123259  29.2569924  67.9875820  24.9135497  28.3418773  67.0046505
  21.8267874  26.3759855  73.7715747  22.3021995  26.5687501  72.9634599
  20.9033439  26.4319041  73.5259131   8.7151380  27.5384022  63.3546825
   8.4697422  26.6346352  63.5527036   8.8847295  27.5401172  62.4126303
   7.9847028  23.2712379  60.8532987   7.2916273  23.3456734  60.1973023
   7.7398780  22.5072723  61.3754504  14.4594153  34.0066975  59.8197504
  13.8868120  34.6257162  59.3667976  15.0326947  34.5566336  60.3537426
  20.5269543  23.2525615  72.0044053  21.4786966  23.3523712  72.0256277
  20.3572993  22.4603883  72.5142137  17.6791413  34.2904125  60.9506086
  18.6122086  34.2249686  61.1538962  17.5914626  35.1260392  60.4920619
  20.3079429  33.6069995  57.9110034  20.2293061  33.2729859  58.8045792
  21.1289096  34.0991763  57.9101506  23.0057621  26.4731734  71.1186352
  22.9733941  25.5347735  71.3046036  23.6158244  26.5515771  70.3852177
  14.8440951  25.3427787  57.1613557  15.7900056  25.2133996  57.2301975
  14.4655196  24.6042449  57.6382985  23.1552109  23.2642778  71.1644636
  22.6391158  22.4801235  70.9774565  24.0392058  22.9361495  71.3291155
  20.8162836  17.0083793  67.1240448  20.6187657  16.6998882  68.0083780
  21.4262542  17.7345432  67.2538378  28.8234170  27.5347741  70.2592389
  29.5537559  27.2733029  70.8200093  28.2141116  26.7976463  70.2994457
  26.9049468  25.6755604  70.8566840  26.1782631  25.5411569  70.2483332
  26.4896754  25.9832433  71.6623558  13.0283869  23.2677764  57.0968442
  12.1215324  22.9710877  57.1731155  13.3059850  22.9707582  56.2302728
  14.6445934  17.8114654  63.2512683  13.8346663  17.4661739  63.6267929
  15.3330351  17.5022197  63.8400295  16.5736483  16.8892700  64.8736980
  17.1267521  17.3088154  65.5327003  16.8106569  15.9628448  64.9159936
  11.7982653  20.1264699  57.2380421  12.6601817  20.4519597  57.4976238
  11.9832997  19.3396195  56.7253487  19.9515290  18.9993226  64.3815644
  19.3713959  19.6578030  63.9993696  19.6851222  18.1770570  63.9703061
  18.4018856  18.3998283  66.5836964  18.9018634  18.5114818  65.7751283
  19.0454464  18.0959336  67.2237773   5.7286812  28.1405293  67.3926625
   5.7057500  28.2392980  66.4408508   6.0387448  28.9870443  67.7143791
  18.7340168  21.1593316  63.4371992  17.8466023  21.4442967  63.2192187
  19.1494157  20.9987079  62.5899269  22.0854704  21.1839837  67.1526331
  22.8615094  21.6736289  67.4250948  21.3602838  21.6097891  67.6098201
  24.5227263  21.8967456  68.2100272  25.1171753  21.6563192  67.4993580
  24.5953846  21.1774587  68.8373808   6.7424418  35.7401067  68.5243437
   6.6078886  34.9801468  67.9581435   6.3256480  36.4641967  68.0572226
  17.8783381  30.9237991  57.5320012  18.5819231  31.1287993  58.1477668
  17.1546030  31.4914752  57.7969096  18.7081191  26.6747852  63.6522282
  18.6516393  27.1316403  62.8129915  19.2609534  25.9138536  63.4745125
  22.5185997  22.4637584  64.4772402  22.2622932  22.0634219  65.3080610
  21.8938865  23.1781378  64.3522541  26.8298335  25.2033657  66.9843693
  26.2697893  25.2726846  67.7575255  26.2241839  25.0274642  66.2643189
   9.8993544  36.6370384  68.7361880   9.7825928  37.5815817  68.6340570
   9.0785990  36.3343946  69.1247679  19.7870079  31.3620520  59.5818472
  20.6215683  30.9301718  59.3995947  19.6254422  31.1902533  60.5095367
  19.4415971  27.8652633  60.9474812  19.3864775  27.6996904  60.0063256
  18.8162026  28.5728666  61.1037001  12.7512096  17.3660742  60.5260130
  12.7390766  18.3102582  60.6828401  13.6435518  17.1830887  60.2319591
  10.9248058  37.2898646  71.9517808  11.8275305  37.3222256  72.2684303
  10.6985428  36.3599097  71.9664144  12.6801660  36.0429632  68.6127887
  11.7297291  36.0431494  68.4992259  12.9834146  35.2962367  68.0963921
  16.5664216  13.9603519  64.7806067  15.7996612  13.4062005  64.9262749
  16.9774921  14.0325387  65.6420218  28.4154354  41.8790171  69.6773649
  29.0532764  41.7596918  68.9736989  28.2975197  42.8271015  69.7361601
  25.2244060  41.8317599  69.6135174  24.8862572  41.7158664  68.7255709
  26.0933828  41.4308764  69.5936180  21.0830876  43.6853075  65.6032065
  20.5195741  43.5943012  64.8348352  20.9683271  42.8652980  66.0834557
  25.7063843  42.9852451  75.5721379  25.6952484  42.5905249  74.7001883
  25.8684482  42.2518523  76.1655151  18.6295308  45.1804267  68.4416285
  19.4216600  44.8395092  68.0262584  18.8691958  45.2899242  69.3618438
  26.6630434  47.3524043  60.9146530  26.0118414  47.9378124  60.5280543
  27.4574797  47.8830238  60.9741567  20.5886062  44.4413180  61.3133664
  21.3616938  43.8942167  61.1746540  20.9411460  45.3057430  61.5248125
  22.4271104  45.7689563  74.5200563  22.1360970  46.6735193  74.4047229
  23.0628088  45.8106090  75.2344633  23.3527311  43.1466411  71.1101923
  23.9490883  42.9222433  70.3958886  23.4102283  42.4051157  71.7127371
  22.9252339  40.6005846  58.9452114  23.1777860  40.0787368  58.1835577
  21.9876898  40.4371992  59.0478797  27.9695622  39.6041625  66.7526857
  28.7558711  39.1861048  66.4017274  28.2334327  40.5087717  66.9208505
  28.1405700  45.0414475  61.4515514  27.5051533  45.1149102  62.1636418
  27.8103106  45.6308074  60.7734593  33.3704049  39.5416858  67.6559836
  34.1029221  38.9716075  67.8897665  32.6143405  39.1538458  68.0966341
  22.6448628  42.5033952  61.1476489  22.5284886  41.8278856  61.8157573
  22.7550888  42.0166326  60.3308642  24.9880169  41.9644099  64.8523178
  24.6238376  41.4374720  65.5636099  25.8447285  41.5742568  64.6789663
  30.8929470  33.2538432  72.1154444  30.5612794  34.1233843  71.8915659
  30.2975083  32.9374716  72.7948475  27.3860989  45.4550978  71.5150357
  27.0861712  46.3576017  71.4066164  27.0412049  45.1883161  72.3671510
  20.8373471  41.9064775  67.5487061  19.9123967  41.7740989  67.7564753
  21.0857884  42.6858994  68.0457004  30.7858133  37.9733518  69.1947794
  29.8775010  37.9048927  68.9006555  30.7345729  38.4505463  70.0229620
  24.6074877  39.4491657  60.8331193  24.4874502  39.8948707  61.6716674
  23.9127465  39.7976974  60.2744731  18.1982282  41.5498048  68.3830850
  18.3274663  41.8032527  69.2970262  17.5179733  42.1425756  68.0635505
  22.3681769  52.2195298  64.4821325  22.2905799  53.1703123  64.5609805
  21.7643413  51.8741171  65.1396251  24.8598999  39.3923164  77.1382691
  24.0832333  39.9517084  77.1285556  25.4989562  39.8779947  77.6597562
  32.6519779  36.1749957  70.9725668  32.0094160  36.4682490  70.3265463
  32.1474708  36.0602877  71.7778865  23.1145371  42.2008617  76.7000658
  23.8560055  42.7393661  76.4235482  22.4082357  42.8274906  76.8572210
  28.5900711  44.3437758  75.2972820  28.9984067  43.9020168  74.5527452
  27.8677972  43.7690385  75.5507013  24.9431781  39.2810364  72.6706377
  25.7892976  39.7049778  72.8141026  24.8830418  38.6243989  73.3644940
  28.9129525  44.9038948  69.0525109  28.2838388  45.0684662  68.3501177
  28.5255187  45.3180558  69.8236073  32.7918757  45.8393386  66.4069473
  32.1069795  46.2192287  65.8566506  32.8762607  46.4488713  67.1401420
  28.0931226  36.9414733  74.3287551  27.8492158  37.6956793  73.7921826
  28.3691157  37.3200080  75.1634798  30.0469689  43.4853345  73.0064816
  30.2586584  44.1285105  72.3299197  29.9999437  42.6515662  72.5386746
  27.6495918  36.0971166  69.9101388  26.7880397  36.3952419  70.2018126
  27.6758352  36.3141565  68.9782421  24.4657487  44.6413356  66.3175194
  24.9295833  44.9201059  65.5279816  24.2014285  43.7396801  66.1348285
  21.3581568  44.1884838  69.2554957  21.9282925  44.6172106  68.6172442
  21.9489680  43.9067423  69.9539143  23.4026373  40.7636509  63.1264759
  24.1050417  41.2157552  63.5938685  23.0707002  40.1220328  63.7544652
  21.8506735  39.3548265  77.5015968  21.2205395  40.0364546  77.7351365
  21.7442823  39.2431347  76.5569107  17.1451707  39.0220061  68.4281893
  16.3550761  39.2777590  67.9522003  17.6362955  39.8368399  68.5333933
  31.1615517  46.3625301  71.1787173  31.9832961  45.9605488  70.8969855
  31.1577920  46.2593535  72.1303289  19.0966453  39.3864641  65.3865369
  18.2997616  39.4983335  65.9048865  18.8692045  39.7251293  64.5206260
  24.9272120  45.9109344  73.3347884  24.9916553  46.3729751  74.1706056
  24.2183044  45.2806709  73.4630194  15.4289410  39.2750552  70.8596883
  15.6797449  40.1597562  71.1254459  15.9648959  39.0955153  70.0871975
  39.2521510  42.7064049  67.5272145  38.4985218  42.1371447  67.3716149
  39.3869051  42.6726714  68.4742780  24.6420138  47.5777451  63.2026864
  24.5065813  48.4228987  63.6311712  25.1829950  47.7796729  62.4392798
  18.0949535  45.0952889  63.7754789  18.6074056  45.8896140  63.9260354
  18.7472248  44.3979180  63.7088391  19.9044420  48.2118646  65.8577543
  20.0811048  49.1336610  65.6698526  20.7001254  47.8977065  66.2871922
  24.0455439  35.0726910  77.4561476  24.7865152  35.6734063  77.3765939
  24.2773361  34.3304548  76.8979519  19.1896777  40.2583278  75.7339706
  19.0750292  39.3568535  76.0346805  18.3341294  40.5046974  75.3824522
  26.2688614  48.2001018  77.3327206  25.8252468  47.4137396  77.0148111
  26.9305828  48.3880168  76.6671097  21.0275735  49.7296819  71.8587885
  21.5783161  49.6013883  71.0864879  20.1887211  50.0291708  71.5082778
  28.3669852  48.4803818  75.3608608  28.3488328  49.3012699  74.8688877
  29.2889772  48.3557893  75.5858749  24.8242907  45.9947947  76.2032116
  25.3571243  45.2336235  75.9731424  24.2956988  45.7021599  76.9456270
  27.9912601  31.1008013  71.7325758  27.6476871  31.9909655  71.6564868
  28.3591564  30.9109671  70.8695343  16.0598452  43.4241544  64.5514360
  16.8973674  43.8338552  64.3348068  16.2376720  42.4840986  64.5214554
  25.5409995  35.9366325  65.2983431  24.6851592  35.5473175  65.1189070
  25.9536947  36.0158286  64.4383217  27.0709142  33.4712668  69.6974991
  26.5673937  33.4342804  68.8842796  27.3639749  34.3805411  69.7571648
  23.3152028  33.5551398  68.7041173  24.1805025  33.3594207  68.3447062
  23.3829537  33.3261750  69.6310529  32.9297158  43.8448979  62.1751366
  32.1526601  43.5060138  61.7306528  33.6088639  43.8501602  61.5006331
  26.1895619  45.1233940  63.7150928  25.6616981  44.3886699  63.4024165
  25.6883122  45.9008616  63.4690896  31.1688465  43.3182960  68.8317974
  30.5112140  44.0082222  68.9198103  31.9728864  43.7079392  69.1751961
  20.9214347  35.7853606  66.0757540  21.4958099  35.5628787  65.3430732
  21.5085329  35.8542301  66.8286141  29.9793924  41.6727333  66.8821916
  30.4925806  42.3057325  67.3843626  30.6295148  41.0728528  66.5165276
  21.2483934  37.8158067  60.0953425  20.4121246  38.1532754  60.4162700
  21.1088704  37.6807047  59.1580562  23.2237015  32.6594855  64.8032609
  22.5701427  32.3443872  64.1789224  23.1817489  32.0370595  65.5292432
  24.3348219  42.9414150  56.7185901  23.4275281  42.7103403  56.9177050
  24.8319251  42.1451769  56.9059883  27.2416298  51.6511657  59.6382587
  26.5677997  51.9543354  60.2467545  27.6282120  52.4540738  59.2888044
  26.4574755  39.1476788  69.1280257  25.5397316  39.3691735  68.9701945
  26.8734899  39.2223099  68.2691964  27.2409803  40.5468204  64.2582937
  27.9881622  41.0589601  63.9490059  27.5101392  40.2252257  65.1187330
  25.5136453  43.0426745  61.2409891  24.6047672  42.7585778  61.3382361
  25.5431537  43.4625823  60.3813198  30.7455720  46.6533334  65.0101059
  30.2918047  45.8124244  65.0666249  30.1149687  47.2894733  65.3475839
  29.6888640  37.5825320  66.2401726  28.9511397  37.0702707  66.5711969
  29.9415413  37.1425702  65.4285003  29.1888660  48.4909831  65.9450877
  29.4811634  49.0514888  65.2263242  29.6987280  48.7838392  66.7004036
  16.0824623  40.7632259  65.2225093  15.8849023  40.1701620  64.4976160
  15.5271287  40.4584469  65.9401032  24.0621347  40.6555365  67.3419687
  24.1169957  39.7029202  67.2662163  23.2512549  40.8114805  67.8260985
  25.2112541  44.5835489  58.5797970  24.7731971  43.8671347  58.1203607
  25.9522982  44.8111603  58.0183061  22.0013707  39.2732425  65.1010065
  21.1881572  39.5726596  65.5075258  22.4972701  38.8788114  65.8184548
  24.1522285  49.2690182  67.0344330  24.1098463  49.4951028  66.1052862
  25.0684984  49.0353557  67.1830131  27.5987918  39.7374250  73.9324959
  27.9537306  39.9645723  74.7919425  28.2460050  40.0692626  73.3102215
  33.3285655  42.8592686  64.6374288  33.1903554  43.0494282  63.7095478
  32.9721874  43.6212068  65.0942339  21.4927782  36.8450781  70.7171300
  22.1327161  36.7039540  70.0194264  20.6605312  36.5585294  70.3409902
  33.3555035  44.9269213  69.6485560  33.7891542  44.8344502  70.4968614
  34.0686616  44.9026713  69.0105576  22.2688085  46.1453211  66.8306293
  23.0628684  45.6503531  66.6288868  21.5579778  45.6171074  66.4673998
  27.0882930  48.5271307  71.1818660  27.1419952  49.0962243  71.9496376
  26.2197711  48.6973192  70.8172698  18.5770849  40.2896293  62.9066045
  17.6468437  40.2280748  63.1236008  18.6728321  39.7672246  62.1102687
  18.4956398  36.8151106  65.4944287  18.7563215  37.7296439  65.3853448
  19.3173570  36.3475548  65.6440900  19.9681323  38.2288863  72.6643112
  20.6404377  38.0206225  72.0155761  19.1411110  38.0310949  72.2248344
  34.2170585  44.9692913  72.1818445  34.4106475  45.8738724  72.4277720
  34.1171203  44.5100332  73.0157030  25.8706895  34.8550804  74.6808773
  25.2234810  35.5540753  74.5873249  26.6407911  35.2886948  75.0485021
  29.2785693  45.1199656  77.7559326  29.1271200  44.8910208  76.8389410
  29.2690373  46.0770257  77.7690671  26.0471030  42.6931569  72.7405592
  26.9763090  42.8442728  72.5674560  25.6262060  42.7815590  71.8854239
  24.8459361  46.7182233  70.5104130  24.7070447  46.3501018  71.3830068
  24.0573958  47.2329873  70.3388088  25.4407513  51.8191330  61.8529666
  25.6159269  51.3479373  62.6675289  24.7540301  52.4457096  62.0810927
  26.3964577  46.0963836  67.8992968  26.0614409  46.0564606  68.7950618
  25.8968522  45.4308552  67.4263378  20.3708821  41.5031466  73.4245549
  20.2328619  40.7711705  74.0257088  21.2813744  41.4140366  73.1429737
  22.9991121  41.2151425  72.9129228  23.7090740  40.5744617  72.8715847
  22.9560429  41.4664320  73.8355409  30.9877900  48.1518779  75.8335808
  30.9290446  47.4677999  75.1666391  31.3897418  48.8937769  75.3816434
  21.7120055  38.2016643  74.7324868  21.1757412  37.7507382  75.3846464
  21.1236764  38.3362552  73.9895332  20.0068599  54.9680692  68.6269527
  20.2465197  55.5999217  69.3048545  19.1637795  54.6168732  68.9134886
  30.9895307  46.1158362  74.0649787  30.1022086  45.7784284  74.1876186
  31.5593858  45.3841394  74.3018553  12.6424454  42.4482454  67.3892839
  13.3295494  42.1344184  66.8013854  12.4872583  43.3523819  67.1160090
  17.4459176  37.3372651  71.8177862  17.3617365  36.7298320  71.0828272
  16.6241883  37.8281669  71.8187359  24.5196461  50.7759815  71.0311031
  24.4466632  51.5814786  71.5430335  24.0773854  50.9751781  70.2059052
  24.3086240  50.0131585  64.5413852  23.5253762  50.5553265  64.6352077
  25.0078985  50.5305564  64.9408093  27.6182890  35.8226214  67.1848057
  28.1151590  35.0696177  66.8649128  26.8469872  35.8590531  66.6191267
  35.4712648  41.5266580  68.8266349  35.4602524  42.4091295  68.4560282
  34.6030027  41.1738131  68.6320886  26.9795144  50.6746649  73.1869189
  27.6923116  51.3094114  73.1145091  26.4885173  50.7710515  72.3709191
  28.7012671  44.5797902  64.7586481  27.7668950  44.6999364  64.5891185
  28.8789339  43.6770368  64.4946491  24.2017859  37.9643597  66.9119742
  23.8315647  37.4114638  67.6000648  24.6976952  37.3601731  66.3594742
  32.0885222  40.4215221  65.2936515  32.5545675  41.2543212  65.2196818
  32.5392723  39.9560202  65.9981774  22.0307058  48.4241092  74.0074760
  22.7316517  49.0577575  74.1604154  21.5602173  48.7655824  73.2470399
  30.1561453  46.7659042  62.2922667  30.4321297  46.6515637  63.2016541
  29.2865952  46.3676527  62.2534840  30.0601885  32.7895808  69.3327416
  29.1464965  33.0200035  69.5009623  30.4894987  32.8734252  70.1841449
  29.8308344  40.9785700  71.8327310  29.1779794  41.2261607  71.1779763
  30.2088724  40.1649838  71.4989788  26.7915517  51.0145393  65.9355481
  26.9737912  50.1967049  66.3983233  27.6148504  51.2313085  65.4980371
  27.1257683  49.9413578  63.1970529  27.6545449  49.4306033  62.5840691
  27.3885903  49.6256108  64.0616062  25.8795917  41.7205511  78.3193347
  25.2036554  41.6199640  78.9895723  26.7023551  41.5644725  78.7829345
  17.6274776  47.9577447  70.9405863  18.2128213  47.2121135  71.0733767
  17.4299614  48.2681404  71.8242527  20.4813431  50.9928695  65.9568305
  19.8123806  51.4774822  65.4732345  20.3426301  51.2397915  66.8711684
  12.2192430  40.5283048  69.6610306  12.2576530  39.9946638  70.4547424
  11.7132723  40.0018253  69.0421283  24.6218700  53.0272438  72.5550963
  25.1737008  53.1904060  73.3200049  24.9624893  53.6176876  71.8830988
  19.5983193  35.3747588  73.1572848  19.6624519  36.2362419  72.7450246
  19.5350313  34.7621590  72.4245207  19.0735465  37.4470721  76.8045882
  19.7007504  37.0647798  77.4183407  18.2163384  37.2284923  77.1701575
  29.4729574  47.8533696  78.4099618  30.0169478  48.4663654  77.9154573
  28.8916419  48.4113274  78.9266631  15.8501008  39.2547150  62.7364237
  16.1454449  38.3457828  62.6831291  14.9489044  39.2334889  62.4145240
  27.7587087  50.9754414  69.5414646  27.6338226  50.1744154  69.0325591
  28.4166178  51.4700607  69.0528616  19.3795255  37.3303146  68.7191786
  18.6581841  37.9439114  68.5799259  20.1688511  37.8660911  68.6408432
  29.8221995  48.7763434  71.1694196  28.8752331  48.6568785  71.0972522
  30.1704768  47.8885932  71.2520457  22.1821569  34.6657573  74.9932438
  22.7055970  34.9119869  75.7558747  21.9633902  35.4977608  74.5735575
  17.5788850  36.9361247  62.8603562  17.2501556  36.0558626  62.6778668
  17.9328220  36.8808916  63.7479952  26.8268428  48.5716150  67.3698548
  26.6793391  47.6432858  67.5506118  27.6521922  48.5936241  66.8855623
  20.6930673  37.2234217  63.2279040  21.0326745  37.7520138  62.5057648
  21.1402793  37.5614623  64.0037607  30.4302550  49.3944709  68.4563421
  31.3549098  49.1887570  68.3187872  30.2617854  49.1461110  69.3652762
  23.3874114  35.6071268  72.6782108  23.0470934  34.8079081  73.0802788
  22.6813120  35.9072979  72.1058941  24.0390585  32.6920580  71.1309431
  24.8616655  32.2181059  71.0088321  24.2828649  33.4711064  71.6308117
  22.6798820  35.7208839  61.4272333  23.4007182  36.0990092  60.9236050
  22.0564124  36.4397716  61.5307311  26.8229943  36.4253988  62.3630665
  27.0393557  37.3078626  62.0619493  26.3424010  36.0340201  61.6336307
  21.5629164  39.3839701  68.9401410  21.4173745  39.6980004  69.8325691
  21.0854368  40.0024601  68.3872308  23.4225547  36.3742249  68.9882299
  23.4087116  35.4783342  68.6514597  24.1397975  36.3812913  69.6220585
  25.2751678  36.8079589  71.0335427  25.0169456  37.7296660  71.0319757
  24.7436718  36.4110024  71.7235891  30.2197867  49.9130376  63.8125512
  30.3934744  49.3476799  63.0599365  30.7126758  50.7131271  63.6305002
  16.0374826  41.9245045  71.8789071  15.4928294  42.7004853  72.0109345
  16.9154176  42.2715850  71.7208192  22.8262443  35.2556629  64.2569869
  22.9478354  34.3273275  64.4560757  22.5364485  35.2695315  63.3448185
  25.6953633  32.9411540  67.3936589  25.7175330  33.0050873  66.4388569
  26.1121692  32.1016048  67.5877095  36.0737258  42.6766799  65.4315812
  36.5168404  41.9274124  65.0334935  35.1963768  42.6676936  65.0489544
  31.2073039  49.2297141  60.9122410  31.9023944  49.8503833  61.1309725
  31.5496189  48.3792492  61.1874788  16.8240848  41.0514942  74.7719228
  16.0822584  41.1997577  75.3583858  16.5033592  41.3123207  73.9085977
  33.1064462  46.6796846  62.4409741  33.6315786  47.0184119  61.7159061
  33.0186815  45.7443862  62.2572876  24.7684511  50.5930920  74.5699618
  25.0771637  50.3480067  75.4422317  25.5659993  50.7977558  74.0818488
  24.7905123  52.7468829  66.8004994  24.3510113  52.2545208  67.4937851
  25.5413240  52.2041797  66.5597070  17.2697462  48.9380370  66.8029622
  18.0955482  48.6384142  66.4228266  16.9191514  48.1687993  67.2519411
  22.2378995  48.2906839  68.8727296  21.6159004  47.6277544  68.5729524
  22.9083862  48.3167970  68.1900944  15.4706067  46.8566697  67.7618556
  14.6337975  46.4288871  67.5802557  15.4429712  47.0499140  68.6989347
  22.3103523  36.7688627  78.4659802  22.3591678  37.6450749  78.0837572
  22.8526037  36.2266020  77.8931445  32.7958368  47.3129750  77.7460939
  32.0053912  47.2953889  77.2065439  32.5591723  47.8518044  78.5009976
  32.9156243  44.1622216  75.0593668  32.9654248  43.9972224  76.0009190
  32.8070167  43.2949475  74.6691548  21.7992502  46.8410762  62.3485757
  21.9480622  47.5246226  61.6952429  22.6058945  46.8215852  62.8635212
  30.2060006  40.1453144  76.3752974  31.1069868  40.0059609  76.0836972
  30.2807980  40.3107599  77.3151152  24.5402811  37.5219999  75.2206161
  23.6706120  37.8153565  74.9488749  24.7762291  38.1060444  75.9413424
  34.4174440  46.5819158  75.3035689  34.1259248  46.9449138  76.1399150
  33.8046571  45.8686166  75.1249021  35.6170122  44.1472038  67.8238259
  36.4517014  44.5861842  67.9875820  35.7529251  43.6710691  67.0046505
  32.6661628  41.7051772  73.7715747  33.1415750  41.8979419  72.9634599
  31.7427194  41.7610958  73.5259131  19.5545135  42.8675940  63.3546825
  19.3091177  41.9638270  63.5527036  19.7241049  42.8693090  62.4126303
  27.2441845  33.7399616  72.7371581  27.7623789  34.4760643  72.4118070
  26.8896978  34.0463609  73.5718340  18.8240782  38.6004297  60.8532987
  18.1310027  38.6748652  60.1973023  18.5792534  37.8364641  61.3754504
  27.4954439  30.1599898  68.2572478  27.7756193  29.4923088  68.8832904
  28.2805046  30.3528994  67.7447142  25.2987907  49.3358892  59.8197504
  24.7261875  49.9549079  59.3667976  25.8720701  49.8858254  60.3537426
  31.3663297  38.5817532  72.0044053  32.3180720  38.6815630  72.0256277
  31.1966748  37.7895801  72.5142137  29.3877677  35.6673116  72.1903454
  28.7927609  35.9478128  71.4949942  29.1027373  36.1567017  72.9620195
  28.5185167  49.6196042  60.9506086  29.4515840  49.5541604  61.1538962
  28.4308380  50.4552309  60.4920619  31.1473184  48.9361913  57.9110034
  31.0686815  48.6021776  58.8045792  31.9682851  49.4283681  57.9101506
  33.8451375  41.8023652  71.1186352  33.8127695  40.8639653  71.3046036
  34.4551999  41.8807689  70.3852177  33.9945864  38.5934696  71.1644636
  33.4784912  37.8093152  70.9774565  34.8785812  38.2653412  71.3291155
  39.6627925  42.8639659  70.2592389  40.3931313  42.6024947  70.8200093
  39.0534870  42.1268381  70.2994457  37.7443222  41.0047522  70.8566840
  37.0176386  40.8703487  70.2483332  37.3290509  41.3124350  71.6623558
  25.5673399  44.7237451  78.6214213  26.4876408  44.9016050  78.8154260
  25.5322982  43.7793497  78.4693913  14.7855563  39.9176045  67.5467488
  14.4658348  39.0641353  67.2541862  14.2388992  40.1324623  68.3025455
  18.5635471  42.6338486  71.2636995  18.7821481  43.5655594  71.2825028
  18.9761245  42.2746460  72.0491798  23.4363336  38.2071692  80.6539744
  23.3360063  39.1566049  80.5851835  23.2184878  37.8789931  79.7815814
  14.6543824  43.5378956  69.5160610  13.9607295  43.1232909  69.0030564
  15.4016815  43.5799493  68.9194029  23.2994606  41.6368831  79.4704805
  22.8161688  42.4369191  79.6768694  23.3855545  41.6476775  78.5172249
  16.5680566  43.4697210  67.3926625  16.5451254  43.5684897  66.4408508
  16.8781203  44.3162361  67.7143791  19.2267944  45.5273365  71.5073239
  20.1811197  45.4957308  71.4403171  19.0280467  45.0663989  72.3223465
  19.8167326  44.0974481  74.0744037  20.6360215  44.5918560  74.0978874
  20.0904134  43.1806449  74.0461604  32.9248458  36.5131755  67.1526331
  33.7008848  37.0028207  67.4250948  32.1996593  36.9389809  67.6098201
  35.3621017  37.2259374  68.2100272  35.9565508  36.9855110  67.4993580
  35.4347601  36.5066504  68.8373808  17.5818173  51.0692985  68.5243437
  17.4472641  50.3093386  67.9581435  17.1650235  51.7933885  68.0572226
  28.7177136  46.2529908  57.5320012  29.4212986  46.4579911  58.1477668
  27.9939784  46.8206670  57.7969096  29.5474946  42.0039769  63.6522282
  29.4910147  42.4608321  62.8129915  30.1003288  41.2430454  63.4745125
  33.3579752  37.7929501  64.4772402  33.1016686  37.3926137  65.3080610
  32.7332620  38.5073295  64.3522541  37.6692090  40.5325575  66.9843693
  37.1091648  40.6018764  67.7575255  37.0635593  40.3566559  66.2643189
  20.7387299  51.9662302  68.7361880  20.6219683  52.9107734  68.6340570
  19.9179745  51.6635863  69.1247679  30.6263833  46.6912437  59.5818472
  31.4609437  46.2593636  59.3995947  30.4648176  46.5194451  60.5095367
  30.2809725  43.1944551  60.9474812  30.2258529  43.0288822  60.0063256
  29.6555781  43.9020584  61.1037001  15.0702240  38.4312615  74.7736234
  15.7161104  37.9211569  75.2623459  14.8619391  39.1681297  75.3479659
  27.5955632  45.4993463  80.2728374  28.4646792  45.6734115  79.9115009
  27.1162384  46.3187879  80.1504104  21.7641813  52.6190564  71.9517808
  22.6669059  52.6514174  72.2684303  21.5379183  51.6891015  71.9664144
  23.5195415  51.3721550  68.6127887  22.5691046  51.3723412  68.4992259
  23.8227901  50.6254285  68.0963921  39.2548108  57.2082089  69.6773649
  39.8926518  57.0888836  68.9736989  39.1368951  58.1562932  69.7361601
  36.0637814  57.1609517  69.6135174  35.7256326  57.0450581  68.7255709
  36.9327583  56.7600682  69.5936180  31.9224630  59.0144993  65.6032065
  31.3589495  58.9234930  64.8348352  31.8077025  58.1944898  66.0834557
  36.5457597  58.3144368  75.5721379  36.5346238  57.9197167  74.7001883
  36.7078237  57.5810441  76.1655151  29.4689062  60.5096185  68.4416285
  30.2610354  60.1687009  68.0262584  29.7085712  60.6191160  69.3618438
  37.5024189  62.6815961  60.9146530  36.8512169  63.2670041  60.5280543
  38.2968552  63.2122156  60.9741567  31.4279816  59.7705098  61.3133664
  32.2010692  59.2234085  61.1746540  31.7805215  60.6349347  61.5248125
  33.2664859  61.0981480  74.5200563  32.9754725  62.0027111  74.4047229
  33.9021843  61.1398008  75.2344633  34.1921065  58.4758329  71.1101923
  34.7884638  58.2514351  70.3958886  34.2496037  57.7343074  71.7127371
  33.7646094  55.9297764  58.9452114  34.0171615  55.4079285  58.1835577
  32.8270653  55.7663909  59.0478797  38.8089377  54.9333542  66.7526857
  39.5952466  54.5152966  66.4017274  39.0728081  55.8379635  66.9208505
  38.9799454  60.3706393  61.4515514  38.3445287  60.4441019  62.1636418
  38.6496860  60.9599992  60.7734593  44.2097804  54.8708776  67.6559836
  44.9422976  54.3007992  67.8897665  43.4537160  54.4830376  68.0966341
  33.4842383  57.8325870  61.1476489  33.3678641  57.1570773  61.8157573
  33.5944643  57.3458244  60.3308642  35.8273924  57.2936017  64.8523178
  35.4632131  56.7666638  65.5636099  36.6841039  56.9034486  64.6789663
  41.7323224  48.5830350  72.1154444  41.4006549  49.4525761  71.8915659
  41.1368838  48.2666634  72.7948475  35.4679411  52.3225917  59.8484527
  35.6353813  53.1906153  60.2154998  35.2776580  52.4853198  58.9245816
  38.2254744  60.7842896  71.5150357  37.9255467  61.6867935  71.4066164
  37.8805803  60.5175079  72.3671510  31.6767225  57.2356693  67.5487061
  30.7517722  57.1032907  67.7564753  31.9251638  58.0150912  68.0457004
  41.6251887  53.3025436  69.1947794  40.7168765  53.2340844  68.9006555
  41.5739483  53.7797381  70.0229620  35.4468631  54.7783574  60.8331193
  35.3268257  55.2240625  61.6716674  34.7521220  55.1268892  60.2744731
  29.0376036  56.8789966  68.3830850  29.1668417  57.1324445  69.2970262
  28.3573488  57.4717674  68.0635505  33.2075524  67.5487216  64.4821325
  33.1299553  68.4995041  64.5609805  32.6037167  67.2033089  65.1396251
  35.6992753  54.7215081  77.1382691  34.9226087  55.2809002  77.1285556
  36.3383316  55.2071864  77.6597562  43.4913534  51.5041874  70.9725668
  42.8487914  51.7974407  70.3265463  42.9868462  51.3894795  71.7778865
  41.1453698  55.2505047  61.6611527  42.0571554  55.4832434  61.4859225
  40.6363345  55.8342092  61.0986606  33.9539126  57.5300535  76.7000658
  34.6953810  58.0685579  76.4235482  33.2476111  58.1566824  76.8572210
  39.4294465  59.6729675  75.2972820  39.8377821  59.2312086  74.5527452
  38.7071727  59.0982303  75.5507013  35.7825535  54.6102282  72.6706377
  36.6286730  55.0341696  72.8141026  35.7224173  53.9535906  73.3644940
  39.7523280  60.2330866  69.0525109  39.1232142  60.3976580  68.3501177
  39.3648942  60.6472475  69.8236073  43.6312512  61.1685304  66.4069473
  42.9463550  61.5484205  65.8566506  43.7156361  61.7780630  67.1401420
  38.9324981  52.2706650  74.3287551  38.6885912  53.0248711  73.7921826
  39.2084911  52.6491998  75.1634798  40.8863443  58.8145263  73.0064816
  41.0980339  59.4577023  72.3299197  40.8393192  57.9807579  72.5386746
  38.4889672  51.4263083  69.9101388  37.6274151  51.7244337  70.2018126
  38.5152107  51.6433482  68.9782421  35.3051242  59.9705274  66.3175194
  35.7689587  60.2492977  65.5279816  35.0408040  59.0688719  66.1348285
  32.1975323  59.5176756  69.2554957  32.7676680  59.9464024  68.6172442
  32.7883435  59.2359340  69.9539143  34.2420128  56.0928426  63.1264759
  34.9444171  56.5449470  63.5938685  33.9100756  55.4512245  63.7544652
  32.6900489  54.6840183  77.5015968  32.0599150  55.3656464  77.7351365
  32.5836577  54.5723265  76.5569107  27.9845462  54.3511979  68.4281893
  27.1944516  54.6069508  67.9522003  28.4756709  55.1660317  68.5333933
  42.0009271  61.6917218  71.1787173  42.8226715  61.2897405  70.8969855
  41.9971674  61.5885452  72.1303289  29.9360207  54.7156558  65.3865369
  29.1391370  54.8275253  65.9048865  29.7085799  55.0543211  64.5206260
  35.7665875  61.2401262  73.3347884  35.8310307  61.7021669  74.1706056
  35.0576799  60.6098626  73.4630194  26.2683165  54.6042469  70.8596883
  26.5191203  55.4889479  71.1254459  26.8042713  54.4247071  70.0871975
  50.0915264  58.0355967  67.5272145  49.3378973  57.4663365  67.3716149
  50.2262806  58.0018631  68.4742780  35.4813892  62.9069369  63.2026864
  35.3459567  63.7520905  63.6311712  36.0223705  63.1088647  62.4392798
  31.9681232  48.9860949  79.8641220  31.5748178  48.4327147  80.5388864
  32.7847372  49.2971527  80.2547737  28.9343290  60.4244807  63.7754789
  29.4467810  61.2188057  63.9260354  29.5866003  59.7271097  63.7088391
  30.7438175  63.5410563  65.8577543  30.9204803  64.4628528  65.6698526
  31.5395008  63.2268983  66.2871922  34.8849193  50.4018828  77.4561476
  35.6258906  51.0025981  77.3765939  35.1167116  49.6596466  76.8979519
  30.0290531  55.5875195  75.7339706  29.9144046  54.6860452  76.0346805
  29.1735049  55.8338892  75.3824522  37.1082369  63.5292936  77.3327206
  36.6646223  62.7429314  77.0148111  37.7699582  63.7172086  76.6671097
  31.8669490  65.0588737  71.8587885  32.4176915  64.9305800  71.0864879
  31.0280966  65.3583626  71.5082778  39.2063607  63.8095735  75.3608608
  39.1882082  64.6304616  74.8688877  40.1283527  63.6849811  75.5858749
  35.6636661  61.3239865  76.2032116  36.1964998  60.5628153  75.9731424
  35.1350742  61.0313517  76.9456270  38.8306356  46.4299931  71.7325758
  38.4870625  47.3201573  71.6564868  39.1985319  46.2401589  70.8695343
  26.8992207  58.7533461  64.5514360  27.7367429  59.1630470  64.3348068
  27.0770474  57.8132903  64.5214554  38.7956639  56.4208542  60.2398193
  38.2803262  57.1913147  60.4786580  38.5233947  55.7473678  60.8631254
  36.3803750  51.2658243  65.2983431  35.5245346  50.8765093  65.1189070
  36.7930702  51.3450204  64.4383217  37.9102896  48.8004586  69.6974991
  37.4067692  48.7634721  68.8842796  38.2033503  49.7097329  69.7571648
  34.1545782  48.8843316  68.7041173  35.0198779  48.6886124  68.3447062
  34.2223291  48.6553668  69.6310529  43.7690913  59.1740897  62.1751366
  42.9920356  58.8352056  61.7306528  44.4482394  59.1793520  61.5006331
  38.5842942  54.2935634  62.0657974  38.2793077  54.6081783  62.9168117
  39.5373384  54.3717054  62.1085307  37.0289374  60.4525857  63.7150928
  36.5010735  59.7178617  63.4024165  36.5276876  61.2300534  63.4690896
  42.0082220  58.6474878  68.8317974  41.3505894  59.3374139  68.9198103
  42.8122619  59.0371310  69.1751961  31.7608101  51.1145524  66.0757540
  32.3351853  50.8920705  65.3430732  32.3479084  51.1834218  66.8286141
  40.8187679  57.0019251  66.8821916  41.3319560  57.6349242  67.3843626
  41.4688902  56.4020446  66.5165276  32.0877688  53.1449985  60.0953425
  31.2515001  53.4824671  60.4162700  31.9482458  53.0098965  59.1580562
  34.0630769  47.9886773  64.8032609  33.4095181  47.6735790  64.1789224
  34.0211243  47.3662513  65.5292432  35.1741974  58.2706068  56.7185901
  34.2669036  58.0395321  56.9177050  35.6713006  57.4743687  56.9059883
  38.0810053  66.9803575  59.6382587  37.4071752  67.2835272  60.2467545
  38.4675875  67.7832655  59.2888044  37.2968509  54.4768706  69.1280257
  36.3791071  54.6983653  68.9701945  37.7128653  54.5515017  68.2691964
  38.0803557  55.8760122  64.2582937  38.8275376  56.3881519  63.9490059
  38.3495147  55.5544175  65.1187330  36.3530207  58.3718663  61.2409891
  35.4441427  58.0877695  61.3382361  36.3825291  58.7917741  60.3813198
  41.5849475  61.9825252  65.0101059  41.1311802  61.1416162  65.0666249
  40.9543441  62.6186650  65.3475839  40.5282394  52.9117238  66.2401726
  39.7905151  52.3994624  66.5711969  40.7809168  52.4717620  65.4285003
  40.0282414  63.8201749  65.9450877  40.3205388  64.3806806  65.2263242
  40.5381035  64.1130310  66.7004036  40.6294022  45.6893490  66.8343495
  40.9352898  44.8290853  66.5469411  41.3546626  46.2811110  66.6342489
  26.9218378  56.0924177  65.2225093  26.7242778  55.4993537  64.4976160
  26.3665042  55.7876387  65.9401032  34.9015101  55.9847283  67.3419687
  34.9563711  55.0321120  67.2662163  34.0906303  56.1406722  67.8260985
  36.0506295  59.9127406  58.5797970  35.6125725  59.1963265  58.1203607
  36.7916736  60.1403521  58.0183061  32.8407461  54.6024343  65.1010065
  32.0275327  54.9018513  65.5075258  33.3366455  54.2080032  65.8184548
  34.9916039  64.5982100  67.0344330  34.9492218  64.8242946  66.1052862
  35.9078738  64.3645474  67.1830131  38.4381673  55.0666167  73.9324959
  38.7931061  55.2937640  74.7919425  39.0853804  55.3984544  73.3102215
  44.1679410  58.1884603  64.6374288  44.0297309  58.3786199  63.7095478
  43.8115629  58.9503986  65.0942339  32.3321536  52.1742698  70.7171300
  32.9720915  52.0331457  70.0194264  31.4999067  51.8877212  70.3409902
  44.1948790  60.2561130  69.6485560  44.6285296  60.1636419  70.4968614
  44.9080370  60.2318631  69.0105576  33.1081840  61.4745129  66.8306293
  33.9022438  60.9795449  66.6288868  32.3973532  60.9462992  66.4673998
  37.9276684  63.8563224  71.1818660  37.9813707  64.4254161  71.9496376
  37.0591466  64.0265109  70.8172698  29.4164603  55.6188211  62.9066045
  28.4862192  55.5572666  63.1236008  29.5122075  55.0964163  62.1102687
  29.3350152  52.1443023  65.4944287  29.5956970  53.0588357  65.3853448
  30.1567325  51.6767466  65.6440900  30.8075078  53.5580781  72.6643112
  31.4798131  53.3498143  72.0155761  29.9804864  53.3602867  72.2248344
  45.0564339  60.2984831  72.1818445  45.2500229  61.2030641  72.4277720
  44.9564957  59.8392250  73.0157030  36.7100650  50.1842721  74.6808773
  36.0628565  50.8832671  74.5873249  37.4801665  50.6178865  75.0485021
  40.1179448  60.4491574  77.7559326  39.9664954  60.2202125  76.8389410
  40.1084127  61.4062175  77.7690671  36.8864784  58.0223486  72.7405592
  37.8156844  58.1734646  72.5674560  36.4655814  58.1107507  71.8854239
  35.6853116  62.0474151  70.5104130  35.5464202  61.6792935  71.3830068
  34.8967712  62.5621790  70.3388088  36.2801268  67.1483247  61.8529666
  36.4553024  66.6771290  62.6675289  35.5934056  67.7749013  62.0810927
  37.2358331  61.4255753  67.8992968  36.9008164  61.3856523  68.7950618
  36.7362277  60.7600469  67.4263378  31.2102575  56.8323384  73.4245549
  31.0722373  56.1003622  74.0257088  32.1207499  56.7432284  73.1429737
  40.1717523  58.7711788  58.1730027  39.5546693  58.0458616  58.0763080
  39.7034011  59.5321148  57.8297102  33.8384876  56.5443343  72.9129228
  34.5484494  55.9036535  72.8715847  33.7954184  56.7956238  73.8355409
  41.8271654  63.4810696  75.8335808  41.7684201  62.7969916  75.1666391
  42.2291173  64.2229686  75.3816434  32.5513810  53.5308561  74.7324868
  32.0151167  53.0799299  75.3846464  31.9630518  53.6654470  73.9895332
  30.8462353  70.2972610  68.6269527  31.0858951  70.9291134  69.3048545
  30.0031550  69.9460650  68.9134886  31.9616069  52.9897212  57.2951332
  31.0845535  52.8686013  56.9313578  32.4373822  52.1983290  57.0430220
  41.8289062  61.4450280  74.0649787  40.9415840  61.1076202  74.1876186
  42.3987613  60.7133311  74.3018553  23.4818209  57.7774372  67.3892839
  24.1689249  57.4636102  66.8013854  23.3266337  58.6815737  67.1160090
  28.2852931  52.6664568  71.8177862  28.2011120  52.0590238  71.0828272
  27.4635637  53.1573587  71.8187359  35.3590215  66.1051732  71.0311031
  35.2860387  66.9106704  71.5430335  34.9167608  66.3043698  70.2059052
  35.1479995  65.3423503  64.5413852  34.3647517  65.8845183  64.6352077
  35.8472740  65.8597482  64.9408093  38.4576645  51.1518132  67.1848057
  38.9545344  50.3988094  66.8649128  37.6863626  51.1882449  66.6191267
  46.3106402  56.8558497  68.8266349  46.2996278  57.7383213  68.4560282
  45.4423782  56.5030048  68.6320886  37.8188899  66.0038567  73.1869189
  38.5316871  66.6386031  73.1145091  37.3278927  66.1002433  72.3709191
  39.5406426  59.9089819  64.7586481  38.6062704  60.0291282  64.5891185
  39.7183094  59.0062286  64.4946491  35.0411614  53.2935515  66.9119742
  34.6709401  52.7406555  67.6000648  35.5370706  52.6893648  66.3594742
  42.9278977  55.7507138  65.2936515  43.3939429  56.5835130  65.2196818
  43.3786477  55.2852120  65.9981774  32.8700812  63.7533010  74.0074760
  33.5710272  64.3869493  74.1604154  32.3995927  64.0947742  73.2470399
  40.9955208  62.0950960  62.2922667  41.2715052  61.9807554  63.2016541
  40.1259707  61.6968445  62.2534840  40.8995640  48.1187725  69.3327416
  39.9858719  48.3491952  69.5009623  41.3288741  48.2026170  70.1841449
  40.6702098  56.3077617  71.8327310  40.0173548  56.5553525  71.1779763
  41.0482478  55.4941756  71.4989788  37.6309272  66.3437311  65.9355481
  37.8131667  65.5258967  66.3983233  38.4542258  66.5605003  65.4980371
  37.9651437  65.2705496  63.1970529  38.4939204  64.7597950  62.5840691
  38.2279657  64.9548026  64.0616062  36.7189671  57.0497428  78.3193347
  36.0430308  56.9491558  78.9895723  37.5417305  56.8936642  78.7829345
  28.4668530  63.2869365  70.9405863  29.0521967  62.5413053  71.0733767
  28.2693369  63.5973322  71.8242527  31.3207185  66.3220612  65.9568305
  30.6517561  66.8066740  65.4732345  31.1820055  66.5689833  66.8711684
  23.0586185  55.8574965  69.6610306  23.0970284  55.3238556  70.4547424
  22.5526478  55.3310171  69.0421283  35.4612454  68.3564356  72.5550963
  36.0130762  68.5195977  73.3200049  35.8018647  68.9468794  71.8830988
  30.4376947  50.7039506  73.1572848  30.5018274  51.5654337  72.7450246
  30.3744067  50.0913507  72.4245207  29.9129220  52.7762638  76.8045882
  30.5401259  52.3939716  77.4183407  29.0557139  52.5576840  77.1701575
  40.3123328  63.1825613  78.4099618  40.8563232  63.7955572  77.9154573
  39.7310173  63.7405192  78.9266631  26.6894763  54.5839067  62.7364237
  26.9848204  53.6749746  62.6831291  25.7882798  54.5626807  62.4145240
  38.5980841  66.3046331  69.5414646  38.4731981  65.5036071  69.0325591
  39.2559932  66.7992525  69.0528616  30.2189010  52.6595064  68.7191786
  29.4975595  53.2731032  68.5799259  31.0082265  53.1952829  68.6408432
  40.6615750  64.1055352  71.1694196  39.7146085  63.9860703  71.0972522
  41.0098523  63.2177850  71.2520457  33.0215323  49.9949490  74.9932438
  33.5449725  50.2411787  75.7558747  32.8027656  50.8269525  74.5735575
  28.4182604  52.2653165  62.8603562  28.0895310  51.3850544  62.6778668
  28.7721975  52.2100834  63.7479952  37.6662183  63.9008068  67.3698548
  37.5187145  62.9724775  67.5506118  38.4915676  63.9228158  66.8855623
  31.5324427  52.5526135  63.2279040  31.8720500  53.0812056  62.5057648
  31.9796548  52.8906541  64.0037607  41.2696305  64.7236626  68.4563421
  42.1942852  64.5179488  68.3187872  41.1011608  64.4753028  69.3652762
  34.2267868  50.9363186  72.6782108  33.8864688  50.1370999  73.0802788
  33.5206874  51.2364896  72.1058941  34.8784340  48.0212498  71.1309431
  35.7010409  47.5472976  71.0088321  35.1222403  48.8002982  71.6308117
  33.5192574  51.0500756  61.4272333  34.2400937  51.4282009  60.9236050
  32.8957879  51.7689633  61.5307311  37.6623697  51.7545905  62.3630665
  37.8787312  52.6370543  62.0619493  37.1817764  51.3632119  61.6336307
  32.4022919  54.7131619  68.9401410  32.2567499  55.0271922  69.8325691
  31.9248122  55.3316519  68.3872308  34.2619302  51.7034167  68.9882299
  34.2480870  50.8075260  68.6514597  34.9791730  51.7104830  69.6220585
  36.1145432  52.1371507  71.0335427  35.8563210  53.0588577  71.0319757
  35.5830473  51.7401941  71.7235891  41.0591621  65.2422294  63.8125512
  41.2328499  64.6768716  63.0599365  41.5520512  66.0423189  63.6305002
  26.8768581  57.2536963  71.8789071  26.3322049  58.0296771  72.0109345
  27.7547931  57.6007768  71.7208192  33.6656197  50.5848547  64.2569869
  33.7872109  49.6565193  64.4560757  33.3758240  50.5987233  63.3448185
  36.5347388  48.2703457  67.3936589  36.5569085  48.3342790  66.4388569
  36.9515447  47.4307966  67.5877095  46.9131012  58.0058717  65.4315812
  47.3562158  57.2566042  65.0334935  46.0357522  57.9968853  65.0489544
  42.0466794  64.5589058  60.9122410  42.7417698  65.1795751  61.1309725
  42.3889944  63.7084410  61.1874788  27.6634603  56.3806859  74.7719228
  26.9216339  56.5289495  75.3583858  27.3427347  56.6415125  73.9085977
  43.9458217  62.0088764  62.4409741  44.4709541  62.3476037  61.7159061
  43.8580569  61.0735779  62.2572876  35.6078265  65.9222838  74.5699618
  35.9165392  65.6771984  75.4422317  36.4053747  66.1269476  74.0818488
  35.6298877  68.0760747  66.8004994  35.1903868  67.5837126  67.4937851
  36.3806994  67.5333715  66.5597070  28.1091216  64.2672288  66.8029622
  28.9349236  63.9676060  66.4228266  27.7585268  63.4979910  67.2519411
  33.0772750  63.6198756  68.8727296  32.4552759  62.9569461  68.5729524
  33.7477616  63.6459888  68.1900944  26.3099821  62.1858614  67.7618556
  25.4731730  61.7580789  67.5802557  26.2823467  62.3791058  68.6989347
  33.1497277  52.0980544  78.4659802  33.1985432  52.9742667  78.0837572
  33.6919791  51.5557937  77.8931445  43.6352123  62.6421668  77.7460939
  42.8447666  62.6245806  77.2065439  43.3985477  63.1809961  78.5009976
  43.7549998  59.4914134  75.0593668  43.8048003  59.3264141  76.0009190
  43.6463921  58.6241393  74.6691548  32.6386256  62.1702680  62.3485757
  32.7874377  62.8538144  61.6952429  33.4452700  62.1507770  62.8635212
  41.0453760  55.4745062  76.3752974  41.9463623  55.3351527  76.0836972
  41.1201735  55.6399517  77.3151152  35.3796565  52.8511917  75.2206161
  34.5099875  53.1445483  74.9488749  35.6156046  53.4352362  75.9413424
  45.2568195  61.9111075  75.3035689  44.9653003  62.2741056  76.1399150
  44.6440326  61.1978084  75.1249021  46.4563877  59.4763955  67.8238259
  47.2910768  59.9153759  67.9875820  46.5923006  59.0002608  67.0046505
  43.5055383  57.0343690  73.7715747  43.9809504  57.2271336  72.9634599
  42.5820948  57.0902876  73.5259131  30.3938889  58.1967857  63.3546825
  30.1484931  57.2930187  63.5527036  30.5634804  58.1985008  62.4126303
  38.0835599  49.0691534  72.7371581  38.6017543  49.8052561  72.4118070
  37.7290732  49.3755527  73.5718340  29.6634537  53.9296215  60.8532987
  28.9703782  54.0040570  60.1973023  29.4186289  53.1656558  61.3754504
  38.3348193  45.4891816  68.2572478  38.6149947  44.8215005  68.8832904
  39.1198800  45.6820912  67.7447142  36.1381662  64.6650810  59.8197504
  35.5655629  65.2840997  59.3667976  36.7114456  65.2150172  60.3537426
  42.2057052  53.9109450  72.0044053  43.1574475  54.0107548  72.0256277
  42.0360502  53.1187719  72.5142137  40.2271431  50.9965033  72.1903454
  39.6321363  51.2770046  71.4949942  39.9421128  51.4858934  72.9620195
  39.3578922  64.9487960  60.9506086  40.2909595  64.8833522  61.1538962
  39.2702135  65.7844227  60.4920619  41.9866938  64.2653831  57.9110034
  41.9080570  63.9313694  58.8045792  42.8076605  64.7575598  57.9101506
  44.6845130  57.1315570  71.1186352  44.6521450  56.1931571  71.3046036
  45.2945753  57.2099607  70.3852177  36.5228460  56.0011623  57.1613557
  37.4687565  55.8717831  57.2301975  36.1442705  55.2626285  57.6382985
  44.8339618  53.9226613  71.1644636  44.3178667  53.1385070  70.9774565
  45.7179567  53.5945330  71.3291155  42.4950345  47.6667629  67.1240448
  42.2975166  47.3582717  68.0083780  43.1050051  48.3929268  67.2538378
  50.5021679  58.1931577  70.2592389  51.2325068  57.9316865  70.8200093
  49.8928625  57.4560299  70.2994457  48.5836977  56.3339439  70.8566840
  47.8570140  56.1995404  70.2483332  48.1684263  56.6416268  71.6623558
  36.4067153  60.0529369  78.6214213  37.3270162  60.2307968  78.8154260
  36.3716736  59.1085414  78.4693913  34.7071378  53.9261599  57.0968442
  33.8002833  53.6294712  57.1731155  34.9847359  53.6291417  56.2302728
  25.6249318  55.2467963  67.5467488  25.3052102  54.3933271  67.2541862
  25.0782746  55.4616541  68.3025455  29.4029226  57.9630404  71.2636995
  29.6215235  58.8947511  71.2825028  29.8154999  57.6038378  72.0491798
  36.3233443  48.4698489  63.2512683  35.5134172  48.1245574  63.6267929
  37.0117860  48.1606033  63.8400295  38.2523992  47.5476536  64.8736980
  38.8055030  47.9671989  65.5327003  38.4894078  46.6212284  64.9159936
  34.2757091  53.5363609  80.6539744  34.1753818  54.4857966  80.5851835
  34.0578633  53.2081848  79.7815814  33.4770162  50.7848534  57.2380421
  34.3389326  51.1103433  57.4976238  33.6620506  49.9980030  56.7253487
  25.4937578  58.8670874  69.5160610  24.8001049  58.4524827  69.0030564
  26.2410569  58.9091411  68.9194029  41.6302799  49.6577061  64.3815644
  41.0501468  50.3161865  63.9993696  41.3638731  48.8354405  63.9703061
  40.0806365  49.0582119  66.5836964  40.5806143  49.1698653  65.7751283
  40.7241973  48.7543171  67.2237773  34.1388361  56.9660748  79.4704805
  33.6555443  57.7661108  79.6768694  34.2249300  56.9768693  78.5172249
  27.4074321  58.7989128  67.3926625  27.3845009  58.8976815  66.4408508
  27.7174957  59.6454279  67.7143791  30.0661698  60.8565283  71.5073239
  31.0204952  60.8249225  71.4403171  29.8674222  60.3955907  72.3223465
  30.6561081  59.4266399  74.0744037  31.4753970  59.9210478  74.0978874
  30.9297888  58.5098367  74.0461604  40.4127677  51.8177151  63.4371992
  39.5253532  52.1026802  63.2192187  40.8281666  51.6570915  62.5899269
  43.7642213  51.8423672  67.1526331  44.5402603  52.3320125  67.4250948
  43.0390347  52.2681726  67.6098201  46.2014771  52.5551291  68.2100272
  46.7959262  52.3147027  67.4993580  46.2741355  51.8358422  68.8373808
  28.4211927  66.3984902  68.5243437  28.2866395  65.6385303  67.9581435
  28.0043989  67.1225802  68.0572226  39.5570890  61.5821826  57.5320012
  40.2606740  61.7871828  58.1477668  38.8333539  62.1498588  57.7969096
  40.3868700  57.3331687  63.6522282  40.3303902  57.7900239  62.8129915
  40.9397043  56.5722372  63.4745125  44.1973506  53.1221419  64.4772402
  43.9410441  52.7218055  65.3080610  43.5726374  53.8365213  64.3522541
  48.5085844  55.8617492  66.9843693  47.9485402  55.9310682  67.7575255
  47.9029348  55.6858477  66.2643189  31.5781053  67.2954219  68.7361880
  31.4613437  68.2399652  68.6340570  30.7573499  66.9927781  69.1247679
  41.4657588  62.0204355  59.5818472  42.3003192  61.5885554  59.3995947
  41.3041931  61.8486369  60.5095367  41.1203480  58.5236468  60.9474812
  41.0652284  58.3580740  60.0063256  40.4949535  59.2312501  61.1037001
  25.9095995  53.7604533  74.7736234  26.5554858  53.2503487  75.2623459
  25.7013146  54.4973214  75.3479659  38.4349387  60.8285380  80.2728374
  39.3040547  61.0026033  79.9115009  37.9556138  61.6479797  80.1504104
  34.4299605  48.0244577  60.5260130  34.4178275  48.9686417  60.6828401
  35.3223027  47.8414723  60.2319591  32.6035567  67.9482481  71.9517808
  33.5062814  67.9806092  72.2684303  32.3772937  67.0182932  71.9664144
  34.3589169  66.7013468  68.6127887  33.4084800  66.7015329  68.4992259
  34.6621655  65.9546202  68.0963921  38.2451725  44.6187354  64.7806067
  37.4784121  44.0645841  64.9262749  38.6562430  44.6909223  65.6420218
  30.2493486  50.9072150  78.8711248  31.1124947  50.5508955  79.0814573
  29.6758896  50.5686045  79.5586652  50.0941863  72.5374006  69.6773649
  50.7320273  72.4180754  68.9736989  49.9762706  73.4854850  69.7361601
  46.9031569  72.4901434  69.6135174  46.5650080  72.3742499  68.7255709
  47.7721337  72.0892599  69.5936180  42.7618385  74.3436911  65.6032065
  42.1983250  74.2526848  64.8348352  42.6470780  73.5236815  66.0834557
  40.3082817  75.8388102  68.4416285  41.1004109  75.4978927  68.0262584
  40.5479467  75.9483077  69.3618438  48.3417943  78.0107878  60.9146530
  47.6905923  78.5961959  60.5280543  49.1362306  78.5414073  60.9741567
  42.2673571  75.0997016  61.3133664  43.0404447  74.5526003  61.1746540
  42.6198969  75.9641265  61.5248125  45.0314820  73.8050246  71.1101923
  45.6278392  73.5806269  70.3958886  45.0889791  73.0634992  71.7127371
  44.6039848  71.2589682  58.9452114  44.8565369  70.7371203  58.1835577
  43.6664407  71.0955827  59.0478797  49.6483131  70.2625460  66.7526857
  50.4346220  69.8444883  66.4017274  49.9121836  71.1671552  66.9208505
  49.8193209  75.6998310  61.4515514  49.1839042  75.7732937  62.1636418
  49.4890615  76.2891909  60.7734593  55.0491558  70.2000693  67.6559836
  55.7816730  69.6299910  67.8897665  54.2930914  69.8122294  68.0966341
  44.3236137  73.1617788  61.1476489  44.2072395  72.4862691  61.8157573
  44.4338397  72.6750162  60.3308642  46.6667678  72.6227935  64.8523178
  46.3025885  72.0958556  65.5636099  47.5234794  72.2326404  64.6789663
  52.5716979  63.9122267  72.1154444  52.2400303  64.7817678  71.8915659
  51.9762592  63.5958551  72.7948475  46.3073165  67.6517834  59.8484527
  46.4747567  68.5198071  60.2154998  46.1170334  67.8145116  58.9245816
  42.5160980  72.5648610  67.5487061  41.5911476  72.4324824  67.7564753
  42.7645393  73.3442829  68.0457004  52.4645642  68.6317354  69.1947794
  51.5562519  68.5632762  68.9006555  52.4133238  69.1089298  70.0229620
  46.2862386  70.1075492  60.8331193  46.1662011  70.5532543  61.6716674
  45.5914974  70.4560810  60.2744731  39.8769791  72.2081884  68.3830850
  40.0062172  72.4616363  69.2970262  39.1967242  72.8009592  68.0635505
  44.0469278  82.8779134  64.4821325  43.9693308  83.8286959  64.5609805
  43.4430922  82.5325006  65.1396251  54.3307288  66.8333792  70.9725668
  53.6881669  67.1266325  70.3265463  53.8262217  66.7186712  71.7778865
  51.9847452  70.5796965  61.6611527  52.8965308  70.8124352  61.4859225
  51.4757099  71.1634009  61.0986606  46.6219290  69.9394200  72.6706377
  47.4680485  70.3633613  72.8141026  46.5617927  69.2827824  73.3644940
  49.3283427  66.7555001  69.9101388  48.4667906  67.0536255  70.2018126
  49.3545861  66.9725400  68.9782421  46.1444996  75.2997192  66.3175194
  46.6083342  75.5784895  65.5279816  45.8801794  74.3980636  66.1348285
  43.0369077  74.8468673  69.2554957  43.6070434  75.2755942  68.6172442
  43.6277189  74.5651258  69.9539143  45.0813882  71.4220344  63.1264759
  45.7837926  71.8741388  63.5938685  44.7494511  70.7804163  63.7544652
  38.8239216  69.6803897  68.4281893  38.0338270  69.9361425  67.9522003
  39.3150464  70.4952235  68.5333933  40.7753962  70.0448476  65.3865369
  39.9785125  70.1567170  65.9048865  40.5479554  70.3835128  64.5206260
  37.1076919  69.9334387  70.8596883  37.3584958  70.8181397  71.1254459
  37.6436468  69.7538989  70.0871975  46.3207647  78.2361287  63.2026864
  46.1853322  79.0812822  63.6311712  46.8617459  78.4380564  62.4392798
  39.7737044  75.7536725  63.7754789  40.2861565  76.5479975  63.9260354
  40.4259757  75.0563015  63.7088391  41.5831929  78.8702481  65.8577543
  41.7598557  79.7920446  65.6698526  42.3788763  78.5560900  66.2871922
  40.8684286  70.9167113  75.7339706  40.7537801  70.0152370  76.0346805
  40.0128803  71.1630810  75.3824522  49.6700110  61.7591849  71.7325758
  49.3264380  62.6493490  71.6564868  50.0379073  61.5693506  70.8695343
  37.7385961  74.0825379  64.5514360  38.5761183  74.4922387  64.3348068
  37.9164229  73.1424821  64.5214554  49.6350393  71.7500460  60.2398193
  49.1197017  72.5205064  60.4786580  49.3627702  71.0765596  60.8631254
  47.2197504  66.5950160  65.2983431  46.3639101  66.2057011  65.1189070
  47.6324456  66.6742121  64.4383217  48.7496651  64.1296504  69.6974991
  48.2461446  64.0926639  68.8842796  49.0427258  65.0389246  69.7571648
  44.9939537  64.2135233  68.7041173  45.8592534  64.0178042  68.3447062
  45.0617046  63.9845585  69.6310529  54.6084667  74.5032814  62.1751366
  53.8314110  74.1643974  61.7306528  55.2876148  74.5085437  61.5006331
  49.4236696  69.6227552  62.0657974  49.1186832  69.9373701  62.9168117
  50.3767138  69.7008972  62.1085307  47.8683128  75.7817775  63.7150928
  47.3404490  75.0470535  63.4024165  47.3670631  76.5592451  63.4690896
  42.6001856  66.4437441  66.0757540  43.1745608  66.2212623  65.3430732
  43.1872838  66.5126136  66.8286141  51.6581433  72.3311168  66.8821916
  52.1713315  72.9641160  67.3843626  52.3082657  71.7312364  66.5165276
  42.9271443  68.4741902  60.0953425  42.0908755  68.8116589  60.4162700
  42.7876213  68.3390882  59.1580562  44.9024524  63.3178690  64.8032609
  44.2488936  63.0027707  64.1789224  44.8604998  62.6954431  65.5292432
  46.0135728  73.5997985  56.7185901  45.1062790  73.3687239  56.9177050
  46.5106760  72.8035605  56.9059883  48.9203807  82.3095493  59.6382587
  48.2465506  82.6127189  60.2467545  49.3069629  83.1124573  59.2888044
  48.1362264  69.8060624  69.1280257  47.2184825  70.0275571  68.9701945
  48.5522408  69.8806934  68.2691964  48.9197312  71.2052039  64.2582937
  49.6669131  71.7173437  63.9490059  49.1888901  70.8836092  65.1187330
  47.1923962  73.7010580  61.2409891  46.2835181  73.4169613  61.3382361
  47.2219046  74.1209659  60.3813198  52.4243229  77.3117170  65.0101059
  51.9705556  76.4708080  65.0666249  51.7937196  77.9478568  65.3475839
  51.3676149  68.2409156  66.2401726  50.6298906  67.7286542  66.5711969
  51.6202922  67.8009537  65.4285003  50.8676168  79.1493666  65.9450877
  51.1599143  79.7098724  65.2263242  51.3774789  79.4422227  66.7004036
  51.4687776  61.0185408  66.8343495  51.7746653  60.1582771  66.5469411
  52.1940381  61.6103028  66.6342489  37.7612132  71.4216094  65.2225093
  37.5636532  70.8285455  64.4976160  37.2058796  71.1168305  65.9401032
  45.7408856  71.3139201  67.3419687  45.7957466  70.3613037  67.2662163
  44.9300058  71.4698640  67.8260985  46.8900050  75.2419324  58.5797970
  46.4519480  74.5255183  58.1203607  47.6310491  75.4695439  58.0183061
  43.6801216  69.9316261  65.1010065  42.8669081  70.2310431  65.5075258
  44.1760210  69.5371949  65.8184548  45.8309794  79.9274017  67.0344330
  45.7885972  80.1534864  66.1052862  46.7472493  79.6937392  67.1830131
  55.0073164  73.5176521  64.6374288  54.8691063  73.7078117  63.7095478
  54.6509383  74.2795904  65.0942339  43.1715291  67.5034616  70.7171300
  43.8114670  67.3623375  70.0194264  42.3392821  67.2169129  70.3409902
  43.9475594  76.8037046  66.8306293  44.7416193  76.3087367  66.6288868
  43.2367287  76.2754910  66.4673998  40.2558358  70.9480128  62.9066045
  39.3255946  70.8864584  63.1236008  40.3515830  70.4256081  62.1102687
  40.1743907  67.4734941  65.4944287  40.4350724  68.3880274  65.3853448
  40.9961079  67.0059384  65.6440900  41.6468832  68.8872698  72.6643112
  42.3191886  68.6790060  72.0155761  40.8198619  68.6894784  72.2248344
  47.5494404  65.5134639  74.6808773  46.9022319  66.2124589  74.5873249
  48.3195420  65.9470783  75.0485021  47.1195022  82.4775165  61.8529666
  47.2946778  82.0063208  62.6675289  46.4327810  83.1040931  62.0810927
  48.0752086  76.7547671  67.8992968  47.7401918  76.7148441  68.7950618
  47.5756031  76.0892387  67.4263378  42.0496330  72.1615301  73.4245549
  41.9116127  71.4295540  74.0257088  42.9601253  72.0724201  73.1429737
  51.0111277  74.1003706  58.1730027  50.3940448  73.3750534  58.0763080
  50.5427766  74.8613066  57.8297102  43.3907564  68.8600478  74.7324868
  42.8544921  68.4091217  75.3846464  42.8024273  68.9946387  73.9895332
  42.8009823  68.3189130  57.2951332  41.9239289  68.1977931  56.9313578
  43.2767576  67.5275208  57.0430220  34.3211963  73.1066290  67.3892839
  35.0083003  72.7928020  66.8013854  34.1660092  74.0107654  67.1160090
  39.1246685  67.9956486  71.8177862  39.0404874  67.3882156  71.0828272
  38.3029392  68.4865504  71.8187359  45.9873749  80.6715420  64.5413852
  45.2041271  81.2137100  64.6352077  46.6866494  81.1889400  64.9408093
  49.2970399  66.4810050  67.1848057  49.7939099  65.7280012  66.8649128
  48.5257381  66.5174366  66.6191267  50.3800180  75.2381737  64.7586481
  49.4456459  75.3583199  64.5891185  50.5576848  74.3354204  64.4946491
  45.8805368  68.6227433  66.9119742  45.5103156  68.0698473  67.6000648
  46.3764461  68.0185566  66.3594742  53.7672731  71.0799056  65.2936515
  54.2333184  71.9127048  65.2196818  54.2180232  70.6144038  65.9981774
  51.8348962  77.4242877  62.2922667  52.1108806  77.3099472  63.2016541
  50.9653461  77.0260362  62.2534840  51.7389394  63.4479643  69.3327416
  50.8252474  63.6783870  69.5009623  52.1682496  63.5318087  70.1841449
  48.4703026  81.6729228  65.9355481  48.6525421  80.8550884  66.3983233
  49.2936012  81.8896921  65.4980371  48.8045192  80.5997413  63.1970529
  49.3332958  80.0889868  62.5840691  49.0673412  80.2839944  64.0616062
  39.3062285  78.6161283  70.9405863  39.8915722  77.8704971  71.0733767
  39.1087123  78.9265239  71.8242527  42.1600940  81.6512530  65.9568305
  41.4911315  82.1358658  65.4732345  42.0213810  81.8981751  66.8711684
  33.8979939  71.1866883  69.6610306  33.9364039  70.6530474  70.4547424
  33.3920232  70.6602088  69.0421283  41.2770702  66.0331423  73.1572848
  41.3412028  66.8946254  72.7450246  41.2137822  65.4205425  72.4245207
  40.7522974  68.1054556  76.8045882  41.3795013  67.7231633  77.4183407
  39.8950893  67.8868758  77.1701575  37.5288517  69.9130985  62.7364237
  37.8241958  69.0041663  62.6831291  36.6276553  69.8918725  62.4145240
  41.0582764  67.9886982  68.7191786  40.3369350  68.6022949  68.5799259
  41.8476020  68.5244746  68.6408432  43.8609078  65.3241408  74.9932438
  44.3843479  65.5703705  75.7558747  43.6421411  66.1561443  74.5735575
  39.2576359  67.5945083  62.8603562  38.9289065  66.7142462  62.6778668
  39.6115729  67.5392751  63.7479952  48.5055937  79.2299985  67.3698548
  48.3580900  78.3016693  67.5506118  49.3309431  79.2520076  66.8855623
  42.3718182  67.8818053  63.2279040  42.7114254  68.4103974  62.5057648
  42.8190302  68.2198459  64.0037607  45.0661623  66.2655103  72.6782108
  44.7258443  65.4662916  73.0802788  44.3600629  66.5656814  72.1058941
  45.7178094  63.3504416  71.1309431  46.5404164  62.8764894  71.0088321
  45.9616158  64.1294899  71.6308117  44.3586329  66.3792674  61.4272333
  45.0794691  66.7573927  60.9236050  43.7351633  67.0981551  61.5307311
  48.5017452  67.0837823  62.3630665  48.7181066  67.9662461  62.0619493
  48.0211519  66.6924036  61.6336307  43.2416673  70.0423536  68.9401410
  43.0961254  70.3563839  69.8325691  42.7641877  70.6608437  68.3872308
  45.1013056  67.0326084  68.9882299  45.0874625  66.1367178  68.6514597
  45.8185484  67.0396748  69.6220585  46.9539187  67.4663425  71.0335427
  46.6956965  68.3880495  71.0319757  46.4224227  67.0693859  71.7235891
  51.8985376  80.5714212  63.8125512  52.0722253  80.0060634  63.0599365
  52.3914267  81.3715107  63.6305002  37.7162335  72.5828881  71.8789071
  37.1715803  73.3588689  72.0109345  38.5941685  72.9299685  71.7208192
  44.5049952  65.9140465  64.2569869  44.6265863  64.9857111  64.4560757
  44.2151994  65.9279151  63.3448185  47.3741142  63.5995375  67.3936589
  47.3962839  63.6634708  66.4388569  47.7909201  62.7599884  67.5877095
  57.7524767  73.3350635  65.4315812  58.1955913  72.5857960  65.0334935
  56.8751277  73.3260771  65.0489544  52.8860548  79.8880976  60.9122410
  53.5811453  80.5087669  61.1309725  53.2283698  79.0376327  61.1874788
  38.5028357  71.7098777  74.7719228  37.7610093  71.8581412  75.3583858
  38.1821101  71.9707043  73.9085977  54.7851971  77.3380682  62.4409741
  55.3103295  77.6767954  61.7159061  54.6974324  76.4027697  62.2572876
  38.9484971  79.5964206  66.8029622  39.7742991  79.2967978  66.4228266
  38.5979023  78.8271828  67.2519411  43.9166504  78.9490674  68.8727296
  43.2946513  78.2861379  68.5729524  44.5871371  78.9751806  68.1900944
  37.1493576  77.5150532  67.7618556  36.3125484  77.0872707  67.5802557
  37.1217221  77.7082975  68.6989347  43.4780011  77.4994597  62.3485757
  43.6268131  78.1830062  61.6952429  44.2846454  77.4799687  62.8635212
  41.2332644  73.5259775  63.3546825  40.9878686  72.6222105  63.5527036
  41.4028558  73.5276925  62.4126303  48.9229354  64.3983451  72.7371581
  49.4411298  65.1344478  72.4118070  48.5684487  64.7047445  73.5718340
  40.5028291  69.2588132  60.8532987  39.8097536  69.3332487  60.1973023
  40.2580043  68.4948476  61.3754504  49.1741948  60.8183734  68.2572478
  49.4543702  60.1506923  68.8832904  49.9592555  61.0112829  67.7447142
  46.9775416  79.9942728  59.8197504  46.4049384  80.6132915  59.3667976
  47.5508210  80.5442089  60.3537426  51.0665186  66.3256951  72.1903454
  50.4715118  66.6061964  71.4949942  50.7814882  66.8150852  72.9620195
  50.1972676  80.2779878  60.9506086  51.1303349  80.2125440  61.1538962
  50.1095889  81.1136145  60.4920619  52.8260693  79.5945748  57.9110034
  52.7474324  79.2605612  58.8045792  53.6470360  80.0867516  57.9101506
  47.3622215  71.3303540  57.1613557  48.3081320  71.2009749  57.2301975
  46.9836460  70.5918202  57.6382985  53.3344099  62.9959546  67.1240448
  53.1368921  62.6874635  68.0083780  53.9443805  63.7221185  67.2538378
  45.5465132  69.2553517  57.0968442  44.6396587  68.9586630  57.1731155
  45.8241113  68.9583335  56.2302728  36.4643072  70.5759880  67.5467488
  36.1445857  69.7225188  67.2541862  35.9176501  70.7908458  68.3025455
  40.2422980  73.2922321  71.2636995  40.4608990  74.2239429  71.2825028
  40.6548754  72.9330296  72.0491798  47.1627198  63.7990407  63.2512683
  46.3527926  63.4537492  63.6267929  47.8511615  63.4897950  63.8400295
  49.0917746  62.8768453  64.8736980  49.6448785  63.2963907  65.5327003
  49.3287832  61.9504201  64.9159936  44.3163917  66.1140452  57.2380421
  45.1783081  66.4395350  57.4976238  44.5014261  65.3271948  56.7253487
  36.3331332  74.1962792  69.5160610  35.6394804  73.7816745  69.0030564
  37.0804323  74.2383328  68.9194029  52.4696553  64.9868979  64.3815644
  51.8895222  65.6453783  63.9993696  52.2032486  64.1646323  63.9703061
  50.9200120  64.3874036  66.5836964  51.4199898  64.4990571  65.7751283
  51.5635727  64.0835089  67.2237773  38.2468075  74.1281046  67.3926625
  38.2238763  74.2268733  66.4408508  38.5568712  74.9746196  67.7143791
  40.9055453  76.1857201  71.5073239  41.8598706  76.1541143  71.4403171
  40.7067976  75.7247824  72.3223465  51.2521431  67.1469069  63.4371992
  50.3647286  67.4318720  63.2192187  51.6675420  66.9862832  62.5899269
  54.6035967  67.1715590  67.1526331  55.3796357  67.6612042  67.4250948
  53.8784102  67.5973644  67.6098201  57.0408526  67.8843209  68.2100272
  57.6353017  67.6438945  67.4993580  57.1135110  67.1650340  68.8373808
  39.2605682  81.7276820  68.5243437  39.1260150  80.9677221  67.9581435
  38.8437744  82.4517720  68.0572226  50.3964645  76.9113744  57.5320012
  51.1000495  77.1163746  58.1477668  49.6727293  77.4790505  57.7969096
  51.2262455  72.6623605  63.6522282  51.1697656  73.1192156  62.8129915
  51.7790797  71.9014289  63.4745125  55.0367261  68.4513337  64.4772402
  54.7804195  68.0509972  65.3080610  54.4120129  69.1657131  64.3522541
  59.3479599  71.1909410  66.9843693  58.7879157  71.2602599  67.7575255
  58.7423102  71.0150395  66.2643189  52.3051342  77.3496273  59.5818472
  53.1396946  76.9177471  59.3995947  52.1435685  77.1778286  60.5095367
  51.9597234  73.8528386  60.9474812  51.9046038  73.6872658  60.0063256
  51.3343290  74.5604419  61.1037001  36.7489749  69.0896450  74.7736234
  37.3948613  68.5795404  75.2623459  36.5406900  69.8265132  75.3479659
  45.2693360  63.3536495  60.5260130  45.2572030  64.2978335  60.6828401
  46.1616782  63.1706641  60.2319591  49.0845479  59.9479272  64.7806067
  48.3177875  59.3937758  64.9262749  49.4956184  60.0201141  65.6420218
  55.4433603  86.5881599  58.9452114  55.6959124  86.0663121  58.1835577
  54.5058162  86.4247745  59.0478797  57.1466920  82.9809752  59.8484527
  57.3141322  83.8489989  60.2154998  56.9564089  83.1437034  58.9245816
  53.7665197  83.8033820  60.0953425  52.9302510  84.1408507  60.4162700
  53.6269967  83.6682800  59.1580562  55.7418278  78.6470608  64.8032609
  55.0882690  78.3319625  64.1789224  55.6998752  78.0246348  65.5292432
  56.8529483  88.9289903  56.7185901  55.9456545  88.6979156  56.9177050
  57.3500515  88.1327522  56.9059883  51.0952112  86.2772046  62.9066045
  50.1649701  86.2156501  63.1236008  51.1909584  85.7547999  62.1102687
  53.6403578  83.6481048  57.2951332  52.7633044  83.5269848  56.9313578
  54.1161331  82.8567126  57.0430220  48.3682271  85.2422903  62.7364237
  48.6635713  84.3333581  62.6831291  47.4670307  85.2210642  62.4145240
  50.0970113  82.9237000  62.8603562  49.7682819  82.0434379  62.6778668
  50.4509484  82.8684669  63.7479952  55.1980083  81.7084592  61.4272333
  55.9188446  82.0865845  60.9236050  54.5745388  82.4273469  61.5307311
  55.3443706  81.2432382  64.2569869  55.4659618  80.3149028  64.4560757
  55.0545749  81.2571068  63.3448185  51.3422046  84.5880050  60.8532987
  50.6491291  84.6624405  60.1973023  51.0973798  83.8240394  61.3754504
  58.2015969  86.6595458  57.1613557  59.1475074  86.5301666  57.2301975
  57.8230214  85.9210120  57.6382985  56.3858887  84.5845435  57.0968442
  55.4790342  84.2878547  57.1731155  56.6634868  84.2875253  56.2302728
  58.0020952  79.1282324  63.2512683  57.1921681  78.7829409  63.6267929
  58.6905369  78.8189868  63.8400295  55.1557671  81.4432370  57.2380421
  56.0176835  81.7687268  57.4976238  55.3408015  80.6563866  56.7253487
  56.1087114  78.6828413  60.5260130  56.0965784  79.6270253  60.6828401
  57.0010536  78.4998558  60.2319591  59.9239234  75.2771189  64.7806067
  59.1571629  74.7229676  64.9262749  60.3349939  75.3493058  65.6420218
  17.5760600   3.5560376  56.4018956  18.2139010   3.4367123  55.6982296
  17.4581443   4.5041220  56.4606908  14.3850307   3.5087804  56.3380480
  14.0468818   3.3928869  55.4501015  15.2540075   3.1078969  56.3181486
  15.8236681   9.0294248  47.6391836  15.1724661   9.6148328  47.2525850
  16.6181044   9.5600443  47.6986874   9.7492308   6.1183385  48.0378971
  10.5223184   5.5712372  47.8991846  10.1017707   6.9827634  48.2493432
  12.5133558   4.8236616  57.8347229  13.1097130   4.5992638  57.1204192
  12.5708529   4.0821361  58.4372677  17.1301869   1.2811830  53.4772164
  17.9164958   0.8631253  53.1262581  17.3940573   2.1857922  53.6453812
  17.3011946   6.7184680  48.1760820  16.6657779   6.7919306  48.8881725
  16.9709353   7.3078279  47.4979900  22.5310296   1.2187063  54.3805142
  23.2635468   0.6486280  54.6142972  21.7749652   0.8308663  54.8211648
  14.1486416   3.6414304  51.5768485  13.7844623   3.1144925  52.2881406
  15.0053532   3.2512773  51.4034970  16.5467236   7.1321183  58.2395664
  16.2467959   8.0346222  58.1311471  16.2018295   6.8653366  59.0916816
  19.9464380  -0.3496277  55.9193101  19.0381257  -0.4180868  55.6251862
  19.8951976   0.1275668  56.7474926  11.5288016  13.8965503  51.2066631
  11.4512045  14.8473328  51.2855112  10.9249659  13.5511376  51.8641558
  19.4666190   1.5983335  48.3856834  20.3784046   1.8310721  48.2104532
  18.9575837   2.1820379  47.8231913  18.0735772   6.5809153  55.7770415
  17.4444635   6.7454867  55.0746483  17.6861434   6.9950763  56.5481380
  21.9525004   7.5163591  53.1314779  21.2676042   7.8962492  52.5811813
  22.0368853   8.1258918  53.8646727  19.2075936   5.1623550  59.7310123
  19.4192831   5.8055310  59.0544504  19.1605684   4.3285867  59.2632053
  13.6263734   6.3183561  53.0420501  14.0902080   6.5971264  52.2525123
  13.3620532   5.4167006  52.8593591  10.5187815   5.8655043  55.9800264
  11.0889172   6.2942311  55.3417748  11.1095927   5.5837627  56.6784449
  20.3221764   8.0395505  57.9032480  21.1439207   7.6375693  57.6215162
  20.3184166   7.9363740  58.8548596  14.0878367   7.5879549  60.0593191
  14.1522800   8.0499956  60.8951362  13.3789291   6.9576914  60.1875500
  28.4127757   4.3834254  54.2517452  27.6591465   3.8141652  54.0961456
  28.5475298   4.3496918  55.1988086  13.8026385   9.2547656  49.9272171
  13.6672059  10.0999192  50.3557019  14.3436197   9.4566934  49.1638105
   9.0650667   9.8888851  52.5822849   9.2417295  10.8106815  52.3943833
   9.8607500   9.5747270  53.0117229  10.1881982  11.4067024  58.5833192
  10.7389407  11.2784088  57.8110185   9.3493458  11.7061913  58.2328084
  17.5276099  10.1574023  62.0853914  17.5094574  10.9782904  61.5934183
  18.4496019  10.0328098  62.3104055  17.1169131   2.7686829  46.9643500
  16.6015754   3.5391434  47.2031887  16.8446439   2.0951965  47.5876561
  22.0903405   5.5219184  48.8996673  21.3132848   5.1830343  48.4551835
  22.7694886   5.5271807  48.2251638  15.3501866   6.8004145  50.4396235
  14.8223228   6.0656904  50.1269472  14.8489369   7.5778821  50.1936203
  20.3294712   4.9953165  55.5563281  19.6718386   5.6852427  55.6443410
  21.1335111   5.3849597  55.8997267  19.1400171   3.3497538  53.6067223
  19.6532053   3.9827530  54.1088932  19.7901395   2.7498733  53.2410583
  13.4954466   4.6184355  43.4431208  12.5881528   4.3873608  43.6422357
  13.9925498   3.8221974  43.6305189  16.4022545  13.3281862  46.3627894
  15.7284244  13.6313559  46.9712852  16.7888367  14.1310942  46.0133351
  16.4016049   2.2238409  50.9828244  17.1487868   2.7359806  50.6735366
  16.6707639   1.9022462  51.8432637  14.6742700   4.7196950  47.9655198
  13.7653919   4.4355983  48.0627668  14.7037783   5.1396028  47.1058505
  19.9061967   8.3303539  51.7346365  19.4524294   7.4894449  51.7911556
  19.2755934   8.9664938  52.0721146  18.3494906  10.1680036  52.6696183
  18.6417881  10.7285093  51.9508549  18.8593527  10.4608597  53.4249343
  14.3718787   6.2605693  45.3043276  13.9338217   5.5441552  44.8448914
  15.1129228   6.4881808  44.7428368  13.3128531  10.9460387  53.7589637
  13.2704710  11.1721233  52.8298169  14.2291230  10.7123762  53.9075438
  22.4891902   4.5362890  51.3619595  22.3509801   4.7264486  50.4340784
  22.1328121   5.2982273  51.8187646  22.5161282   6.6039417  56.3730866
  22.9497788   6.5114707  57.2213920  23.2292863   6.5796918  55.7350882
  11.4294332   7.8223416  53.5551599  12.2234931   7.3273736  53.3534174
  10.7186025   7.2941279  53.1919305  16.2489177  10.2041512  57.9063967
  16.3026199  10.7732448  58.6741683  15.3803958  10.3743397  57.5418004
  23.3776831   6.6463118  58.9063752  23.5712721   7.5508929  59.1523027
  23.2777450   6.1870537  59.7402337  15.2077276   4.3701774  59.4650899
  16.1369336   4.5212933  59.2919866  14.7868306   4.4585794  58.6099545
  14.0065608   8.3952438  57.2349437  13.8676694   8.0271222  58.1075375
  13.2180204   8.9100077  57.0633394  14.6013760  13.4961535  48.5774973
  14.7765516  13.0249578  49.3920596  13.9146548  14.1227301  48.8056234
  15.5570823   7.7734041  54.6238274  15.2220656   7.7334811  55.5195924
  15.0574769   7.1078757  54.1508685  18.4930015   5.1190075  44.8975334
  17.8759186   4.3936903  44.8008387  18.0246503   5.8799435  44.5542408
  20.1484147   9.8288983  62.5581114  20.0896693   9.1448204  61.8911697
  20.5503665  10.5707973  62.1061740   9.1674845  16.6450897  55.3514833
   9.4071444  17.2769421  56.0293852   8.3244042  16.2938937  55.6380192
  20.1501554   7.7928567  60.7895094  19.2628333   7.4554489  60.9121493
  20.7200105   7.0611599  61.0263859  13.6802707  12.4530020  57.7556337
  13.6072879  13.2584991  58.2675642  13.2380100  12.6521986  56.9304359
  13.4692487  11.6901790  51.2659159  12.6860009  12.2323470  51.3597383
  14.1685232  12.2075769  51.6653400  24.6318894   3.2036785  55.5511656
  24.6208771   4.0861500  55.1805589  23.7636274   2.8508336  55.3566193
  16.1401391  12.3516854  59.9114496  16.8529363  12.9864319  59.8390397
  15.6491420  12.4480720  59.0954498  17.8618918   6.2568106  51.4831788
  16.9275197   6.3769569  51.3136492  18.0395586   5.3540573  51.2191797
  21.2491469   2.0985426  52.0181822  21.7151921   2.9313417  51.9442124
  21.6998970   1.6330407  52.7227080  11.1913304  10.1011297  60.7320067
  11.8922764  10.7347780  60.8849461  10.7208419  10.4426029  59.9715706
  19.3167700   8.4429247  49.0167974  19.5927544   8.3285842  49.9261848
  18.4472199   8.0446732  48.9780147  18.9914590   2.6555905  58.5572617
  18.3386041   2.9031812  57.9025070  19.3694970   1.8420043  58.2235094
  15.9521764  12.6915598  52.6600787  16.1344159  11.8737254  53.1228540
  16.7754750  12.9083290  52.2225677  16.2863930  11.6183783  49.9215836
  16.8151696  11.1076238  49.3085998  16.5492149  11.3026313  50.7861369
   6.7881022   9.6347652  57.6651169   7.3734459   8.8891340  57.7979074
   6.5905861   9.9451609  58.5487833   9.6419678  12.6698900  52.6813612
   8.9730053  13.1545027  52.1977652   9.5032547  12.9168120  53.5956990
  13.7824946  14.7042643  59.2796270  14.3343254  14.8674265  60.0445355
  14.1231140  15.2947081  58.6076295  16.9193334  12.6524619  56.2659952
  16.7944473  11.8514359  55.7570898  17.5772425  13.1470812  55.7773922
  18.9828242  10.4533639  57.8939502  18.0358577  10.3338990  57.8217829
  19.3311015   9.5656137  57.9765764  15.9874675  10.2486355  54.0943855
  15.8399638   9.3203062  54.2751425  16.8128169  10.2706446  53.6100930
  19.5908797  11.0714914  55.1808727  20.5155345  10.8657775  55.0433178
  19.4224100  10.8231315  56.0898069  19.3804113  11.5900581  50.5370819
  19.5540991  11.0247004  49.7844671  19.8733005  12.3901476  50.3550309
  25.2343504   4.3537004  52.1561119  25.6774650   3.6044329  51.7580242
  24.3570015   4.3447140  51.7734851  20.3679286  10.9067346  47.6367717
  21.0630190  11.5274038  47.8555032  20.7102436  10.0562697  47.9120095
  22.2670709   8.3567051  49.1655048  22.7922033   8.6954324  48.4404368
  22.1793061   7.4214066  48.9818182  13.9290758  12.2701125  61.2944924
  14.2377884  12.0250272  62.1667624  14.7266240  12.4747763  60.8063795
  13.9511370  14.4239034  53.5250301  13.5116360  13.9315413  54.2183158
  14.7019487  13.8812002  53.2842376   6.4303709  10.6150575  53.5274929
   7.2561729  10.3154347  53.1473573   6.0797761   9.8458198  53.9764718
  11.3985242   9.9677043  55.5972603  10.7765251   9.3047749  55.2974831
  12.0690109   9.9938175  54.9146250  21.9564615   8.9899955  64.4706246
  21.1660159   8.9724094  63.9310745  21.7197970   9.5288248  65.2255282
  22.0762490   5.8392421  61.7838974  22.1260495   5.6742429  62.7254497
  21.9676413   4.9719680  61.3936855  10.9598749   8.5180967  49.0731063
  11.1086869   9.2016431  48.4197736  11.7665192   8.4986057  49.5880519
  23.5780687   8.2589363  62.0280996  23.2865495   8.6219343  62.8644457
  22.9652818   7.5456371  61.8494328  24.7776369   5.8242242  54.5483566
  25.6123261   6.2632047  54.7121126  24.9135498   5.3480896  53.7291812
  21.8267875   3.3821977  60.4961054  22.3021997   3.5749624  59.6879905
  20.9033440   3.4381163  60.2504438  14.4594154  11.0129097  46.5442811
  13.8868121  11.6319284  46.0913283  15.0326948  11.5628459  47.0782733
  20.5269544   0.2587737  58.7289359  21.4786967   0.3585835  58.7501583
  20.3572995  -0.5333994  59.2387444  17.6791414  11.2966247  47.6751393
  18.6122087  11.2311809  47.8784268  17.5914627  12.1322514  47.2165926
  20.3079431  10.6132118  44.6355340  20.2293062  10.2791981  45.5291098
  21.1289097  11.1053886  44.6346813  23.0057622   3.4793857  57.8431659
  22.9733942   2.5409858  58.0291343  23.6158246   3.5577894  57.1097484
  23.1552110   0.2704900  57.8889942  22.6391159  -0.5136643  57.7019871
  24.0392059  -0.0576383  58.0536462  28.8234172   4.5409864  56.9837696
  29.5537560   4.2795152  57.5445399  28.2141117   3.8038586  57.0239764
  26.9049469   2.6817726  57.5812147  26.1782632   2.5473691  56.9728639
  26.4896756   2.9894555  58.3868865  22.0854705  -1.8098041  53.8771638
  22.8615095  -1.3201588  54.1496255  21.3602839  -1.3839986  54.3343508
  24.5227264  -1.0970421  54.9345579  25.1171755  -1.3374685  54.2238887
  24.5953847  -1.8163291  55.5619115   6.7424419  12.7463190  55.2488744
   6.6078887  11.9863591  54.6826742   6.3256482  13.4704089  54.7817532
  17.8783382   7.9300113  44.2565319  18.5819233   8.1350116  44.8722974
  17.1546031   8.4976875  44.5214402  18.7081193   3.6809974  50.3767589
  18.6516394   4.1378526  49.5375221  19.2609535   2.9200659  50.1990432
  22.5185999  -0.5300294  51.2017708  22.2622933  -0.9303658  52.0325916
  21.8938867   0.1843500  51.0767848  26.8298337   2.2095780  53.7089000
  26.2697894   2.2788969  54.4820562  26.2241840   2.0336764  52.9888496
   9.8993545  13.6432507  55.4607186   9.7825929  14.5877939  55.3585876
   9.0785992  13.3406068  55.8492985  19.7870080   8.3682642  46.3063779
  20.6215684   7.9363841  46.1241254  19.6254423   8.1964656  47.2340673
  19.4415972   4.8714756  47.6720118  19.3864776   4.7059027  46.7308562
  18.8162027   5.5790789  47.8282308  10.9248059  14.2960769  58.6763115
  11.8275306  14.3284379  58.9929610  10.6985430  13.3661219  58.6909450
  12.6801661  13.0491755  55.3373193  11.7297292  13.0493617  55.2237566
  12.9834148  12.3024490  54.8209228  25.7063844  19.9914573  62.2966686
  25.6952485  19.5967372  61.4247189  25.8684484  19.2580646  62.8900457
  18.6295309  22.1866390  55.1661592  19.4216601  21.8457214  54.7507891
  18.8691959  22.2961365  56.0863745  22.4271105  22.7751685  61.2445870
  22.1360971  23.6797316  61.1292536  23.0628090  22.8168213  61.9589939
  23.3527312  20.1528534  57.8347229  23.9490884  19.9284556  57.1204192
  23.4102284  19.4113279  58.4372677  27.9695623  16.6103747  53.4772164
  28.7558713  16.1923170  53.1262581  28.2334328  17.5149839  53.6453812
  33.3704051  16.5478981  54.3805142  34.1029223  15.9778197  54.6142972
  32.6143406  16.1600581  54.8211648  30.8929471  10.2600555  58.8399751
  30.5612796  11.1295966  58.6160966  30.2975084   9.9436839  59.5193781
  24.6285657  13.9996122  46.5729833  24.7960060  14.8676358  46.9400304
  24.4382826  14.1623403  45.6491122  20.8373472  18.9126897  54.2732368
  19.9123968  18.7803112  54.4810060  21.0857885  19.6921117  54.7702310
  30.7858134  14.9795641  55.9193101  29.8775012  14.9111049  55.6251862
  30.7345730  15.4567586  56.7474926  18.1982283  18.5560171  55.1076157
  18.3274664  18.8094650  56.0215569  17.5179734  19.1487879  54.7880812
  24.8599000  16.3985286  63.8627998  24.0832334  16.9579207  63.8530863
  25.4989563  16.8842069  64.3842868  32.6519781  13.1812079  57.6970975
  32.0094161  13.4744612  57.0510769  32.1474709  13.0665000  58.5024171
  30.3059944  16.9275252  48.3856834  31.2177800  17.1602639  48.2104532
  29.7969591  17.5112297  47.8231913  23.1145372  19.2070740  63.4245965
  23.8560057  19.7455784  63.1480789  22.4082358  19.8337029  63.5817517
  24.9431782  16.2872487  59.3951684  25.7892977  16.7111901  59.5386333
  24.8830420  15.6306111  60.0890247  28.0931227  13.9476855  61.0532857
  27.8492159  14.7018916  60.5167133  28.3691158  14.3262203  61.8880104
  27.6495919  13.1033288  56.6346695  26.7880398  13.4014542  56.9263432
  27.6758354  13.3203687  55.7027728  21.3581570  21.1946960  55.9800264
  21.9282927  21.6234229  55.3417748  21.9489681  20.9129545  56.6784449
  21.8506736  16.3610388  64.2261275  21.2205397  17.0426669  64.4596672
  21.7442824  16.2493470  63.2814413  17.1451709  16.0282184  55.1527199
  16.3550763  16.2839712  54.6767310  17.6362956  16.8430522  55.2579240
  19.0966454  16.3926763  52.1110676  18.2997617  16.5045457  52.6294172
  18.8692046  16.7313415  51.2451566  15.4289412  16.2812674  57.5842190
  15.6797450  17.1659684  57.8499766  15.9648960  16.1017276  56.8117282
  24.0455440  12.0789033  64.1806783  24.7865153  12.6796186  64.1011245
  24.2773363  11.3366671  63.6224825  19.1896778  17.2645400  62.4585012
  19.0750293  16.3630657  62.7592111  18.3341296  17.5109097  62.1069829
  26.2688616  25.2063140  64.0572513  25.8252470  24.4199519  63.7393418
  26.9305829  25.3942291  63.3916404  21.0275737  26.7358942  58.5833192
  21.5783162  26.6076005  57.8110185  20.1887213  27.0353831  58.2328084
  24.8242908  23.0010070  62.9277423  25.3571245  22.2398358  62.6976731
  24.2956989  22.7083722  63.6701577  27.9912603   8.1070136  58.4571064
  27.6476872   8.9971777  58.3810175  28.3591565   7.9171793  57.5940649
  16.0598453  20.4303666  51.2759667  16.8973675  20.8400675  51.0593374
  16.2376721  19.4903108  51.2459860  25.5409997  12.9428448  52.0228738
  24.6851593  12.5535298  51.8434377  25.9536948  13.0220408  51.1628523
  27.0709143  10.4774791  56.4220298  26.5673939  10.4404926  55.6088103
  27.3639750  11.3867534  56.4816954  23.3152029  10.5613521  55.4286479
  24.1805026  10.3656329  55.0692369  23.3829538  10.3323872  56.3555836
  32.9297160  20.8511102  48.8996673  32.1526602  20.5122261  48.4551835
  33.6088641  20.8563725  48.2251638  20.9214348  12.7915729  52.8002846
  21.4958100  12.5690910  52.0676039  21.5085331  12.8604423  53.5531447
  21.2483935  14.8220190  46.8198731  20.4121247  15.1594876  47.1408006
  21.1088705  14.6869169  45.8825868  23.2237016   9.6656977  51.5277916
  22.5701428   9.3505995  50.9034530  23.1817490   9.0432718  52.2537739
  26.4574756  16.1538911  55.8525563  25.5397318  16.3753858  55.6947251
  26.8734900  16.2285222  54.9937271  27.2409804  17.5530327  50.9828244
  27.9881623  18.0651724  50.6735366  27.5101393  17.2314379  51.8432637
  29.6888641  14.5887443  52.9647033  28.9511398  14.0764829  53.2957275
  29.9415415  14.1487825  52.1530310  29.7900268   7.3663695  53.5588802
  30.0959145   6.5061058  53.2714717  30.5152873   7.9581315  53.3587796
  16.0824624  17.7694382  51.9470400  15.8849024  17.1763742  51.2221467
  15.5271288  17.4646592  52.6646339  24.0621348  17.6617488  54.0664993
  24.1169958  16.7091324  53.9907470  23.2512550  17.8176927  54.5506292
  22.0013708  16.2794548  51.8255372  21.1881574  16.5788718  52.2320564
  22.4972702  15.8850237  52.5429854  33.3285657  19.8654808  51.3619595
  33.1903555  20.0556404  50.4340784  32.9721876  20.6274191  51.8187646
  21.4927783  13.8512903  57.4416607  22.1327162  13.7101662  56.7439570
  20.6605313  13.5647417  57.0655209  22.2688087  23.1515334  53.5551599
  23.0628685  22.6565654  53.3534174  21.5579779  22.6233197  53.1919305
  18.5770850  17.2958415  49.6311352  17.6468438  17.2342871  49.8481314
  18.6728322  16.7734368  48.8347993  18.4956399  13.8213228  52.2189594
  18.7563217  14.7358562  52.1098754  19.3173572  13.3537671  52.3686207
  19.9681325  15.2350985  59.3888418  20.6404378  15.0268348  58.7401067
  19.1411111  15.0373071  58.9493651  25.8706897  11.8612926  61.4054079
  25.2234812  12.5602876  61.3118556  26.6407912  12.2949070  61.7730327
  29.2785695  22.1261779  64.4804632  29.1271201  21.8972330  63.5634716
  29.2690374  23.0832380  64.4935977  20.3708822  18.5093588  60.1490855
  20.2328620  17.7773827  60.7502395  21.2813745  18.4202489  59.8675043
  22.9991123  18.2213548  59.6374535  23.7090741  17.5806740  59.5961154
  22.9560431  18.4726443  60.5600716  21.7120056  15.2078766  61.4570175
  21.1757413  14.7569504  62.1091771  21.1236765  15.3424674  60.7140639
  20.0068600  31.9742815  55.3514833  20.2465198  32.6061339  56.0293852
  19.1637796  31.6230855  55.6380192  21.1222315  14.6667417  44.0196638
  20.2451782  14.5456218  43.6558885  21.5980069  13.8753495  43.7675527
  12.6424456  19.4544577  54.1138145  13.3295495  19.1406307  53.5259161
  12.4872584  20.3585941  53.8405397  17.4459178  14.3434773  58.5423169
  17.3617366  13.7360443  57.8073579  16.6241884  14.8343792  58.5432665
  27.6182892  12.8288337  53.9093364  28.1151591  12.0758299  53.5894434
  26.8469873  12.8652654  53.3436573  24.2017860  14.9705720  53.6365049
  23.8315648  14.4176760  54.3245954  24.6976953  14.3663853  53.0840049
  32.0885224  17.4277343  52.0181822  32.5545676  18.2605335  51.9442124
  32.5392724  16.9622325  52.7227080  22.0307059  25.4303215  60.7320067
  22.7316518  26.0639698  60.8849461  21.5602174  25.7717946  59.9715706
  30.0601886   9.7957930  56.0572723  29.1464966  10.0262157  56.2254930
  30.4894988   9.8796374  56.9086755  25.8795918  18.7267633  65.0438654
  25.2036555  18.6261763  65.7141029  26.7023552  18.5706847  65.5074651
  17.6274777  24.9639570  57.6651169  18.2128214  24.2183258  57.7979074
  17.4299615  25.2743527  58.5487833  12.2192432  17.5345170  56.3855613
  12.2576531  17.0008761  57.1792731  11.7132725  17.0080376  55.7666590
  19.5983194  12.3809711  59.8818155  19.6624520  13.2424542  59.4695553
  19.5350314  11.7683712  59.1490513  19.0735467  14.4532843  63.5291189
  19.7007505  14.0709921  64.1428713  18.2163385  14.2347045  63.8946882
  15.8501009  16.2609272  49.4609544  16.1454450  15.3519951  49.4076598
  14.9489045  16.2397012  49.1390546  19.3795256  14.3365269  55.4437092
  18.6581842  14.9501237  55.3044566  20.1688512  14.8723034  55.3653738
  22.1821570  11.6719695  61.7177744  22.7055972  11.9181992  62.4804054
  21.9633903  12.5039730  61.2980882  17.5788851  13.9423370  49.5848869
  17.2501557  13.0620749  49.4023975  17.9328222  13.8871039  50.4725258
  20.6930674  14.2296340  49.9524347  21.0326747  14.7582261  49.2302955
  21.1402794  14.5676746  50.7282913  23.3874115  12.6133390  59.4027415
  23.0470935  11.8141204  59.8048095  22.6813121  12.9135101  58.8304248
  24.0390587   9.6982703  57.8554738  24.8616656   9.2243181  57.7333628
  24.2828650  10.4773187  58.3553424  22.6798821  12.7270961  48.1517639
  23.4007184  13.1052214  47.6481356  22.0564125  13.4459838  48.2552617
  26.8229944  13.4316110  49.0875972  27.0393558  14.3140748  48.7864800
  26.3424011  13.0402324  48.3581614  21.5629165  16.3901824  55.6646716
  21.4173746  16.7042127  56.5570998  21.0854369  17.0086724  55.1117615
  23.4225548  13.3804372  55.7127606  23.4087117  12.4845465  55.3759904
  24.1397976  13.3875035  56.3465892  25.2751679  13.8141712  57.7580733
  25.0169457  14.7358782  57.7565064  24.7436719  13.4172146  58.4481198
  16.0374828  18.9307168  58.6034378  15.4928296  19.7066976  58.7354652
  16.9154177  19.2777972  58.4453499  22.8262444  12.2618752  50.9815176
  22.9478355  11.3335398  51.1806064  22.5364487  12.2757438  50.0693492
  25.6953635   9.9473662  54.1181896  25.7175331  10.0112995  53.1633876
  26.1121694   9.1078171  54.3122402  16.8240849  18.0577064  61.4964534
  16.0822585  18.2059700  62.0829165  16.5033594  18.3185330  60.6331284
  17.2697463  25.9442493  53.5274929  18.0955483  25.6446265  53.1473573
  16.9191515  25.1750115  53.9764718  22.2378996  25.2968961  55.5972603
  21.6159006  24.6339666  55.2974831  22.9083863  25.3230093  54.9146250
  15.4706068  23.8628819  54.4863863  14.6337976  23.4350994  54.3047864
  15.4429714  24.0561263  55.4234654  22.3103524  13.7750749  65.1905109
  22.3591679  14.6512872  64.8082878  22.8526038  13.2328142  64.6176752
  32.9156245  21.1684339  61.7838974  32.9654249  21.0034346  62.7254497
  32.8070168  20.3011598  61.3936855  30.2060007  17.1515267  63.0998281
  31.1069870  17.0121732  62.8082279  30.2807981  17.3169722  64.0396458
  24.5402812  14.5282122  61.9451467  23.6706122  14.8215688  61.6734056
  24.7762293  15.1122567  62.6658731  27.2441846  10.7461739  59.4616888
  27.7623790  11.4822765  59.1363376  26.8896979  11.0525732  60.2963647
  18.8240784  15.6066420  47.5778294  18.1310029  15.6810775  46.9218330
  18.5792536  14.8426763  48.0999811  27.4954440   7.1662021  54.9817784
  27.7756194   6.4985210  55.6078211  28.2805047   7.3591117  54.4692448
  29.3877678  12.6735238  58.9148760  28.7927610  12.9540251  58.2195249
  29.1027375  13.1629139  59.6865501  33.9945865  15.5996818  57.8889942
  33.4784913  14.8155275  57.7019871  34.8785813  15.2715535  58.0536462
  31.6556592   9.3437834  53.8485755  31.4581413   9.0352922  54.7329087
  32.2656297  10.0699473  53.9783685  25.5673400  21.7299574  65.3459520
  26.4876409  21.9078173  65.5399567  25.5322983  20.7855619  65.1939219
  14.7855565  16.9238168  54.2712795  14.4658349  16.0703476  53.9787169
  14.2388993  17.1386746  55.0270762  18.5635472  19.6400609  57.9882301
  18.7821482  20.5717716  58.0070335  18.9761246  19.2808583  58.7737105
  25.4839690  10.1468694  49.9757990  24.6740418   9.8015779  50.3513236
  26.1724107   9.8376238  50.5645601  27.4130238   9.2246741  51.5982286
  27.9661277   9.6442194  52.2572309  27.6500325   8.2982489  51.6405242
  23.4363338  15.2133814  67.3785050  23.3360065  16.1628171  67.3097141
  23.2184880  14.8852053  66.5061120  22.6376409  12.4618739  43.9625728
  23.4995573  12.7873638  44.2221545  22.8226753  11.6750235  43.4498793
  14.6543825  20.5441079  56.2405916  13.9607296  20.1295032  55.7275871
  15.4016816  20.5861616  55.6439335  30.7909045  11.3347266  51.1060951
  30.2107715  11.9932070  50.7239003  30.5244978  10.5124610  50.6948368
  29.2412612  10.7352323  53.3082271  29.7412390  10.8468858  52.4996590
  29.8848220  10.4313376  53.9483079  23.2994608  18.6430953  66.1950112
  22.8161689  19.4431313  66.4014001  23.3855547  18.6538898  65.2417556
  16.5680567  20.4759333  54.1171931  16.5451255  20.5747020  53.1653814
  16.8781204  21.3224484  54.4389097  19.2267945  22.5335488  58.2318546
  20.1811199  22.5019430  58.1648477  19.0280469  22.0726112  59.0468772
  19.8167327  21.1036604  60.7989343  20.6360216  21.5980683  60.8224181
  20.0904135  20.1868572  60.7706911  29.5733923  13.4947356  50.1617299
  28.6859779  13.7797007  49.9437494  29.9887913  13.3341120  49.3144576
  32.9248460  13.5193877  53.8771638  33.7008850  14.0090330  54.1496255
  32.1996594  13.9451931  54.3343508  35.3621018  14.2321496  54.9345579
  35.9565509  13.9917232  54.2238887  35.4347602  13.5128627  55.5619115
  17.5818174  28.0755107  55.2488744  17.4472642  27.3155508  54.6826742
  17.1650236  28.7996007  54.7817532  29.5474947  19.0101892  50.3767589
  29.4910149  19.4670444  49.5375221  30.1003290  18.2492577  50.1990432
  33.3579753  14.7991624  51.2017708  33.1016687  14.3988260  52.0325916
  32.7332621  15.5135418  51.0767848  20.7387300  28.9724424  55.4607186
  20.6219684  29.9169857  55.3585876  19.9179746  28.6697986  55.8492985
  15.0702242  15.4374738  61.4981540  15.7161105  14.9273692  61.9868766
  14.8619393  16.1743419  62.0724966  27.5955634  22.5055585  66.9973681
  28.4646793  22.6796237  66.6360316  27.1162385  23.3250002  66.8749410
  23.5905852   9.7014782  47.2505437  23.5784522  10.6456622  47.4073707
  24.4829274   9.5184928  46.9564898  21.7641814  29.6252686  58.6763115
  22.6669061  29.6576296  58.9929610  21.5379184  28.6953137  58.6909450
  27.4057971   6.2957559  51.5051373  26.6390367   5.7416046  51.6508056
  27.8168676   6.3679428  52.3665525  33.2075525  44.5549339  51.2066631
  33.1299554  45.5057164  51.2855112  32.6037168  44.2095211  51.8641558
  39.4294466  36.6791798  62.0218127  39.8377823  36.2374208  61.2772759
  38.7071728  36.1044425  62.2752319  38.9324982  29.2768773  61.0532857
  38.6885914  30.0310834  60.5167133  39.2084912  29.6554121  61.8880104
  35.7665876  38.2463384  60.0593191  35.8310309  38.7083791  60.8951362
  35.0576800  37.6160749  60.1875500  50.0915266  35.0418089  54.2517452
  49.3378974  34.4725487  54.0961456  50.2262807  35.0080754  55.1988086
  31.9681233  25.9923071  66.5886526  31.5748179  25.4389270  67.2634170
  32.7847374  26.3033650  66.9793044  37.1082370  40.5355058  64.0572513
  36.6646224  39.7491437  63.7393418  37.7699584  40.7234209  63.3916404
  39.2063608  40.8157858  62.0853914  39.1882083  41.6366739  61.5934183
  40.1283528  40.6911933  62.3104055  35.6636662  38.3301988  62.9277423
  36.1964999  37.5690276  62.6976731  35.1350743  38.0375639  63.6701577
  37.9276686  40.8625347  57.9063967  37.9813708  41.4316283  58.6741683
  37.0591467  41.0327232  57.5418004  40.1179449  37.4553696  64.4804632
  39.9664955  37.2264248  63.5634716  40.1084128  38.4124298  64.4935977
  41.8271656  40.4872819  62.5581114  41.7684202  39.8032039  61.8911697
  42.2291174  41.2291809  62.1061740  30.8462354  47.3034733  55.3514833
  31.0858953  47.9353257  56.0293852  30.0031551  46.9522773  55.6380192
  41.8289063  38.4512403  60.7895094  40.9415842  38.1138325  60.9121493
  42.3987614  37.7195434  61.0263859  35.3590216  43.1113855  57.7556337
  35.2860388  43.9168827  58.2675642  34.9167609  43.3105821  56.9304359
  37.8188900  43.0100689  59.9114496  38.5316872  43.6448154  59.8390397
  37.3278928  43.1064555  59.0954498  37.6309273  43.3499433  52.6600787
  37.8131668  42.5321089  53.1228540  38.4542259  43.5667125  52.2225677
  36.7189672  34.0559551  65.0438654  36.0430309  33.9553680  65.7141029
  37.5417306  33.8998765  65.5074651  31.3207187  43.3282735  52.6813612
  30.6517562  43.8128863  52.1977652  31.1820056  43.5751955  53.5956990
  35.4612455  45.3626479  59.2796270  36.0130763  45.5258100  60.0445355
  35.8018649  45.9530916  58.6076295  40.3123330  40.1887736  65.1344925
  40.8563234  40.8017694  64.6399879  39.7310174  40.7467314  65.6511938
  38.5980843  43.3108454  56.2659952  38.4731982  42.5098194  55.7570898
  39.2559934  43.8054647  55.7773922  40.6615751  41.1117474  57.8939502
  39.7146086  40.9922825  57.8217829  41.0098524  40.2239972  57.9765764
  41.2696306  41.7298749  55.1808727  42.1942854  41.5241610  55.0433178
  41.1011609  41.4815150  56.0898069  35.6078267  42.9284960  61.2944924
  35.9165393  42.6834107  62.1667624  36.4053749  43.1331599  60.8063795
  35.6298879  45.0822870  53.5250301  35.1903869  44.5899248  54.2183158
  36.3806996  44.5395837  53.2842376  43.6352124  39.6483790  64.4706246
  42.8447668  39.6307929  63.9310745  43.3985479  40.1872084  65.2255282
  43.7549999  36.4976256  61.7838974  43.8048004  36.3326264  62.7254497
  43.6463922  35.6303516  61.3936855  41.0453761  32.4807185  63.0998281
  41.9463624  32.3413649  62.8082279  41.1201736  32.6461639  64.0396458
  45.2568196  38.9173198  62.0280996  44.9653004  39.2803179  62.8644457
  44.6440327  38.2040206  61.8494328  50.5021681  35.1993699  56.9837696
  51.2325069  34.9378987  57.5445399  49.8928626  34.4622421  57.0239764
  36.4067154  37.0591492  65.3459520  37.3270164  37.2370091  65.5399567
  36.3716737  36.1147537  65.1939219  34.1388362  33.9722871  66.1950112
  33.6555444  34.7723231  66.4014001  34.2249301  33.9830816  65.2417556
  28.4211928  43.4047025  55.2488744  28.2866396  42.6447426  54.6826742
  28.0043991  44.1287925  54.7817532  38.4349388  37.8347503  66.9973681
  39.3040548  38.0088155  66.6360316  37.9556140  38.6541920  66.8749410
  32.6035568  44.9544604  58.6763115  33.5062815  44.9868214  58.9929610
  32.3772939  44.0245055  58.6909450  47.3851353  50.6498409  62.2966686
  47.3739994  50.2551207  61.4247189  47.5471993  49.9164481  62.8900457
  44.1058614  53.4335520  61.2445870  43.8148480  54.3381151  61.1292536
  44.7415599  53.4752048  61.9589939  49.0648499  53.1196936  58.2395664
  48.7649223  54.0221975  58.1311471  48.7199559  52.8529119  59.0916816
  39.8769792  49.2144006  55.1076157  40.0062173  49.4678485  56.0215569
  39.1967243  49.8071714  54.7880812  46.5386509  47.0569122  63.8627998
  45.7619843  47.6163042  63.8530863  47.1777072  47.5425905  64.3842868
  44.7932881  49.8654575  63.4245965  45.5347566  50.4039619  63.1480789
  44.0869867  50.4920864  63.5817517  50.2688221  52.0083716  62.0218127
  50.6771577  51.5666126  61.2772759  49.5465482  51.4336343  62.2752319
  46.6219291  46.9456322  59.3951684  47.4680486  47.3695736  59.5386333
  46.5617929  46.2889947  60.0890247  49.7718736  44.6060691  61.0532857
  49.5279668  45.3602751  60.5167133  50.0478667  44.9846038  61.8880104
  43.5294245  47.0194223  64.2261275  42.8992906  47.7010504  64.4596672
  43.4230333  46.9077305  63.2814413  38.8239217  46.6866019  55.1527199
  38.0338271  46.9423548  54.6767310  39.3150465  47.5014357  55.2579240
  40.7753963  47.0510599  52.1110676  39.9785126  47.1629293  52.6294172
  40.5479555  47.3897251  51.2451566  46.6059631  53.5755302  60.0593191
  46.6704063  54.0375709  60.8951362  45.8970554  52.9452667  60.1875500
  37.1076920  46.9396510  57.5842190  37.3584959  47.8243520  57.8499766
  37.6436469  46.7601111  56.8117282  42.8074988  41.3214989  66.5886526
  42.4141933  40.7681188  67.2634170  43.6241128  41.6325568  66.9793044
  45.7242949  42.7372868  64.1806783  46.4652662  43.3380021  64.1011245
  45.9560872  41.9950506  63.6224825  40.8684287  47.9229235  62.4585012
  40.7537802  47.0214493  62.7592111  40.0128805  48.1692932  62.1069829
  47.9476125  55.8646976  64.0572513  47.5039979  55.0783354  63.7393418
  48.6093338  56.0526126  63.3916404  42.7063246  57.3942777  58.5833192
  43.2570671  57.2659841  57.8110185  41.8674722  57.6937666  58.2328084
  50.0457363  56.1449776  62.0853914  50.0275838  56.9658657  61.5934183
  50.9677283  56.0203851  62.3104055  46.5030417  53.6593905  62.9277423
  47.0358754  52.8982193  62.6976731  45.9744498  53.3667557  63.6701577
  37.7385962  51.0887502  51.2759667  38.5761184  51.4984510  51.0593374
  37.9164230  50.1486944  51.2459860  42.6001857  43.4499564  52.8002846
  43.1745609  43.2274745  52.0676039  43.1872840  43.5188258  53.5531447
  51.4687777  38.0247530  53.5588802  51.7746654  37.1644894  53.2714717
  52.1940382  38.6165151  53.3587796  37.7612133  48.4278217  51.9470400
  37.5636533  47.8347578  51.2221467  37.2058797  48.1230427  52.6646339
  49.2775429  47.4020208  60.6570266  49.6324816  47.6291681  61.5164732
  49.9247560  47.7338584  60.0347521  43.1715292  44.5096739  57.4416607
  43.8114671  44.3685498  56.7439570  42.3392822  44.2231252  57.0655209
  48.7670440  56.1917265  57.9063967  48.8207462  56.7608201  58.6741683
  47.8985222  56.3619150  57.5418004  40.2558359  47.9542251  49.6311352
  39.3255947  47.8926706  49.8481314  40.3515831  47.4318204  48.8347993
  40.1743908  44.4797064  52.2189594  40.4350726  45.3942397  52.1098754
  40.9961081  44.0121506  52.3686207  41.6468834  45.8934821  59.3888418
  42.3191887  45.6852183  58.7401067  40.8198620  45.6956907  58.9493651
  50.9573204  52.7845614  64.4804632  50.8058710  52.5556166  63.5634716
  50.9477883  53.7416215  64.4935977  47.7258540  50.3577527  59.4650899
  48.6550600  50.5088686  59.2919866  47.3049570  50.4461547  58.6099545
  46.5246872  54.3828191  57.2349437  46.3857957  54.0146975  58.1075375
  45.7361468  54.8975831  57.0633394  48.0752087  53.7609794  54.6238274
  47.7401919  53.7210564  55.5195924  47.5756033  53.0954510  54.1508685
  42.0496331  49.1677424  60.1490855  41.9116129  48.4357663  60.7502395
  42.9601254  49.0786324  59.8675043  44.6778631  48.8797383  59.6374535
  45.3878250  48.2390575  59.5961154  44.6347940  49.1310278  60.5600716
  52.6665410  55.8164736  62.5581114  52.6077956  55.1323957  61.8911697
  53.0684929  56.5583726  62.1061740  43.3907565  45.8662601  61.4570175
  42.8544922  45.4153339  62.1091771  42.8024274  46.0008510  60.7140639
  41.6856109  62.6326650  55.3514833  41.9252707  63.2645174  56.0293852
  40.8425305  62.2814690  55.6380192  52.6682817  53.7804320  60.7895094
  51.7809596  53.4430242  60.9121493  53.2381368  53.0487352  61.0263859
  34.3211965  50.1128412  54.1138145  35.0083004  49.7990142  53.5259161
  34.1660093  51.0169777  53.8405397  39.1246687  45.0018609  58.5423169
  39.0404875  44.3944278  57.8073579  38.3029393  45.4927627  58.5432665
  46.1983971  58.4405773  57.7556337  46.1254142  59.2460744  58.2675642
  45.7561364  58.6397739  56.9304359  49.2970401  43.4872172  53.9093364
  49.7939100  42.7342135  53.5894434  48.5257382  43.5236489  53.3436573
  48.6582654  58.3392607  59.9114496  49.3710627  58.9740072  59.8390397
  48.1672683  58.4356473  59.0954498  43.7094568  56.0887050  60.7320067
  44.4104027  56.7223533  60.8849461  43.2389683  56.4301782  59.9715706
  47.5583427  49.3851469  65.0438654  46.8824064  49.2845598  65.7141029
  48.3811061  49.2290682  65.5074651  39.3062286  55.6223405  57.6651169
  39.8915723  54.8767093  57.7979074  39.1087124  55.9327362  58.5487833
  33.8979941  48.1929006  56.3855613  33.9364040  47.6592596  57.1792731
  33.3920233  47.6664211  55.7666590  46.3006210  60.6918396  59.2796270
  46.8524518  60.8550018  60.0445355  46.6412403  61.2822834  58.6076295
  41.2770703  43.0393546  59.8818155  41.3412029  43.9008377  59.4695553
  41.2137823  42.4267548  59.1490513  40.7522976  45.1116679  63.5291189
  41.3795014  44.7293756  64.1428713  39.8950894  44.8930880  63.8946882
  51.1517084  55.5179654  65.1344925  51.6956988  56.1309612  64.6399879
  50.5703929  56.0759232  65.6511938  37.5288518  46.9193108  49.4609544
  37.8241959  46.0103786  49.4076598  36.6276554  46.8980847  49.1390546
  41.0582765  44.9949104  55.4437092  40.3369351  45.6085072  55.3044566
  41.8476021  45.5306869  55.3653738  43.8609079  42.3303531  61.7177744
  44.3843481  42.5765827  62.4804054  43.6421412  43.1623566  61.2980882
  42.3718183  44.8880175  49.9524347  42.7114256  45.4166096  49.2302955
  42.8190303  45.2260581  50.7282913  45.0661624  43.2717226  59.4027415
  44.7258444  42.4725039  59.8048095  44.3600630  43.5718937  58.8304248
  43.2416674  47.0485659  55.6646716  43.0961255  47.3625962  56.5570998
  42.7641878  47.6670559  55.1117615  45.1013057  44.0388207  55.7127606
  45.0874626  43.1429300  55.3759904  45.8185485  44.0458871  56.3465892
  46.9539188  44.4725547  57.7580733  46.6956966  45.3942618  57.7565064
  46.4224228  44.0755982  58.4481198  37.7162337  49.5891003  58.6034378
  37.1715805  50.3650811  58.7354652  38.5941686  49.9361808  58.4453499
  38.5028358  48.7160900  61.4964534  37.7610094  48.8643535  62.0829165
  38.1821103  48.9769165  60.6331284  46.4472021  58.2576878  61.2944924
  46.7559148  58.0126025  62.1667624  47.2447503  58.4623516  60.8063795
  38.9484972  56.6026328  53.5274929  39.7742992  56.3030100  53.1473573
  38.5979024  55.8333951  53.9764718  43.9166505  55.9552797  55.5972603
  43.2946515  55.2923502  55.2974831  44.5871372  55.9813928  54.9146250
  37.1493577  54.5212655  54.4863863  36.3125485  54.0934829  54.3047864
  37.1217223  54.7145098  55.4234654  43.9891033  44.4334585  65.1905109
  44.0379188  45.3096707  64.8082878  44.5313547  43.8911978  64.6176752
  54.4745878  54.9775708  64.4706246  53.6841422  54.9599847  63.9310745
  54.2379233  55.5164001  65.2255282  46.2190321  45.1865957  61.9451467
  45.3493631  45.4799523  61.6734056  46.4549802  45.7706402  62.6658731
  40.5028293  46.2650255  47.5778294  39.8097538  46.3394610  46.9218330
  40.2580045  45.5010599  48.0999811  61.3415435  50.5285617  56.9837696
  62.0718824  50.2670905  57.5445399  60.7322381  49.7914339  57.0239764
  59.4230732  48.6693480  57.5812147  58.6963896  48.5349444  56.9728639
  59.0078019  48.9770308  58.3868865  47.2460909  52.3883409  65.3459520
  48.1663918  52.5662008  65.5399567  47.2110492  51.4439455  65.1939219
  36.4643074  47.5822003  54.2712795  36.1445858  46.7287311  53.9787169
  35.9176502  47.7970581  55.0270762  40.2422981  50.2984444  57.9882301
  40.4608991  51.2301552  58.0070335  40.6548755  49.9392418  58.7737105
  45.1150847  45.8717650  67.3785050  45.0147573  46.8212007  67.3097141
  44.8972389  45.5435889  66.5061120  36.3331334  51.2024914  56.2405916
  35.6394805  50.7878867  55.7275871  37.0804325  51.2445451  55.6439335
  44.9782117  49.3014788  66.1950112  44.4949198  50.1015149  66.4014001
  45.0643056  49.3122733  65.2417556  38.2468076  51.1343168  54.1171931
  38.2238764  51.2330855  53.1653814  38.5568713  51.9808319  54.4389097
  40.9055454  53.1919323  58.2318546  41.8598708  53.1603265  58.1648477
  40.7067978  52.7309947  59.0468772  41.4954836  51.7620439  60.7989343
  42.3147725  52.2564518  60.8224181  41.7691644  50.8452407  60.7706911
  39.2605683  58.7338943  55.2488744  39.1260151  57.9739344  54.6826742
  38.8437745  59.4579843  54.7817532  36.7489751  46.0958573  61.4981540
  37.3948614  45.5857527  61.9868766  36.5406902  46.8327255  62.0724966
  49.2743143  53.1639421  66.9973681  50.1434302  53.3380073  66.6360316
  48.7949894  53.9833837  66.8749410  43.4429323  60.2836522  58.6763115
  44.3456570  60.3160132  58.9929610  43.2166693  59.3536973  58.6909450
  41.0887242  43.2426190  65.5956555  41.9518703  42.8862995  65.8059879
  40.5152652  42.9040085  66.2831959  60.9335618  64.8728046  56.4018956
  61.5714028  64.7534794  55.6982296  60.8156461  65.8208890  56.4606908
  57.7425325  64.8255475  56.3380480  57.4043836  64.7096539  55.4501015
  58.6115093  64.4246640  56.3181486  53.6012140  66.6790951  52.3277371
  53.0377006  66.5880888  51.5593659  53.4864535  65.8590855  52.8079864
  58.2245108  65.9790326  62.2966686  58.2133748  65.5843125  61.4247189
  58.3865747  65.2456399  62.8900457  51.1476572  68.1742143  55.1661592
  51.9397864  67.8332967  54.7507891  51.3873223  68.2837118  56.0863745
  54.9452369  68.7627438  61.2445870  54.6542235  69.6673069  61.1292536
  55.5809353  68.8043966  61.9589939  55.8708576  66.1404287  57.8347229
  56.4672148  65.9160309  57.1204192  55.9283547  65.3989032  58.4372677
  60.6586964  68.0352351  48.1760820  60.0232797  68.1086977  48.8881725
  60.3284371  68.6245949  47.4979900  63.4110734  56.2476308  58.8399751
  63.0794059  57.1171719  58.6160966  62.8156348  55.9312592  59.5193781
  59.9042254  68.4488854  58.2395664  59.6042977  69.3513892  58.1311471
  59.5593313  68.1821037  59.0916816  50.7163546  64.5435924  55.1076157
  50.8455928  64.7970403  56.0215569  50.0360998  65.1363632  54.7880812
  54.8863034  75.2133174  51.2066631  54.8087063  76.1640999  51.2855112
  54.2824677  74.8679046  51.8641558  57.3780264  62.3861039  63.8627998
  56.6013598  62.9454960  63.8530863  58.0170827  62.8717822  64.3842868
  62.8241208  62.9151005  48.3856834  63.7359064  63.1478392  48.2104532
  62.3150855  63.4988050  47.8231913  55.6326636  65.1946493  63.4245965
  56.3741320  65.7331537  63.1480789  54.9263621  65.8212782  63.5817517
  61.1081975  67.3375633  62.0218127  61.5165331  66.8958044  61.2772759
  60.3859237  66.7628261  62.2752319  57.4613046  62.2748240  59.3951684
  58.3074241  62.6987654  59.5386333  57.4011683  61.6181864  60.0890247
  61.4310790  67.8976824  55.7770415  60.8019653  68.0622538  55.0746483
  61.0436452  68.3118433  56.5481380  65.3100022  68.8331262  53.1314779
  64.6251060  69.2130163  52.5811813  65.3943871  69.4426588  53.8646727
  60.6112491  59.9352608  61.0532857  60.3673423  60.6894669  60.5167133
  60.8872421  60.3137956  61.8880104  62.5650954  66.4791221  59.7310123
  62.7767849  67.1222981  59.0544504  62.5180702  65.6453537  59.2632053
  56.9838752  67.6351232  53.0420501  57.4477098  67.9138935  52.2525123
  56.7195550  66.7334677  52.8593591  53.8762833  67.1822713  55.9800264
  54.4464190  67.6109982  55.3417748  54.4670945  66.9005298  56.6784449
  54.3688000  62.3486141  64.2261275  53.7386660  63.0302422  64.4596672
  54.2624087  62.2369223  63.2814413  63.6796782  69.3563176  57.9032480
  64.5014225  68.9543363  57.6215162  63.6759184  69.2531410  58.8548596
  57.4453385  68.9047219  60.0593191  57.5097818  69.3667627  60.8951362
  56.7364309  68.2744584  60.1875500  47.9470675  62.2688427  57.5842190
  48.1978713  63.1535437  57.8499766  48.4830223  62.0893029  56.8117282
  71.7702775  65.7001925  54.2517452  71.0166483  65.1309323  54.0961456
  71.9050316  65.6664589  55.1988086  57.1601403  70.5715327  49.9272171
  57.0247077  71.4166863  50.3557019  57.7011215  70.7734605  49.1638105
  53.6468742  56.6506907  66.5886526  53.2535688  56.0973105  67.2634170
  54.4634883  56.9617485  66.9793044  52.4225685  71.2056521  52.5822849
  52.5992313  72.1274486  52.3943833  53.2182518  70.8914940  53.0117229
  56.5636703  58.0664786  64.1806783  57.3046417  58.6671939  64.1011245
  56.7954626  57.3242424  63.6224825  51.7078041  63.2521153  62.4585012
  51.5931556  62.3506410  62.7592111  50.8522559  63.4984850  62.1069829
  58.7869879  71.1938893  64.0572513  58.3433733  70.4075272  63.7393418
  59.4487093  71.3818044  63.3916404  53.5457000  72.7234695  58.5833192
  54.0964425  72.5951758  57.8110185  52.7068476  73.0229584  58.2328084
  60.8851117  71.4741693  62.0853914  60.8669592  72.2950574  61.5934183
  61.8071037  71.3495769  62.3104055  57.3424171  68.9885823  62.9277423
  57.8752508  68.2274111  62.6976731  56.8138252  68.6959475  63.6701577
  60.4744149  64.0854500  46.9643500  59.9590772  64.8559105  47.2031887
  60.2021457  63.4119636  47.5876561  65.4478423  66.8386855  48.8996673
  64.6707866  66.4998014  48.4551835  66.1269904  66.8439478  48.2251638
  58.7076884  68.1171815  50.4396235  58.1798246  67.3824575  50.1269472
  58.2064387  68.8946492  50.1936203  63.6869730  66.3120836  55.5563281
  63.0293404  67.0020097  55.6443410  64.4910129  66.7017268  55.8997267
  62.4975189  64.6665209  53.6067223  63.0107071  65.2995200  54.1088932
  63.1476413  64.0666404  53.2410583  59.7597563  74.6449533  46.3627894
  59.0859262  74.9481230  46.9712852  60.1463385  75.4478613  46.0133351
  58.9756020  62.1414664  55.8525563  58.0578581  62.3629611  55.6947251
  59.3916163  62.2160975  54.9937271  59.7591067  63.5406080  50.9828244
  60.5062886  64.0527477  50.6735366  60.0282657  63.2190132  51.8432637
  63.2636985  69.6471210  51.7346365  62.8099312  68.8062120  51.7911556
  62.6330952  70.2832608  52.0721146  61.7069924  71.4847707  52.6696183
  61.9992899  72.0452764  51.9508549  62.2168545  71.7776268  53.4249343
  57.7293805  67.5773364  45.3043276  57.2913235  66.8609223  44.8448914
  58.4704246  67.8049479  44.7428368  56.6703549  72.2628058  53.7589637
  56.6279728  72.4888904  52.8298169  57.5866248  72.0291432  53.9075438
  60.1169183  62.7312125  60.6570266  60.4718571  62.9583598  61.5164732
  60.7641314  63.0630502  60.0347521  65.8466920  65.8530561  51.3619595
  65.7084819  66.0432157  50.4340784  65.4903139  66.6149944  51.8187646
  54.0109046  59.8388656  57.4416607  54.6508426  59.6977415  56.7439570
  53.1786577  59.5523170  57.0655209  65.8736300  67.9207088  56.3730866
  66.3072806  67.8282377  57.2213920  66.5867880  67.8964589  55.7350882
  54.7869350  69.1391087  53.5551599  55.5809949  68.6441407  53.3534174
  54.0761043  68.6108950  53.1919305  59.6064195  71.5209182  57.9063967
  59.6601217  72.0900119  58.6741683  58.7378976  71.6911067  57.5418004
  52.4862588  61.2226739  59.3888418  53.1585641  61.0144101  58.7401067
  51.6592375  61.0248825  58.9493651  66.7351849  67.9630789  58.9063752
  66.9287739  68.8676599  59.1523027  66.6352467  67.5038208  59.7402337
  58.3888160  57.8488679  61.4054079  57.7416075  58.5478629  61.3118556
  59.1589175  58.2824823  61.7730327  61.7966958  68.1137532  64.4804632
  61.6452464  67.8848083  63.5634716  61.7871637  69.0708133  64.4935977
  58.5652294  65.6869444  59.4650899  59.4944354  65.8380604  59.2919866
  58.1443324  65.7753465  58.6099545  57.3640626  69.7120109  57.2349437
  57.2251712  69.3438893  58.1075375  56.5755222  70.2267748  57.0633394
  57.9588778  74.8129205  48.5774973  58.1340534  74.3417248  49.3920596
  57.2721566  75.4394971  48.8056234  58.9145841  69.0901711  54.6238274
  58.5795674  69.0502481  55.5195924  58.4149787  68.4246427  54.1508685
  52.8890085  64.4969341  60.1490855  52.7509883  63.7649580  60.7502395
  53.7995009  64.4078242  59.8675043  61.8505033  66.4357746  44.8975334
  61.2334204  65.7104574  44.8008387  61.3821521  67.1967106  44.5542408
  55.5172386  64.2089301  59.6374535  56.2272005  63.5682493  59.5961154
  55.4741694  64.4602196  60.5600716  63.5059165  71.1456654  62.5581114
  63.4471711  70.4615874  61.8911697  63.9078683  71.8875644  62.1061740
  54.2301320  61.1954519  61.4570175  53.6938677  60.7445257  62.1091771
  53.6418028  61.3300428  60.7140639  52.5249863  77.9618568  55.3514833
  52.7646462  78.5937092  56.0293852  51.6819060  77.6106608  55.6380192
  63.5076572  69.1096238  60.7895094  62.6203351  68.7722160  60.9121493
  64.0775123  68.3779269  61.0263859  49.9640441  60.3310526  58.5423169
  49.8798630  59.7236196  57.8073579  49.1423148  60.8219545  58.5432665
  57.0377725  73.7697690  57.7556337  56.9647897  74.5752662  58.2675642
  56.5955118  73.9689656  56.9304359  56.8267505  73.0069460  51.2659159
  56.0435027  73.5491141  51.3597383  57.5260250  73.5243440  51.6653400
  67.9893912  64.5204455  55.5511656  67.9783789  65.4029171  55.1805589
  67.1211292  64.1676006  55.3566193  59.4976409  73.6684524  59.9114496
  60.2104381  74.3031989  59.8390397  59.0066437  73.7648390  59.0954498
  61.2193936  67.5735777  51.4831788  60.2850214  67.6937240  51.3136492
  61.3970604  66.6708244  51.2191797  64.6066487  63.4153096  52.0181822
  65.0726939  64.2481088  51.9442124  65.0573988  62.9498078  52.7227080
  54.5488322  71.4178968  60.7320067  55.2497782  72.0515451  60.8849461
  54.0783437  71.7593699  59.9715706  62.6742718  69.7596918  49.0167974
  62.9502562  69.6453512  49.9261848  61.8047217  69.3614403  48.9780147
  62.3489608  63.9723575  58.5572617  61.6961059  64.2199483  57.9025070
  62.7269988  63.1587714  58.2235094  59.3096782  74.0083269  52.6600787
  59.4919177  73.1904924  53.1228540  60.1329768  74.2250961  52.2225677
  59.6438948  72.9351454  49.9215836  60.1726714  72.4243908  49.3085998
  59.9067167  72.6193984  50.7861369  58.3977181  64.7143386  65.0438654
  57.7217818  64.6137516  65.7141029  59.2204815  64.5582600  65.5074651
  50.1456040  70.9515323  57.6651169  50.7309477  70.2059011  57.7979074
  49.9480879  71.2619280  58.5487833  52.9994696  73.9866570  52.6813612
  52.3305071  74.4712698  52.1977652  52.8607565  74.2335791  53.5956990
  57.1399964  76.0210314  59.2796270  57.6918272  76.1841935  60.0445355
  57.4806158  76.6114752  58.6076295  52.1164457  58.3685464  59.8818155
  52.1805784  59.2300295  59.4695553  52.0531578  57.7559465  59.1490513
  51.5916730  60.4408596  63.5291189  52.2188769  60.0585674  64.1428713
  50.7344649  60.2222798  63.8946882  61.9910839  70.8471571  65.1344925
  62.5350743  71.4601530  64.6399879  61.4097683  71.4051150  65.6511938
  60.2768352  73.9692289  56.2659952  60.1519491  73.1682029  55.7570898
  60.9347443  74.4638483  55.7773922  62.3403260  71.7701309  57.8939502
  61.3933595  71.6506661  57.8217829  62.6886033  70.8823808  57.9765764
  54.7002833  57.6595448  61.7177744  55.2237235  57.9057745  62.4804054
  54.4815167  58.4915483  61.2980882  59.3449693  71.5654026  54.0943855
  59.1974656  70.6370733  54.2751425  60.1703187  71.5874116  53.6100930
  62.9483815  72.3882584  55.1808727  63.8730363  72.1825446  55.0433178
  62.7799118  72.1398986  56.0898069  55.9055378  58.6009144  59.4027415
  55.5652199  57.8016957  59.8048095  55.1994385  58.9010854  58.8304248
  57.7932942  59.8017465  57.7580733  57.5350720  60.7234535  57.7565064
  57.2617983  59.4047899  58.4481198  62.7379131  72.9068252  50.5370819
  62.9116009  72.3414674  49.7844671  63.2308022  73.7069147  50.3550309
  48.5556091  64.9182921  58.6034378  48.0109559  65.6942729  58.7354652
  49.4335441  65.2653725  58.4453499  68.5918522  65.6704675  52.1561119
  69.0349668  64.9212000  51.7580242  67.7145033  65.6614811  51.7734851
  63.7254304  72.2235016  47.6367717  64.4205208  72.8441709  47.8555032
  64.0677454  71.3730368  47.9120095  49.3422113  64.0452817  61.4964534
  48.6003849  64.1935453  62.0829165  49.0214857  64.3061083  60.6331284
  65.6245727  69.6734722  49.1655048  66.1497051  70.0121995  48.4404368
  65.5368079  68.7381737  48.9818182  57.2865776  73.5868795  61.2944924
  57.5952902  73.3417942  62.1667624  58.0841258  73.7915434  60.8063795
  57.3086388  75.7406705  53.5250301  56.8691378  75.2483084  54.2183158
  58.0594505  75.1979673  53.2842376  49.7878727  71.9318246  53.5274929
  50.6136747  71.6322018  53.1473573  49.4372779  71.1625868  53.9764718
  54.7560260  71.2844714  55.5972603  54.1340269  70.6215419  55.2974831
  55.4265127  71.3105846  54.9146250  47.9887332  69.8504572  54.4863863
  47.1519240  69.4226747  54.3047864  47.9610977  70.0437016  55.4234654
  54.8284787  59.7626502  65.1905109  54.8772943  60.6388625  64.8082878
  55.3707301  59.2203895  64.6176752  65.3139633  70.3067625  64.4706246
  64.5235177  70.2891764  63.9310745  65.0772988  70.8455919  65.2255282
  65.4337508  67.1560092  61.7838974  65.4835513  66.9910099  62.7254497
  65.3251431  66.2887351  61.3936855  54.3173767  69.8348638  49.0731063
  54.4661887  70.5184102  48.4197736  55.1240210  69.8153728  49.5880519
  62.7241270  63.1391020  63.0998281  63.6251133  62.9997485  62.8082279
  62.7989245  63.3045475  64.0396458  57.0584076  60.5157875  61.9451467
  56.1887385  60.8091441  61.6734056  57.2943556  61.0998320  62.6658731
  66.9355705  69.5757033  62.0280996  66.6440513  69.9387014  62.8644457
  66.3227836  68.8624042  61.8494328  68.1351387  67.1409913  54.5483566
  68.9698279  67.5799717  54.7121126  68.2710516  66.6648566  53.7291812
  65.1842893  64.6989648  60.4961054  65.6597015  64.8917294  59.6879905
  64.2608458  64.7548834  60.2504438  57.8169172  72.3296768  46.5442811
  57.2443139  72.9486955  46.0913283  58.3901966  72.8796130  47.0782733
  63.8844562  61.5755408  58.7289359  64.8361985  61.6753506  58.7501583
  63.7148012  60.7833677  59.2387444  61.9058942  58.6610991  58.9148760
  61.3108874  58.9416004  58.2195249  61.6208638  59.1504892  59.6865501
  61.0366432  72.6133918  47.6751393  61.9697105  72.5479480  47.8784268
  60.9489645  73.4490185  47.2165926  63.6654449  71.9299788  44.6355340
  63.5868080  71.5959652  45.5291098  64.4864115  72.4221556  44.6346813
  66.3632640  64.7961528  57.8431659  66.3308960  63.8577528  58.0291343
  66.9733263  64.8745564  57.1097484  66.5127128  61.5872571  57.8889942
  65.9966177  60.8031028  57.7019871  67.3967077  61.2591288  58.0536462
  72.1809190  65.8577535  56.9837696  72.9112578  65.5962823  57.5445399
  71.5716135  65.1206257  57.0239764  70.2624487  63.9985397  57.5812147
  69.5357650  63.8641362  56.9728639  69.8471774  64.3062226  58.3868865
  58.0854663  67.7175327  65.3459520  59.0057673  67.8953926  65.5399567
  58.0504246  66.7731372  65.1939219  51.0816736  65.6276362  57.9882301
  51.3002746  66.5593469  58.0070335  51.4942510  65.2684336  58.7737105
  55.9544601  61.2009567  67.3785050  55.8541328  62.1503924  67.3097141
  55.7366143  60.8727806  66.5061120  47.1725088  66.5316832  56.2405916
  46.4788560  66.1170785  55.7275871  47.9198079  66.5737369  55.6439335
  55.8175871  64.6306706  66.1950112  55.3342953  65.4307066  66.4014001
  55.9036810  64.6414651  65.2417556  49.0861831  66.4635086  54.1171931
  49.0632519  66.5622773  53.1653814  49.3962467  67.3100237  54.4389097
  51.7449209  68.5211241  58.2318546  52.6992462  68.4895183  58.1648477
  51.5461732  68.0601865  59.0468772  52.3348591  67.0912357  60.7989343
  53.1541480  67.5856436  60.8224181  52.6085398  66.1744325  60.7706911
  50.0999437  74.0630860  55.2488744  49.9653905  73.3031261  54.6826742
  49.6831500  74.7871760  54.7817532  61.2358400  69.2467784  44.2565319
  61.9394251  69.4517786  44.8722974  60.5121049  69.8144546  44.5214402
  62.0656211  64.9977645  50.3767589  62.0091412  65.4546197  49.5375221
  62.6184553  64.2368330  50.1990432  70.1873354  63.5263450  53.7089000
  69.6272912  63.5956640  54.4820562  69.5816858  63.3504435  52.9888496
  53.2568563  74.9600177  55.4607186  53.1400947  75.9045610  55.3585876
  52.4361010  74.6573739  55.8492985  63.1445098  69.6850313  46.3063779
  63.9790702  69.2531512  46.1241254  62.9829441  69.5132327  47.2340673
  62.7990990  66.1882426  47.6720118  62.7439794  66.0226698  46.7308562
  62.1737045  66.8958459  47.8282308  47.5883505  61.4250491  61.4981540
  48.2342369  60.9149445  61.9868766  47.3800656  62.1619172  62.0724966
  60.1136897  68.4931338  66.9973681  60.9828057  68.6671991  66.6360316
  59.6343649  69.3125755  66.8749410  54.2823077  75.6128439  58.6763115
  55.1850324  75.6452050  58.9929610  54.0560447  74.6828890  58.6909450
  56.0376679  74.3659426  55.3373193  55.0872310  74.3661287  55.2237566
  56.3409166  73.6192160  54.8209228  51.9280996  58.5718108  65.5956555
  52.7912458  58.2154913  65.8059879  51.3546407  58.2332003  66.2831959
  68.5819079  80.1547392  56.3380480  68.2437591  80.0388457  55.4501015
  69.4508847  79.7538557  56.3181486  64.4405895  82.0082869  52.3277371
  63.8770760  81.9172806  51.5593659  64.3258290  81.1882773  52.8079864
  61.9870327  83.5034060  55.1661592  62.7791619  83.1624885  54.7507891
  62.2266977  83.6129035  56.0863745  63.9461081  82.7642974  48.0378971
  64.7191957  82.2171961  47.8991846  64.2986480  83.6287223  48.2493432
  66.7102330  81.4696204  57.8347229  67.3065902  81.2452227  57.1204192
  66.7677302  80.7280950  58.4372677  66.2827359  78.9235640  45.6697420
  66.5352879  78.4017161  44.9080883  65.3451918  78.7601785  45.7724104
  71.3270641  77.9271418  53.4772164  72.1133731  77.5090841  53.1262581
  71.5909346  78.8317510  53.6453812  66.0023647  80.8263746  47.8721795
  65.8859905  80.1508649  48.5402880  66.1125907  80.3396120  47.0553948
  68.3455188  80.2873893  51.5768485  67.9813395  79.7604514  52.2881406
  69.2022304  79.8972362  51.4034970  74.2504489  71.5768225  58.8399751
  73.9187814  72.4463636  58.6160966  73.6550102  71.2604509  59.5193781
  67.9860675  75.3163792  46.5729833  68.1535078  76.1844029  46.9400304
  67.7957844  75.4791074  45.6491122  64.1948490  80.2294568  54.2732368
  63.2698986  80.0970782  54.4810060  64.4432903  81.0088787  54.7702310
  74.1433152  76.2963312  55.9193101  73.2350030  76.2278720  55.6251862
  74.0920748  76.7735256  56.7474926  67.9649896  77.7721450  47.5576500
  67.8449521  78.2178501  48.3961980  67.2702485  78.1206768  46.9990038
  61.5557301  79.8727842  55.1076157  61.6849682  80.1262321  56.0215569
  60.8754752  80.4655550  54.7880812  76.0094799  74.4979750  57.6970975
  75.3669179  74.7912283  57.0510769  75.5049727  74.3832670  58.5024171
  68.3006800  77.6040158  59.3951684  69.1467995  78.0279571  59.5386333
  68.2405438  76.9473782  60.0890247  71.0070937  74.4200959  56.6346695
  70.1455416  74.7182213  56.9263432  71.0333372  74.6371358  55.7027728
  64.7156588  82.5114631  55.9800264  65.2857945  82.9401900  55.3417748
  65.3064699  82.2297216  56.6784449  66.7601393  79.0866302  49.8510066
  67.4625436  79.5387346  50.3183992  66.4282021  78.4450121  50.4789959
  60.5026726  77.3449855  55.1527199  59.7125780  77.6007383  54.6767310
  60.9937974  78.1598193  55.2579240  62.4541472  77.7094434  52.1110676
  61.6572635  77.8213128  52.6294172  62.2267064  78.0481086  51.2451566
  58.7864429  77.5980345  57.5842190  59.0372468  78.4827355  57.8499766
  59.3223978  77.4184947  56.8117282  61.4524555  83.4182683  50.5000096
  61.9649075  84.2125933  50.6505661  62.1047267  82.7208973  50.4333697
  62.5471796  78.5813071  62.4585012  62.4325311  77.6798328  62.7592111
  61.6916314  78.8276768  62.1069829  71.3487621  69.4237807  58.4571064
  71.0051890  70.3139448  58.3810175  71.7166583  69.2339464  57.5940649
  59.4173471  81.7471337  51.2759667  60.2548693  82.1568345  51.0593374
  59.5951739  80.8070779  51.2459860  68.8985014  74.2596118  52.0228738
  68.0426611  73.8702969  51.8434377  69.3111966  74.3388079  51.1628523
  70.4284161  71.7942462  56.4220298  69.9248957  71.7572597  55.6088103
  70.7214768  72.7035204  56.4816954  66.6727047  71.8781191  55.4286479
  67.5380044  71.6824000  55.0692369  66.7404556  71.6491543  56.3555836
  71.1024207  77.2873510  48.7903281  70.7974342  77.6019659  49.6413424
  72.0554649  77.3654930  48.8330614  64.2789366  74.1083399  52.8002846
  64.8533118  73.8858581  52.0676039  64.8660349  74.1772094  53.5531447
  64.6058953  76.1387860  46.8198731  63.7696265  76.4762547  47.1408006
  64.4663723  76.0036840  45.8825868  66.5812034  70.9824648  51.5277916
  65.9276446  70.6673665  50.9034530  66.5392508  70.3600389  52.2537739
  67.6923239  81.2643943  43.4431208  66.7850300  81.0333197  43.6422357
  68.1894271  80.4681563  43.6305189  69.8149774  77.4706582  55.8525563
  68.8972336  77.6921529  55.6947251  70.2309918  77.5452892  54.9937271
  70.5984822  78.8697997  50.9828244  71.3456641  79.3819395  50.6735366
  70.8676411  78.5482050  51.8432637  73.0463659  75.9055114  52.9647033
  72.3086416  75.3932500  53.2957275  73.2990433  75.4655495  52.1530310
  73.1475286  68.6831366  53.5588802  73.4534163  67.8228729  53.2714717
  73.8727891  69.2748986  53.3587796  59.4399642  79.0862052  51.9470400
  59.2424042  78.4931413  51.2221467  58.8846306  78.7814262  52.6646339
  67.4196366  78.9785159  54.0664993  67.4744976  78.0258995  53.9907470
  66.6087568  79.1344598  54.5506292  65.3588726  77.5962218  51.8255372
  64.5456592  77.8956389  52.2320564  65.8547720  77.2017907  52.5429854
  64.8502801  75.1680574  57.4416607  65.4902180  75.0269333  56.7439570
  64.0180331  74.8815087  57.0655209  61.9345868  78.6126086  49.6311352
  61.0043456  78.5510542  49.8481314  62.0303340  78.0902039  48.8347993
  61.8531417  75.1380899  52.2189594  62.1138235  76.0526232  52.1098754
  62.6748590  74.6705342  52.3686207  63.3256343  76.5518656  59.3888418
  63.9979396  76.3436018  58.7401067  62.4986129  76.3540742  58.9493651
  69.2281915  73.1780597  61.4054079  68.5809830  73.8770547  61.3118556
  69.9982930  73.6116741  61.7730327  63.7283840  79.8261259  60.1490855
  63.5903638  79.0941498  60.7502395  64.6388763  79.7370159  59.8675043
  66.3566140  79.5381218  59.6374535  67.0665759  78.8974411  59.5961154
  66.3135449  79.7894113  60.5600716  65.0695074  76.5246436  61.4570175
  64.5332431  76.0737175  62.1091771  64.4811783  76.6592345  60.7140639
  64.4797333  75.9835088  44.0196638  63.6026800  75.8623889  43.6558885
  64.9555086  75.1921166  43.7675527  55.9999474  80.7712248  54.1138145
  56.6870513  80.4573978  53.5259161  55.8447602  81.6753612  53.8405397
  60.8034196  75.6602444  58.5423169  60.7192384  75.0528114  57.8073579
  59.9816902  76.1511462  58.5432665  70.9757910  74.1456008  53.9093364
  71.4726609  73.3925970  53.5894434  70.2044891  74.1820324  53.3436573
  67.5592878  76.2873391  53.6365049  67.1890666  75.7344431  54.3245954
  68.0551971  75.6831524  53.0840049  73.4176904  71.1125601  56.0572723
  72.5039984  71.3429828  56.2254930  73.8470006  71.1964045  56.9086755
  60.9849795  86.2807241  57.6651169  61.5703232  85.5350929  57.7979074
  60.7874633  86.5911197  58.5487833  55.5767450  78.8512841  56.3855613
  55.6151549  78.3176432  57.1792731  55.0707742  78.3248046  55.7666590
  62.9558212  73.6977381  59.8818155  63.0199538  74.5592212  59.4695553
  62.8925332  73.0851383  59.1490513  62.4310484  75.7700514  63.5291189
  63.0582523  75.3877591  64.1428713  61.5738403  75.5514716  63.8946882
  59.2076027  77.5776943  49.4609544  59.5029468  76.6687621  49.4076598
  58.3064063  77.5564682  49.1390546  62.7370274  75.6532940  55.4437092
  62.0156860  76.2668907  55.3044566  63.5263530  76.1890704  55.3653738
  65.5396588  72.9887366  61.7177744  66.0630990  73.2349663  62.4804054
  65.3208921  73.8207401  61.2980882  60.9363869  75.2591041  49.5848869
  60.6076575  74.3788420  49.4023975  61.2903240  75.2038709  50.4725258
  64.0505692  75.5464010  49.9524347  64.3901764  76.0749932  49.2302955
  64.4977812  75.8844417  50.7282913  66.7449133  73.9301061  59.4027415
  66.4045953  73.1308874  59.8048095  66.0388139  74.2302772  58.8304248
  67.3965605  71.0150374  57.8554738  68.2191674  70.5410852  57.7333628
  67.6403668  71.7940857  58.3553424  66.0373839  74.0438632  48.1517639
  66.7582202  74.4219885  47.6481356  65.4139143  74.7627509  48.2552617
  70.1804962  74.7483781  49.0875972  70.3968576  75.6308419  48.7864800
  69.6999029  74.3569994  48.3581614  64.9204183  77.7069494  55.6646716
  64.7748764  78.0209797  56.5570998  64.4429387  78.3254395  55.1117615
  66.7800566  74.6972042  55.7127606  66.7662135  73.8013136  55.3759904
  67.4972994  74.7042706  56.3465892  68.6326697  75.1309382  57.7580733
  68.3744475  76.0526453  57.7565064  68.1011737  74.7339817  58.4481198
  59.3949846  80.2474839  58.6034378  58.8503314  81.0234647  58.7354652
  60.2729195  80.5945643  58.4453499  66.1837462  73.5786423  50.9815176
  66.3053373  72.6503069  51.1806064  65.8939505  73.5925108  50.0693492
  69.0528653  71.2641333  54.1181896  69.0750349  71.3280666  53.1633876
  69.4696712  70.4245842  54.3122402  60.1815867  79.3744735  61.4964534
  59.4397603  79.5227370  62.0829165  59.8608612  79.6353001  60.6331284
  58.8281086  85.1796490  54.4863863  57.9912994  84.7518664  54.3047864
  58.8004732  85.3728933  55.4234654  62.9120154  81.1905733  50.0792132
  62.6666196  80.2868063  50.2772342  63.0816069  81.1922883  49.1371610
  70.6016864  72.0629409  59.4616888  71.1198808  72.7990436  59.1363376
  70.2471997  72.3693403  60.2963647  62.1815802  76.9234090  47.5778294
  61.4885047  76.9978445  46.9218330  61.9367554  76.1594434  48.0999811
  70.8529458  68.4829692  54.9817784  71.1331212  67.8152881  55.6078211
  71.6380065  68.6758787  54.4692448  72.7452696  73.9902909  58.9148760
  72.1502628  74.2707922  58.2195249  72.4602393  74.4796810  59.6865501
  69.0409725  78.9949498  43.8858863  69.9868830  78.8655707  43.9547281
  68.6623970  78.2564160  44.3628291  75.0131610  70.6605504  53.8485755
  74.8156431  70.3520593  54.7329087  75.6231315  71.3867143  53.9783685
  67.2252642  76.9199475  43.8213748  66.3184098  76.6232588  43.8976462
  67.5028623  76.6229293  42.9548035  58.1430583  78.2405838  54.2712795
  57.8233367  77.3871146  53.9787169  57.5964011  78.4554416  55.0270762
  61.9210490  80.9568279  57.9882301  62.1396500  81.8885387  58.0070335
  62.3336264  80.5976254  58.7737105  68.8414708  71.4636365  49.9757990
  68.0315436  71.1183449  50.3513236  69.5299125  71.1543908  50.5645601
  70.7705256  70.5414411  51.5982286  71.3236295  70.9609865  52.2572309
  71.0075343  69.6150159  51.6405242  65.9951427  73.7786410  43.9625728
  66.8570591  74.1041308  44.2221545  66.1801771  72.9917906  43.4498793
  58.0118843  81.8608750  56.2405916  57.3182314  81.4462702  55.7275871
  58.7591834  81.9029286  55.6439335  74.1484063  72.6514936  51.1060951
  73.5682732  73.3099741  50.7239003  73.8819996  71.8292281  50.6948368
  72.5987630  72.0519994  53.3082271  73.0987408  72.1636529  52.4996590
  73.2423238  71.7481047  53.9483079  59.9255585  81.7927003  54.1171931
  59.9026273  81.8914691  53.1653814  60.2356222  82.6392154  54.4389097
  62.5842963  83.8503159  58.2318546  63.5386217  83.8187101  58.1648477
  62.3855487  83.3893782  59.0468772  72.9308941  74.8115027  50.1617299
  72.0434796  75.0964677  49.9437494  73.3462931  74.6508790  49.3144576
  76.2823478  74.8361548  53.8771638  77.0583868  75.3258000  54.1496255
  75.5571612  75.2619602  54.3343508  58.4277259  76.7542408  61.4981540
  59.0736123  76.2441362  61.9868766  58.2194411  77.4911090  62.0724966
  66.9480870  71.0182453  47.2505437  66.9359540  71.9624293  47.4073707
  67.8404292  70.8352598  46.9564898  70.7632989  67.6125230  51.5051373
  69.9965385  67.0583716  51.6508056  71.1743694  67.6847098  52.3665525
  28.4154356  -4.1085584  43.1264262  29.0532766  -4.2278837  42.4227602
  28.2975199  -3.1604740  43.1852214  25.2244063  -4.1558156  43.0625787
  24.8862574  -4.2717091  42.1746322  26.0933831  -4.5566991  43.0426793
  25.7063846  -3.0023304  49.0211992  25.6952486  -3.3970506  48.1492496
  25.8684485  -3.7357231  49.6145764  26.6630437   1.3648288  34.3637143
  26.0118417   1.9502369  33.9771157  27.4574800   1.8954483  34.4232180
  20.5886064  -1.5462575  34.7624277  21.3616940  -2.0933587  34.6237153
  20.9411463  -0.6818325  34.9738739  22.4271107  -0.2186192  47.9691176
  22.1360973   0.6859439  47.8537843  23.0628091  -0.1769665  48.6835246
  23.3527313  -2.8409344  44.5592536  23.9490886  -3.0653321  43.8449499
  23.4102285  -3.5824598  45.1617984  28.1405702  -0.9461280  34.9006127
  27.5051535  -0.8726653  35.6127032  27.8103108  -0.3567681  34.2225206
  24.9880172  -4.0231655  38.3013791  24.6238379  -4.5501034  39.0126713
  25.8447287  -4.4133186  38.1280277  27.3860992  -0.5324777  44.9640970
  27.0861715   0.3700262  44.8556777  27.0412051  -0.7992594  45.8162123
  22.3681772   6.2319544  37.9311938  22.2905801   7.1827369  38.0100418
  21.7643415   5.8865416  38.5886864  28.5900713  -1.6437997  48.7463433
  28.9984069  -2.0855587  48.0018066  27.8677975  -2.2185370  48.9997626
  28.9129528  -1.0836807  42.5015722  28.2838390  -0.9191092  41.7991790
  28.5255190  -0.6695197  43.2726686  32.7918760  -0.1482369  39.8560086
  32.1069798   0.2316533  39.3057119  32.8762609   0.4612958  40.5892034
  30.0469691  -2.5022410  46.4555429  30.2586587  -1.8590650  45.7789810
  29.9999440  -3.3360093  45.9877359  24.4657490  -1.3462398  39.7665807
  24.9295835  -1.0674695  38.9770430  24.2014288  -2.2478954  39.5838898
  21.3581571  -1.7990917  42.7045570  21.9282928  -1.3703649  42.0663055
  21.9489683  -2.0808332  43.4029756  31.1615519   0.3749546  44.6277787
  31.9832963  -0.0270267  44.3460468  31.1577922   0.2717780  45.5793903
  24.9272123  -0.0766411  46.7838497  24.9916555   0.3853996  47.6196669
  24.2183047  -0.7069046  46.9120807  24.6420140   1.5901697  36.6517478
  24.5065815   2.4353232  37.0802325  25.1829953   1.7920974  35.8883411
  19.9044423   2.2242891  39.3068156  20.0811051   3.1460856  39.1189140
  20.7001256   1.9101310  39.7362536  26.2688617   2.2125263  50.7817820
  25.8252471   1.4261642  50.4638724  26.9305830   2.4004414  50.1161710
  21.0275738   3.7421065  45.3078498  21.5783163   3.6138128  44.5355492
  20.1887214   4.0415954  44.9573391  28.3669855   2.4928063  48.8099221
  28.3488330   3.3136944  48.3179490  29.2889775   2.3682138  49.0349362
  24.8242909   0.0072192  49.6522729  25.3571246  -0.7539519  49.4222037
  24.2956990  -0.2854156  50.3946884  27.9562887  -4.8959130  33.6888806
  27.4409510  -4.1254526  33.9277194  27.6840195  -5.5693994  34.3121868
  32.9297161  -2.1426776  35.6241980  32.1526604  -2.4815616  35.1797142
  33.6088642  -2.1374153  34.9496945  26.1895622  -0.8641815  37.1641541
  25.6616983  -1.5989056  36.8514779  25.6883124  -0.0867139  36.9181510
  31.1688468  -2.6692795  42.2808588  30.5112142  -1.9793533  42.3688716
  31.9728867  -2.2796363  42.6242574  29.9793927  -4.3148422  40.3312529
  30.4925808  -3.6818430  40.8334239  30.6295150  -4.9147226  39.9655889
  24.3348222  -3.0461605  30.1676514  23.4275284  -3.2772351  30.3667663
  24.8319254  -3.8423986  30.3550496  27.2416301   5.6635902  33.0873200
  26.5678000   5.9667599  33.6958158  27.6282123   6.4664983  32.7378658
  27.2409805  -5.4407551  37.7073550  27.9881624  -4.9286153  37.3980672
  27.5101395  -5.7623498  38.5677944  25.5136455  -2.9449010  34.6900504
  24.6047675  -3.2289977  34.7872974  25.5431539  -2.5249931  33.8303811
  30.7455723   0.6657580  38.4591672  30.2918050  -0.1751511  38.5156862
  30.1149689   1.3018978  38.7966452  29.1888662   2.5034076  39.3941490
  29.4811636   3.0639133  38.6753856  29.6987283   2.7962637  40.1494649
  25.2112543  -1.4040266  32.0288583  24.7731973  -2.1204407  31.5694220
  25.9522984  -1.1764151  31.4673674  24.1522287   3.2814427  40.4834943
  24.1098466   3.5075274  39.5543475  25.0684986   3.0477802  40.6320744
  27.5987921  -6.2501505  47.3815573  27.9537309  -6.0230032  48.2410038
  28.2460052  -5.9183128  46.7592828  33.3285658  -3.1283069  38.0864902
  33.1903557  -2.9381473  37.1586091  32.9721877  -2.3663686  38.5432953
  33.3555038  -1.0606542  43.0976173  33.7891544  -1.1531253  43.9459227
  34.0686618  -1.0849042  42.4596189  22.2688088   0.1577456  40.2796906
  23.0628686  -0.3372224  40.0779481  21.5579780  -0.3704681  39.9164612
  27.0882932   2.5395552  44.6309274  27.1419955   3.1086488  45.3986990
  26.2197714   2.7097437  44.2663311  34.2170587  -1.0182842  45.6309058
  34.4106477  -0.1137031  45.8768333  34.1171205  -1.4775423  46.4647644
  29.2785696  -0.8676099  51.2049939  29.1271202  -1.0965547  50.2880023
  29.2690375   0.0894503  51.2181284  26.0471032  -3.2944186  46.1896206
  26.9763092  -3.1433026  46.0165173  25.6262062  -3.2060165  45.3344852
  24.8459364   0.7306478  43.9594743  24.7070450   0.3625263  44.8320681
  24.0573960   1.2454118  43.7878701  25.4407516   5.8315575  35.3020280
  25.6159272   5.3603618  36.1165902  24.7540304   6.4581341  35.5301540
  26.3964579   0.1088081  41.3483581  26.0614412   0.0688851  42.2441231
  25.8968525  -0.5567203  40.8753991  29.3323771  -2.5455885  31.6220641
  28.7152941  -3.2709056  31.5253693  28.8640259  -1.7846524  31.2787715
  30.9877902   2.1643024  49.2826421  30.9290449   1.4802244  48.6157004
  31.3897421   2.9062014  48.8307047  20.0068601   8.9804938  42.0760140
  20.2465199   9.6123462  42.7539158  19.1637798   8.6292978  42.3625499
  30.9895310   0.1282608  47.5140401  30.1022088  -0.2091471  47.6366799
  31.5593861  -0.6034361  47.7509166  24.5196463   4.7884060  44.4801644
  24.4466635   5.5939031  44.9920948  24.0773856   4.9876026  43.6549665
  24.3086243   4.0255830  37.9904465  23.5253765   4.5677510  38.0842690
  25.0078988   4.5429810  38.3898707  26.9795147   4.6870894  46.6359802
  27.6923119   5.3218359  46.5635704  26.4885175   4.7834760  45.8199804
  28.7012674  -1.4077853  38.2077094  27.7668952  -1.2876391  38.0381798
  28.8789342  -2.3105387  37.9437104  22.0307060   2.4365337  47.4565373
  22.7316520   3.0701820  47.6094768  21.5602175   2.7780069  46.6961013
  30.1561456   0.7783287  35.7413280  30.4321300   0.6639882  36.6507154
  29.2865955   0.3800772  35.7025453  29.8308346  -5.0090055  45.2817924
  29.1779796  -4.7614148  44.6270376  30.2088726  -5.8225917  44.9480401
  26.7915520   5.0269638  39.3846094  26.9737915   4.2091294  39.8473846
  27.6148506   5.2437330  38.9470984  27.1257686   3.9537823  36.6461142
  27.6545452   3.4430278  36.0331305  27.3885905   3.6380353  37.5106675
  25.8795919  -4.2670244  51.7683961  25.2036556  -4.3676115  52.4386336
  26.7023553  -4.4231030  52.2319958  17.6274778   1.9701693  44.3896476
  18.2128215   1.2245380  44.5224380  17.4299617   2.2805649  45.2733140
  20.4813433   5.0052940  39.4058918  19.8123809   5.4899068  38.9222958
  20.3426303   5.2522160  40.3202297  24.6218702   7.0396683  46.0041577
  25.1737010   7.2028305  46.7690662  24.9624895   7.6301121  45.3321602
  29.4729576   1.8657941  51.8590231  30.0169480   2.4787899  51.3645186
  28.8916421   2.4237519  52.3757244  27.7587089   4.9878659  42.9905259
  27.6338229   4.1868399  42.4816204  28.4166180   5.4824852  42.5019229
  29.8221998   2.7887679  44.6184809  28.8752333   2.6693030  44.5463136
  30.1704771   1.9010177  44.7011070  26.8268431   2.5840395  40.8189161
  26.6793393   1.6557103  40.9996731  27.6521924   2.6060486  40.3346236
  30.4302553   3.4068954  41.9054034  31.3549100   3.2011815  41.7678485
  30.2617856   3.1585355  42.8143375  30.2197869   3.9254621  37.2616125
  30.3934747   3.3601044  36.5089978  30.7126760   4.7255516  37.0795615
  31.2073042   3.2421386  34.3613024  31.9023946   3.8628079  34.5800338
  31.5496192   2.3916737  34.6365402  33.1064465   0.6921091  35.8900354
  33.6315789   1.0308364  35.1649674  33.0186817  -0.2431893  35.7063489
  24.7684513   4.6055165  48.0190231  25.0771640   4.3604312  48.8912931
  25.5659995   4.8101804  47.5309101  24.7905125   6.7593075  40.2495608
  24.3510116   6.2669453  40.9428464  25.5413242   6.2166042  40.0087683
  17.2697464   2.9504616  40.2520236  18.0955484   2.6508387  39.8718879
  16.9191516   2.1812238  40.7010024  22.2378998   2.3031084  42.3217909
  21.6159007   1.6401789  42.0220137  22.9083864   2.3292216  41.6391557
  32.7958371   1.3253995  51.1951552  32.0053914   1.3078134  50.6556052
  32.5591725   1.8642289  51.9500589  32.9156246  -1.8253539  48.5084281
  32.9654251  -1.9903531  49.4499804  32.8070169  -2.6926280  48.1182162
  21.7992504   0.8535007  35.7976370  21.9480625   1.5370471  35.1443043
  22.6058948   0.8340097  36.3125826  34.4174443   0.5943403  48.7526302
  34.1259251   0.9573383  49.5889763  33.8046574  -0.1189589  48.5739635
  35.6170125  -1.8403717  41.2728873  36.4517016  -1.4013913  41.4366433
  35.7529254  -2.3165064  40.4537118  32.6661631  -4.2823982  47.2206360
  33.1415752  -4.0896336  46.4125212  31.7427196  -4.2264797  46.9749744
  25.2987910   3.3483138  33.2688117  24.7261877   3.9673325  32.8158589
  25.8720704   3.8982499  33.8028039  28.5185170   3.6320288  34.3996700
  29.4515843   3.5665849  34.6029575  28.4308383   4.4676555  33.9411232
  31.1473186   2.9486158  31.3600647  31.0686818   2.6146022  32.2536405
  31.9682853   3.4407926  31.3592119  25.5673401  -1.2638304  52.0704827
  26.4876410  -1.0859705  52.2644873  25.5322984  -2.2082258  51.9184526
  17.5818175   5.0817230  41.9734050  17.4472643   4.3217631  41.4072048
  17.1650237   5.8058130  41.5062839  28.7177138   0.2654153  30.9810625
  29.4212988   0.4704156  31.5968281  27.9939787   0.8330915  31.2459709
  29.5474948  -3.9835985  37.1012896  29.4910150  -3.5267434  36.2620528
  30.1003291  -4.7445301  36.9235738  20.7387301   5.9786547  42.1852493
  20.6219685   6.9231979  42.0831183  19.9179747   5.6760108  42.5738292
  30.6263836   0.7036683  33.0309086  31.4609440   0.2717881  32.8486560
  30.4648179   0.5318696  33.9585980  30.2809728  -2.7931204  34.3965425
  30.2258532  -2.9586933  33.4553869  29.6555783  -2.0855171  34.5527615
  27.5955635  -0.4882292  53.7218988  28.4646795  -0.3141640  53.3605622
  27.1162386   0.3312125  53.5994717  21.7641815   6.6314809  45.4008421
  22.6669062   6.6638419  45.7174916  21.5379185   5.7015260  45.4154757
  23.5195417   5.3845795  42.0618500  22.5691048   5.3847657  41.9482872
  23.8227903   4.6378530  41.5454534  39.2548111  11.2206334  43.1264262
  39.8926521  11.1013081  42.4227602  39.1368954  12.1687178  43.1852214
  36.0637817  11.1733762  43.0625787  35.7256329  11.0574827  42.1746322
  36.9327585  10.7724927  43.0426793  31.9224633  13.0269238  39.0522678
  31.3589498  12.9359175  38.2838966  31.8077028  12.2069143  39.5325170
  36.5457600  12.3268614  49.0211992  36.5346241  11.9321412  48.1492496
  36.7078239  11.5934686  49.6145764  31.4279819  13.7829343  34.7624277
  32.2010695  13.2358330  34.6237153  31.7805217  14.6473592  34.9738739
  33.2664861  15.1105725  47.9691176  32.9754727  16.0151356  47.8537843
  33.9021845  15.1522253  48.6835246  34.1921068  12.4882574  44.5592536
  34.7884640  12.2638596  43.8449499  34.2496040  11.7467319  45.1617984
  33.7646096   9.9422009  32.3942727  34.0171617   9.4203530  31.6326190
  32.8270655   9.7788155  32.4969411  38.8089379   8.9457788  40.2017470
  39.5952468   8.5277211  39.8507887  39.0728084   9.8503880  40.3699119
  38.9799457  14.3830638  34.9006127  38.3445290  14.4565264  35.6127032
  38.6496863  14.9724237  34.2225206  44.2097806   8.8833021  41.1050449
  44.9422978   8.3132238  41.3388278  43.4537162   8.4954621  41.5456954
  33.4842385  11.8450115  34.5967102  33.3678643  11.1695019  35.2648186
  33.5944645  11.3582489  33.7799255  35.8273926  11.3060262  38.3013791
  35.4632133  10.7790883  39.0126713  36.6841042  10.9158731  38.1280277
  41.7323227   2.5954595  45.5645057  41.4006551   3.4650006  45.3406272
  41.1368840   2.2790879  46.2439088  35.4679413   6.3350162  33.2975140
  35.6353815   7.2030398  33.6645611  35.2776582   6.4977444  32.3736429
  31.6767228  11.2480938  40.9977675  30.7517724  11.1157152  41.2055366
  31.9251641  12.0275157  41.4947617  41.6251890   7.3149681  42.6438407
  40.7168767   7.2465090  42.3497168  41.5739486   7.7921626  43.4720233
  35.4468634   8.7907819  34.2821807  35.3268259   9.2364870  35.1207287
  34.7521222   9.1393137  33.7235345  29.0376039  10.8914211  41.8321464
  29.1668420  11.1448690  42.7460875  28.3573490  11.4841919  41.5126119
  35.6992756   8.7339327  50.5873305  34.9226090   9.2933247  50.5776169
  36.3383319   9.2196110  51.1088175  43.4913536   5.5166119  44.4216281
  42.8487917   5.8098653  43.7756076  42.9868465   5.4019040  45.2269478
  41.1453700   9.2629293  35.1102141  42.0571556   9.4956679  34.9349838
  40.6363347   9.8466337  34.5477219  33.9539128  11.5424780  50.1491272
  34.6953812  12.0809824  49.8726095  33.2476114  12.1691069  50.3062824
  39.4294468  13.6853920  48.7463433  39.8377824  13.2436331  48.0018066
  38.7071729  13.1106548  48.9997626  35.7825538   8.6226527  46.1196990
  36.6286733   9.0465941  46.2631639  35.7224175   7.9660152  46.8135553
  38.9324983   6.2830896  47.7778164  38.6885915   7.0372956  47.2412439
  39.2084914   6.6616243  48.6125411  40.8863446  12.8269508  46.4555429
  41.0980341  13.4701268  45.7789810  40.8393194  11.9931825  45.9877359
  38.4889675   5.4387329  43.3592002  37.6274154   5.7368582  43.6508739
  38.5152109   5.6557728  42.4273034  35.3051244  13.9829519  39.7665807
  35.7689590  14.2617222  38.9770430  35.0408042  13.0812964  39.5838898
  32.1975325  13.5301001  42.7045570  32.7676682  13.9588269  42.0663055
  32.7883437  13.2483585  43.4029756  34.2420130  10.1052672  36.5755372
  34.9444174  10.5573715  37.0429299  33.9100759   9.4636490  37.2035265
  32.6900492   8.6964428  50.9506582  32.0599152   9.3780709  51.1841979
  32.5836580   8.5847510  50.0059720  27.9845464   8.3636224  41.8772506
  27.1944518   8.6193753  41.4012617  28.4756712   9.1784562  41.9824546
  29.9360210   8.7280803  38.8355983  29.1391373   8.8399498  39.3539478
  29.7085802   9.0667456  37.9696873  35.7665877  15.2525507  46.7838497
  35.8310310  15.7145914  47.6196669  35.0576801  14.6222872  46.9120807
  26.2683167   8.6166715  44.3087497  26.5191206   9.5013725  44.5745073
  26.8042716   8.4371316  43.5362589  50.0915267  12.0480212  40.9762758
  49.3378975  11.4787610  40.8206763  50.2262808  12.0142876  41.9233393
  31.9681235   2.9985194  53.3131833  31.5748180   2.4451393  53.9879477
  32.7847375   3.3095773  53.7038350  34.8849196   4.4143073  50.9052089
  35.6258909   5.0150226  50.8256552  35.1167118   3.6720711  50.3470132
  30.0290534   9.5999440  49.1830319  29.9144049   8.6984698  49.4837418
  29.1735051   9.8463137  48.8315136  37.1082371  17.5417181  50.7817820
  36.6646225  16.7553559  50.4638724  37.7699585  17.7296331  50.1161710
  39.2063609  17.8219981  48.8099221  39.1882085  18.6428862  48.3179490
  40.1283529  17.6974056  49.0349362  35.6636664  15.3364110  49.6522729
  36.1965000  14.5752398  49.4222037  35.1350745  15.0437762  50.3946884
  38.8306359   0.4424176  45.1816371  38.4870628   1.3325818  45.1055482
  39.1985321   0.2525834  44.3185956  26.8992209  12.7657707  38.0004973
  27.7367431  13.1754715  37.7838681  27.0770477  11.8257149  37.9705167
  38.7956641  10.4332787  33.6888806  38.2803265  11.2037392  33.9277194
  38.5233950   9.7597923  34.3121868  36.3803752   5.2782488  38.7474045
  35.5245349   4.8889338  38.5679683  36.7930704   5.3574449  37.8873830
  37.9102899   2.8128831  43.1465604  37.4067694   2.7758966  42.3333410
  38.2033506   3.7221574  43.2062261  34.1545785   2.8967561  42.1531786
  35.0198782   2.7010370  41.7937675  34.2223294   2.6677913  43.0801143
  43.7690915  13.1865142  35.6241980  42.9920358  12.8476301  35.1797142
  44.4482396  13.1917765  34.9496945  38.5842944   8.3059879  35.5148587
  38.2793080   8.6206028  36.3658731  39.5373387   8.3841299  35.5575920
  37.0289376  14.4650103  37.1641541  36.5010738  13.7302862  36.8514779
  36.5276879  15.2424779  36.9181510  42.0082222  12.6599123  42.2808588
  41.3505897  13.3498384  42.3688716  42.8122621  13.0495555  42.6242574
  31.7608104   5.1269769  39.5248153  32.3351856   4.9044950  38.7921346
  32.3479086   5.1958463  40.2776754  40.8187681  11.0143496  40.3312529
  41.3319563  11.6473488  40.8334239  41.4688905  10.4144691  39.9655889
  32.0877691   7.1574230  33.5444038  31.2515003   7.4948916  33.8653313
  31.9482461   7.0223210  32.6071175  34.0630772   2.0011018  38.2523222
  33.4095184   1.6860035  37.6279837  34.0211246   1.3786758  38.9783045
  35.1741976  12.2830313  30.1676514  34.2669038  12.0519566  30.3667663
  35.6713008  11.4867932  30.3550496  37.2968512   8.4892951  42.5770870
  36.3791073   8.7107898  42.4192558  37.7128656   8.5639262  41.7182577
  38.0803560   9.8884367  37.7073550  38.8275379  10.4005764  37.3980672
  38.3495149   9.5668420  38.5677944  36.3530210  12.3842908  34.6900504
  35.4441429  12.1001941  34.7872974  36.3825294  12.8041986  33.8303811
  40.5282397   6.9241483  39.6892339  39.7905154   6.4118869  40.0202582
  40.7809170   6.4841865  38.8775616  40.6294024  -0.2982265  40.2834109
  40.9352901  -1.1584901  39.9960024  41.3546629   0.2935355  40.0833103
  26.9218380  10.1048422  38.6715707  26.7242780   9.5117783  37.9466773
  26.3665044   9.8000632  39.3891645  34.9015104   9.9971528  40.7910300
  34.9563714   9.0445365  40.7152776  34.0906306  10.1530967  41.2751598
  36.0506298  13.9251651  32.0288583  35.6125728  13.2087510  31.5694220
  36.7916739  14.1527766  31.4673674  32.8407464   8.6148588  38.5500679
  32.0275329   8.9142759  38.9565871  33.3366458   8.2204277  39.2675161
  38.4381676   9.0790413  47.3815573  38.7931063   9.3061886  48.2410038
  39.0853807   9.4108789  46.7592828  44.1679412  12.2008848  38.0864902
  44.0297311  12.3910444  37.1586091  43.8115631  12.9628231  38.5432953
  32.3321539   6.1866944  44.1661914  32.9720918   6.0455703  43.4684877
  31.4999069   5.9001457  43.7900516  44.1948792  14.2685375  43.0976173
  44.6285299  14.1760665  43.9459227  44.9080373  14.2442876  42.4596189
  29.4164606   9.6312456  36.3556659  28.4862194   9.5696911  36.5726621
  29.5122078   9.1088409  35.5593300  29.3350155   6.1567269  38.9434900
  29.5956972   7.0712602  38.8344061  30.1567327   5.6891711  39.0931513
  30.8075080   7.5705026  46.1133725  31.4798134   7.3622388  45.4646374
  29.9804867   7.3727112  45.6738957  36.7100652   4.1966967  48.1299386
  36.0628567   4.8956916  48.0363862  37.4801668   4.6303111  48.4975634
  40.1179450  14.4615819  51.2049939  39.9664957  14.2326371  50.2880023
  40.1084130  15.4186420  51.2181284  36.8864787  12.0347732  46.1896206
  37.8156847  12.1858891  46.0165173  36.4655817  12.1231752  45.3344852
  31.2102578  10.8447629  46.8736162  31.0722376  10.1127868  47.4747701
  32.1207501  10.7556529  46.5920350  40.1717525  12.7836033  31.6220641
  39.5546696  12.0582861  31.5253693  39.7034014  13.5445393  31.2787715
  33.8384878  10.5567588  46.3619842  34.5484497   9.9160780  46.3206460
  33.7954186  10.8080483  47.2846023  41.8271657  17.4934941  49.2826421
  41.7684203  16.8094162  48.6157004  42.2291175  18.2353931  48.8307047
  32.5513812   7.5432806  48.1815481  32.0151169   7.0923544  48.8337078
  31.9630521   7.6778715  47.4385946  31.9616071   7.0021457  30.7441945
  31.0845538   6.8810258  30.3804192  32.4373824   6.2107536  30.4920834
  23.4818211  11.7898617  40.8383452  24.1689251  11.4760347  40.2504467
  23.3266340  12.6939982  40.5650703  28.2852933   6.6788814  45.2668476
  28.2011122   6.0714483  44.5318886  27.4635640   7.1697832  45.2677972
  38.4576647   5.1642377  40.6338671  38.9545347   4.4112339  40.3139741
  37.6863629   5.2006694  40.0681880  46.3106405  10.8682743  42.2756962
  46.2996281  11.7507458  41.9050895  45.4423784  10.5154294  42.0811499
  39.5406428  13.9214064  38.2077094  38.6062707  14.0415527  38.0381798
  39.7183096  13.0186531  37.9437104  35.0411616   7.3059760  40.3610355
  34.6709404   6.7530801  41.0491261  35.5370709   6.7017894  39.8085355
  42.9278979   9.7631384  38.7427128  43.3939432  10.5959375  38.6687431
  43.3786480   9.2976365  39.4472387  40.8995642   2.1311971  42.7818030
  39.9858722   2.3616198  42.9500237  41.3288744   2.2150415  43.6332062
  40.6702101  10.3201863  45.2817924  40.0173551  10.5677770  44.6270376
  41.0482481   9.5066001  44.9480401  36.7189674  11.0621674  51.7683961
  36.0430311  10.9615803  52.4386336  37.5417308  10.9060887  52.2319958
  23.0586187   9.8699210  43.1100919  23.0970287   9.3362801  43.9038037
  22.5526480   9.3434416  42.4911896  30.4376950   4.7163751  46.6063461
  30.5018276   5.5778582  46.1940859  30.3744070   4.1037753  45.8735820
  29.9129222   6.7886883  50.2536496  30.5401261   6.4063961  50.8674020
  29.0557141   6.5701085  50.6192188  26.6894765   8.5963313  36.1854851
  26.9848206   7.6873991  36.1321904  25.7882801   8.5751052  35.8635853
  30.2189012   6.6719309  42.1682399  29.4975598   7.2855277  42.0289872
  31.0082268   7.2077074  42.0899045  33.0215326   4.0073736  48.4423051
  33.5449727   4.2536032  49.2049360  32.8027659   4.8393770  48.0226188
  28.4182607   6.2777410  36.3094176  28.0895313   5.3974789  36.1269282
  28.7721977   6.2225079  37.1970565  31.5324430   6.5650380  36.6769653
  31.8720502   7.0936301  35.9548262  31.9796550   6.9030786  37.4528220
  34.2267871   4.9487431  46.1272721  33.8864691   4.1495244  46.5293401
  33.5206877   5.2489142  45.5549555  34.8784342   2.0336743  44.5800044
  35.7010412   1.5597221  44.4578935  35.1222406   2.8127227  45.0798731
  33.5192577   5.0625002  34.8762946  34.2400939   5.4406254  34.3726663
  32.8957881   5.7813878  34.9797924  37.6623700   5.7670151  35.8121278
  37.8787314   6.6494788  35.5110107  37.1817767   5.3756364  35.0826920
  32.4022921   8.7255864  42.3892023  32.2567502   9.0396167  43.2816305
  31.9248125   9.3440764  41.8362922  34.2619304   5.7158412  42.4372913
  34.2480873   4.8199505  42.1005211  34.9791732   5.7229076  43.0711199
  36.1145435   6.1495752  44.4826040  35.8563213   7.0712823  44.4810370
  35.5830475   5.7526187  45.1726504  26.8768583  11.2661208  45.3279684
  26.3322051  12.0421016  45.4599959  27.7547933  11.6132013  45.1698806
  33.6656200   4.5972792  37.7060483  33.7872111   3.6689438  37.9051370
  33.3758242   4.6111478  36.7938798  36.5347390   2.2827703  40.8427203
  36.5569087   2.3467036  39.8879182  36.9515449   1.4432211  41.0367709
  46.9131015  12.0182962  38.8806425  47.3562161  11.2690287  38.4825548
  46.0357525  12.0093098  38.4980157  27.6634605  10.3931104  48.2209841
  26.9216341  10.5413740  48.8074472  27.3427349  10.6539370  47.3576591
  43.9458219  16.0213009  35.8900354  44.4709543  16.3600282  35.1649674
  43.8580572  15.0860024  35.7063489  33.1497280   6.1104789  51.9150415
  33.1985435   6.9866912  51.5328185  33.6919794   5.5682183  51.3422059
  43.6352125  16.6545913  51.1951552  42.8447669  16.6370052  50.6556052
  43.3985480  17.1934206  51.9500589  43.7550000  13.5038379  48.5084281
  43.8048005  13.3388387  49.4499804  43.6463924  12.6365638  48.1182162
  41.0453763   9.4869307  49.8243588  41.9463625   9.3475772  49.5327585
  41.1201737   9.6523762  50.7641765  35.3796568   6.8636162  48.6696774
  34.5099877   7.1569728  48.3979363  35.6156048   7.4476607  49.3904038
  43.5055385  11.0467935  47.2206360  43.9809507  11.2395582  46.4125212
  42.5820951  11.1027121  46.9749744  30.3938892  12.2092102  36.8037439
  30.1484934  11.3054432  37.0017649  30.5634806  12.2109253  35.8616917
  38.0835602   3.0815779  46.1862194  38.6017546   3.8176806  45.8608683
  37.7290735   3.3879772  47.0208953  29.6634539   7.9420460  34.3023600
  28.9703784   8.0164815  33.6463636  29.4186291   7.1780804  34.8245117
  38.3348196  -0.4983939  41.7063091  38.6149950  -1.1660750  42.3323518
  39.1198803  -0.3054843  41.1937755  42.2057054   7.9233695  45.4534666
  43.1574477   8.0231793  45.4746890  42.0360505   7.1311964  45.9632750
  40.2271434   5.0089279  45.6394067  39.6321366   5.2894291  44.9440556
  39.9421130   5.4983179  46.4110808  44.6845132  11.1439815  44.5676966
  44.6521452  10.2055816  44.7536650  45.2945756  11.2223852  43.8342791
  36.5228463  10.0135868  30.6104170  37.4687568   9.8842076  30.6792588
  36.1442708   9.2750530  31.0873598  44.8339621   7.9350858  44.6135249
  44.3178669   7.1509315  44.4265178  45.7179569   7.6069575  44.7781768
  42.4950348   1.6791874  40.5731062  42.2975169   1.3706962  41.4574394
  43.1050053   2.4053513  40.7028991  50.5021682  12.2055822  43.7083003
  51.2325070  11.9441110  44.2690706  49.8928627  11.4684544  43.7485071
  48.5836979  10.3463684  44.3057454  47.8570143  10.2119649  43.6973945
  48.1684266  10.6540513  45.1114172  36.4067156  14.0653614  52.0704827
  37.3270165  14.2432213  52.2644873  36.3716739  13.1209659  51.9184526
  34.7071380   7.9385844  30.5459055  33.8002836   7.6418957  30.6221769
  34.9847361   7.6415662  29.6793341  25.6249321   9.2592208  40.9958101
  25.3052105   8.4057516  40.7032475  25.0782749   9.4740786  41.7516069
  29.4029228  11.9754649  44.7127608  29.6215238  12.9071757  44.7315642
  29.8155002  11.6162623  45.4982412  36.3233446   2.4822734  36.7003296
  35.5134174   2.1369819  37.0758542  37.0117863   2.1730278  37.2890908
  38.2523994   1.5600781  38.3227593  38.8055033   1.9796234  38.9817616
  38.4894080   0.6336529  38.3650549  34.2757093   7.5487855  54.1030357
  34.1753820   8.4982211  54.0342448  34.0578635   7.2206093  53.2306427
  33.4770165   4.7972780  30.6871034  34.3389329   5.1227678  30.9466852
  33.6620509   4.0104275  30.1744100  25.4937581  12.8795119  42.9651223
  24.8001052  12.4649072  42.4521177  26.2410572  12.9215656  42.3684642
  41.6302801   3.6701306  37.8306257  41.0501470   4.3286110  37.4484310
  41.3638734   2.8478651  37.4193675  40.0806368   3.0706364  40.0327578
  40.5806146   3.1822898  39.2241896  40.7241976   2.7667417  40.6728386
  34.1388363  10.9784993  52.9195418  33.6555445  11.7785353  53.1259308
  34.2249302  10.9892938  51.9662862  27.4074323  12.8113373  40.8417238
  27.3845011  12.9101060  39.8899121  27.7174960  13.6578524  41.1634404
  30.6561083  13.4390644  47.5234650  31.4753972  13.9334723  47.5469487
  30.9297891  12.5222612  47.4952217  40.4127679   5.8301396  36.8862605
  39.5253534   6.1151047  36.6682800  40.8281668   5.6695160  36.0389882
  43.7642215   5.8547917  40.6016945  44.5402605   6.3444370  40.8741562
  43.0390350   6.2805972  41.0588814  46.2014774   6.5675537  41.6590885
  46.7959265   6.3271273  40.9484194  46.2741358   5.8482667  42.2864422
  39.5570893  15.5946071  30.9810625  40.2606743  15.7996074  31.5968281
  38.8333541  16.1622833  31.2459709  40.3868703  11.3455932  37.1012896
  40.3303904  11.8024484  36.2620528  40.9397045  10.5846617  36.9235738
  44.1973509   7.1345664  37.9263015  43.9410443   6.7342300  38.7571223
  43.5726377   7.8489458  37.8013154  48.5085847   9.8741737  40.4334307
  47.9485405   9.9434927  41.2065869  47.9029350   9.6982722  39.7133803
  41.1203482  12.5360714  34.3965425  41.0652286  12.3704985  33.4553869
  40.4949538  13.2436747  34.5527615  25.9095997   7.7728778  48.2226847
  26.5554861   7.2627732  48.7114072  25.7013148   8.5097460  48.7970272
  38.4349389  14.8409625  53.7218988  39.3040549  15.0150278  53.3605622
  37.9556141  15.6604042  53.5994717  34.4299608   2.0368823  33.9750743
  34.4178278   2.9810663  34.1319014  35.3223030   1.8538968  33.6810204
  38.2451727  -1.3688401  38.2296680  37.4784123  -1.9229914  38.3753362
  38.6562432  -1.2966532  39.0910832  30.2493488   4.9196395  52.3201861
  31.1124950   4.5633200  52.5305186  29.6758899   4.5810290  53.0077266
  45.7242950  19.7434991  50.9052089  46.4652663  20.3442144  50.8256552
  45.9560873  19.0012629  50.3470132  51.4687779  15.0309653  40.2834109
  51.7746655  14.1707016  39.9960024  52.1940383  15.6227273  40.0833103
  49.1741950  14.8307979  41.7063091  49.4543704  14.1631168  42.3323518
  49.9592557  15.0237075  41.1937755  53.3344102  17.0083792  40.5731062
  53.1368923  16.6998880  41.4574394  53.9443808  17.7345431  40.7028991
  52.4696556  18.9993224  37.8306257  51.8895225  19.6578028  37.4484310
  52.2032488  18.1770568  37.4193675  45.2693362  17.3660740  33.9750743
  45.2572032  18.3102580  34.1319014  46.1616784  17.1830886  33.6810204
  49.0845482  13.9603517  38.2296680  48.3177878  13.4062004  38.3753362
  49.4956187  14.0325386  39.0910832  65.8885315  39.5416856  41.1050449
  66.6210487  38.9716073  41.3388278  65.1324671  39.1538457  41.5456954
  63.4110736  33.2538430  45.5645057  63.0794060  34.1233841  45.3406272
  62.8156349  32.9374714  46.2439088  63.3039399  37.9733516  42.6438407
  62.3956276  37.9048925  42.3497168  63.2526995  38.4505461  43.4720233
  57.3780265  39.3923162  50.5873305  56.6013599  39.9517082  50.5776169
  58.0170828  39.8779945  51.1088175  65.1701045  36.1749955  44.4216281
  64.5275426  36.4682488  43.7756076  64.6655974  36.0602875  45.2269478
  62.8241209  39.9213128  35.1102141  63.7359065  40.1540515  34.9349838
  62.3150856  40.5050172  34.5477219  65.3100023  45.8393384  39.8560086
  64.6251061  46.2192286  39.3057119  65.3943873  46.4488711  40.5892034
  60.6112492  36.9414731  47.7778164  60.3673424  37.6956791  47.2412439
  60.8872423  37.3200079  48.6125411  71.7702776  42.7064047  40.9762758
  71.0166484  42.1371445  40.8206763  71.9050317  42.6726712  41.9233393
  56.5636705  35.0726908  50.9052089  57.3046418  35.6734062  50.8256552
  56.7954627  34.3304546  50.3470132  60.4744150  41.0916623  33.6888806
  59.9590774  41.8621227  33.9277194  60.2021459  40.4181759  34.3121868
  65.4478424  43.8448977  35.6241980  64.6707867  43.5060137  35.1797142
  66.1269905  43.8501600  34.9496945  63.6869731  43.3182958  42.2808588
  63.0293406  44.0082220  42.3688716  64.4910130  43.7079390  42.6242574
  62.4975190  41.6727331  40.3312529  63.0107072  42.3057323  40.8334239
  63.1476414  41.0728527  39.9655889  59.7597564  51.6511655  33.0873200
  59.0859263  51.9543352  33.6958158  60.1463386  52.4540736  32.7378658
  60.1169184  39.7374248  47.3815573  60.4718572  39.9645721  48.2410038
  60.7641316  40.0692625  46.7592828  65.8466921  42.8592684  38.0864902
  65.7084820  43.0494280  37.1586091  65.4903140  43.6212067  38.5432953
  65.8736301  44.9269211  43.0976173  66.3072808  44.8344500  43.9459227
  66.5867882  44.9026711  42.4596189  59.6064196  48.5271305  44.6309274
  59.6601218  49.0962241  45.3986990  58.7378977  48.6973190  44.2663311
  66.7351851  44.9692911  45.6309058  66.9287741  45.8738722  45.8768333
  66.6352469  44.5100331  46.4647644  58.3888161  34.8550802  48.1299386
  57.7416076  35.5540752  48.0363862  59.1589177  35.2886946  48.4975634
  61.7966959  45.1199654  51.2049939  61.6452466  44.8910206  50.2880023
  61.7871639  46.0770256  51.2181284  61.8505034  43.4419868  31.6220641
  61.2334205  42.7166697  31.5253693  61.3821523  44.2029229  31.2787715
  67.9893914  41.5266578  42.2756962  67.9783790  42.4091293  41.9050895
  67.1211293  41.1738129  42.0811499  64.6066488  40.4215219  38.7427128
  65.0726941  41.2543211  38.6687431  65.0573989  39.9560201  39.4472387
  62.5783151  32.7895806  42.7818030  61.6646231  33.0200033  42.9500237
  63.0076253  32.8734250  43.6332062  62.9483816  49.3944707  41.9054034
  63.8730364  49.1887568  41.7678485  62.7799120  49.1461108  42.8143375
  62.7379133  49.9130374  37.2616125  62.9116010  49.3476797  36.5089978
  63.2308024  50.7131269  37.0795615  68.5918524  42.6766797  38.8806425
  69.0349670  41.9274123  38.4825548  67.7145034  42.6676934  38.4980157
  63.7254305  49.2297139  34.3613024  64.4205210  49.8503832  34.5800338
  64.0677455  48.3792490  34.6365402  65.6245728  46.6796844  35.8900354
  66.1497052  47.0184117  35.1649674  65.5368081  45.7443860  35.7063489
  54.8284789  36.7688625  51.9150415  54.8772944  37.6450748  51.5328185
  55.3707303  36.2266018  51.3422059  62.7241272  40.1453142  49.8243588
  63.6251134  40.0059607  49.5327585  62.7989246  40.3107597  50.7641765
  66.9355706  46.5819156  48.7526302  66.6440514  46.9449137  49.5889763
  66.3227837  45.8686164  48.5739635  68.1351388  44.1472036  41.2728873
  68.9698280  44.5861840  41.4366433  68.2710517  43.6710689  40.4537118
  63.8844563  38.5817531  45.4534666  64.8361986  38.6815628  45.4746890
  63.7148014  37.7895799  45.9632750  61.9058943  35.6673114  45.6394067
  61.3108875  35.9478127  44.9440556  61.6208639  36.1567015  46.4110808
  63.6654450  48.9361911  31.3600647  63.5868081  48.6021775  32.2536405
  64.4864117  49.4283679  31.3592119  66.3632641  41.8023650  44.5676966
  66.3308961  40.8639651  44.7536650  66.9733265  41.8807687  43.8342791
  58.2015972  40.6719703  30.6104170  59.1475077  40.5425911  30.6792588
  57.8230217  39.9334365  31.0873598  66.5127130  38.5934694  44.6135249
  65.9966178  37.8093150  44.4265178  67.3967078  38.2653410  44.7781768
  64.1737856  32.3375709  40.5731062  63.9762678  32.0290798  41.4574394
  64.7837562  33.0637348  40.7028991  72.1809191  42.8639657  43.7083003
  72.9112579  42.6024945  44.2690706  71.5716136  42.1268379  43.7485071
  70.2624488  41.0047520  44.3057454  69.5357652  40.8703485  43.6973945
  69.8471775  41.3124348  45.1114172  59.9311503  32.2184616  38.3227593
  60.4842542  32.6380070  38.9817616  60.1681589  31.2920364  38.3650549
  55.9544602  38.2071690  54.1030357  55.8541329  39.1566047  54.0342448
  55.7366144  37.8789929  53.2306427  63.3090310  34.3285141  37.8306257
  62.7288979  34.9869945  37.4484310  63.0426243  33.5062486  37.4193675
  61.7593877  33.7290199  40.0327578  62.2593655  33.8406734  39.2241896
  62.4029484  33.4251252  40.6728386  65.4429724  36.5131753  40.6016945
  66.2190114  37.0028205  40.8741562  64.7177859  36.9389807  41.0588814
  67.8802283  37.2259372  41.6590885  68.4746774  36.9855108  40.9484194
  67.9528867  36.5066503  42.2864422  61.2358402  46.2529906  30.9810625
  61.9394252  46.4579909  31.5968281  60.5121050  46.8206668  31.2459709
  62.0656212  42.0039768  37.1012896  62.0091413  42.4608319  36.2620528
  62.6184554  41.2430452  36.9235738  65.8761018  37.7929500  37.9263015
  65.6197952  37.3926135  38.7571223  65.2513886  38.5073294  37.8013154
  70.1873356  40.5325573  40.4334307  69.6272914  40.6018762  41.2065869
  69.5816859  40.3566557  39.7133803  63.1445099  46.6912436  33.0309086
  63.9790703  46.2593634  32.8486560  62.9829442  46.5194449  33.9585980
  62.7990991  43.1944549  34.3965425  62.7439795  43.0288820  33.4553869
  62.1737047  43.9020582  34.5527615  71.7729374  57.2082087  43.1264262
  72.4107784  57.0888834  42.4227602  71.6550217  58.1562931  43.1852214
  68.5819080  57.1609515  43.0625787  68.2437592  57.0450580  42.1746322
  69.4508849  56.7600680  43.0426793  69.0638863  58.3144367  49.0211992
  69.0527504  57.9197165  48.1492496  69.2259503  57.5810439  49.6145764
  70.0205455  62.6815959  34.3637143  69.3693435  63.2670039  33.9771157
  70.8149818  63.2122154  34.4232180  63.9461082  59.7705096  34.7624277
  64.7191958  59.2234083  34.6237153  64.2986481  60.6349345  34.9738739
  65.7846125  61.0981478  47.9691176  65.4935991  62.0027109  47.8537843
  66.4203109  61.1398006  48.6835246  66.7102331  58.4758327  44.5592536
  67.3065904  58.2514349  43.8449499  66.7677303  57.7343072  45.1617984
  66.2827360  55.9297762  32.3942727  66.5352881  55.4079284  31.6326190
  65.3451919  55.7663908  32.4969411  71.3270643  54.9333541  40.2017470
  72.1133732  54.5152964  39.8507887  71.5909347  55.8379633  40.3699119
  71.4980720  60.3706391  34.9006127  70.8626553  60.4441017  35.6127032
  71.1678126  60.9599990  34.2225206  76.7279070  54.8708774  41.1050449
  77.4604242  54.3007991  41.3388278  75.9718426  54.4830374  41.5456954
  66.0023649  57.8325868  34.5967102  65.8859907  57.1570772  35.2648186
  66.1125908  57.3458242  33.7799255  68.3455190  57.2936015  38.3013791
  67.9813397  56.7666636  39.0126713  69.2022305  56.9034484  38.1280277
  74.2504490  48.5830348  45.5645057  73.9187815  49.4525759  45.3406272
  73.6550104  48.2666632  46.2439088  67.9860677  52.3225915  33.2975140
  68.1535079  53.1906151  33.6645611  67.7957846  52.4853197  32.3736429
  70.7436010  60.7842894  44.9640970  70.4436733  61.6867933  44.8556777
  70.3987069  60.5175077  45.8162123  74.1433153  53.3025434  42.6438407
  73.2350031  53.2340843  42.3497168  74.0920749  53.7797379  43.4720233
  67.9649897  54.7783573  34.2821807  67.8449523  55.2240623  35.1207287
  67.2702486  55.1268890  33.7235345  65.7256789  67.5487214  37.9311938
  65.6480819  68.4995039  38.0100418  65.1218433  67.2033087  38.5886864
  68.2174019  54.7215080  50.5873305  67.4407353  55.2809000  50.5776169
  68.8564582  55.2071863  51.1088175  76.0094800  51.5041872  44.4216281
  75.3669180  51.7974406  43.7756076  75.5049728  51.3894793  45.2269478
  73.6634964  55.2505046  35.1102141  74.5752820  55.4832432  34.9349838
  73.1544611  55.8342090  34.5477219  66.4720392  57.5300533  50.1491272
  67.2135076  58.0685577  49.8726095  65.7657377  58.1566822  50.3062824
  71.9475731  59.6729674  48.7463433  72.3559087  59.2312084  48.0018066
  71.2252993  59.0982301  48.9997626  68.3006801  54.6102280  46.1196990
  69.1467996  55.0341694  46.2631639  68.2405439  53.9535905  46.8135553
  72.2704546  60.2330864  42.5015722  71.6413408  60.3976578  41.7991790
  71.8830208  60.6472474  43.2726686  76.1493778  61.1685302  39.8560086
  75.4644816  61.5484203  39.3057119  76.2337627  61.7780629  40.5892034
  71.4506247  52.2706649  47.7778164  71.2067178  53.0248709  47.2412439
  71.7266177  52.6491996  48.6125411  73.4044709  58.8145261  46.4555429
  73.6161605  59.4577021  45.7789810  73.3574458  57.9807578  45.9877359
  71.0070938  51.4263082  43.3592002  70.1455417  51.7244335  43.6508739
  71.0333373  51.6433481  42.4273034  67.8232508  59.9705272  39.7665807
  68.2870853  60.2492975  38.9770430  67.5589306  59.0688717  39.5838898
  64.7156589  59.5176754  42.7045570  65.2857946  59.9464022  42.0663055
  65.3064701  59.2359338  43.4029756  65.2081755  54.6840181  50.9506582
  64.5780416  55.3656462  51.1841979  65.1017843  54.5723263  50.0059720
  74.5190537  61.6917216  44.6277787  75.3407981  61.2897404  44.3460468
  74.5152940  61.5885451  45.5793903  68.2847141  61.2401260  46.7838497
  68.3491573  61.7021667  47.6196669  67.5758065  60.6098625  46.9120807
  82.6096530  58.0355965  40.9762758  81.8560239  57.4663363  40.8206763
  82.7444072  58.0018629  41.9233393  67.9995158  62.9069367  36.6517478
  67.8640833  63.7520903  37.0802325  68.5404971  63.1088645  35.8883411
  67.4030459  50.4018826  50.9052089  68.1440172  51.0025979  50.8256552
  67.6348382  49.6596464  50.3470132  69.6263635  63.5292934  50.7817820
  69.1827489  62.7429312  50.4638724  70.2880848  63.7172084  50.1161710
  64.3850756  65.0588735  45.3078498  64.9358181  64.9305799  44.5355492
  63.5462232  65.3583624  44.9573391  71.7244873  63.8095734  48.8099221
  71.7063348  64.6304615  48.3179490  72.6464793  63.6849809  49.0349362
  68.1817927  61.3239863  49.6522729  68.7146264  60.5628151  49.4222037
  67.6532008  61.0313515  50.3946884  71.3487622  46.4299929  45.1816371
  71.0051891  47.3201571  45.1055482  71.7166585  46.2401587  44.3185956
  71.3137905  56.4208540  33.6888806  70.7984528  57.1913145  33.9277194
  71.0415213  55.7473676  34.3121868  68.8985016  51.2658241  38.7474045
  68.0426612  50.8765091  38.5679683  69.3111967  51.3450202  37.8873830
  70.4284162  48.8004584  43.1465604  69.9248958  48.7634719  42.3333410
  70.7214769  49.7097327  43.2062261  66.6727048  48.8843314  42.1531786
  67.5380045  48.6886123  41.7937675  66.7404557  48.6553666  43.0801143
  76.2872179  59.1740895  35.6241980  75.5101622  58.8352054  35.1797142
  76.9663660  59.1793518  34.9496945  71.1024208  54.2935632  35.5148587
  70.7974343  54.6081781  36.3658731  72.0554650  54.3717052  35.5575920
  69.5470640  60.4525856  37.1641541  69.0192001  59.7178615  36.8514779
  69.0458142  61.2300532  36.9181510  74.5263486  58.6474876  42.2808588
  73.8687160  59.3374138  42.3688716  75.3303885  59.0371308  42.6242574
  64.2789367  51.1145522  39.5248153  64.8533119  50.8920703  38.7921346
  64.8660350  51.1834216  40.2776754  73.3368945  57.0019249  40.3312529
  73.8500826  57.6349241  40.8334239  73.9870168  56.4020444  39.9655889
  64.6058954  53.1449983  33.5444038  63.7696267  53.4824669  33.8653313
  64.4663724  53.0098963  32.6071175  66.5812035  47.9886771  38.2523222
  65.9276447  47.6735788  37.6279837  66.5392509  47.3662511  38.9783045
  67.6923240  58.2706066  30.1676514  66.7850302  58.0395319  30.3667663
  68.1894272  57.4743685  30.3550496  70.5991319  66.9803573  33.0873200
  69.9253018  67.2835270  33.6958158  70.9857141  67.7832653  32.7378658
  69.8149775  54.4768704  42.5770870  68.8972337  54.6983651  42.4192558
  70.2309919  54.5515015  41.7182577  70.5984823  55.8760120  37.7073550
  71.3456642  56.3881517  37.3980672  70.8676413  55.5544173  38.5677944
  68.8711473  58.3718661  34.6900504  67.9622693  58.0877694  34.7872974
  68.9006557  58.7917739  33.8303811  74.1030741  61.9825250  38.4591672
  73.6493068  61.1416160  38.5156862  73.4724707  62.6186649  38.7966452
  73.0463660  52.9117236  39.6892339  72.3086417  52.3994622  40.0202582
  73.2990434  52.4717618  38.8775616  72.5463680  63.8201747  39.3941490
  72.8386654  64.3806804  38.6753856  73.0562301  64.1130308  40.1494649
  73.1475288  45.6893488  40.2834109  73.4534164  44.8290852  39.9960024
  73.8727892  46.2811108  40.0833103  67.4196367  55.9847281  40.7910300
  67.4744977  55.0321118  40.7152776  66.6087569  56.1406720  41.2751598
  68.5687561  59.9127404  32.0288583  68.1306991  59.1963263  31.5694220
  69.3098002  60.1403519  31.4673674  65.3588727  54.6024341  38.5500679
  64.5456593  54.9018512  38.9565871  65.8547721  54.2080030  39.2675161
  67.5097305  64.5982098  40.4834943  67.4673484  64.8242944  39.5543475
  68.4260004  64.3645473  40.6320744  70.9562939  55.0666166  47.3815573
  71.3112327  55.2937639  48.2410038  71.6035070  55.3984542  46.7592828
  76.6860676  58.1884601  38.0864902  76.5478575  58.3786197  37.1586091
  76.3296895  58.9503984  38.5432953  76.7130056  60.2561128  43.0976173
  77.1466562  60.1636418  43.9459227  77.4261636  60.2318629  42.4596189
  65.6263106  61.4745127  40.2796906  66.4203704  60.9795447  40.0779481
  64.9154798  60.9462990  39.9164612  70.4457950  63.8563223  44.6309274
  70.4994973  64.4254159  45.3986990  69.5772732  64.0265108  44.2663311
  77.5745605  60.2984829  45.6309058  77.7681495  61.2030640  45.8768333
  77.4746223  59.8392248  46.4647644  69.2281916  50.1842720  48.1299386
  68.5809831  50.8832669  48.0363862  69.9982931  50.6178864  48.4975634
  72.6360714  60.4491572  51.2049939  72.4846220  60.2202124  50.2880023
  72.6265393  61.4062173  51.2181284  69.4046050  58.0223485  46.1896206
  70.3338110  58.1734644  46.0165173  68.9837080  58.1107505  45.3344852
  68.2034382  62.0474149  43.9594743  68.0645468  61.6792933  44.8320681
  67.4148978  62.5621788  43.7878701  68.7982534  67.1483245  35.3020280
  68.9734290  66.6771289  36.1165902  68.1115322  67.7749012  35.5301540
  69.7539597  61.4255752  41.3483581  69.4189430  61.3856522  42.2441231
  69.2543543  60.7600468  40.8753991  72.6898789  58.7711786  31.6220641
  72.0727959  58.0458614  31.5253693  72.2215277  59.5321146  31.2787715
  66.3566142  56.5443341  46.3619842  67.0665760  55.9036533  46.3206460
  66.3135450  56.7956236  47.2846023  74.3452920  63.4810694  49.2826421
  74.2865467  62.7969915  48.6157004  74.7472439  64.2229684  48.8307047
  63.3643619  70.2972608  42.0760140  63.6040217  70.9291132  42.7539158
  62.5212816  69.9460648  42.3625499  64.4797335  52.9897210  30.7441945
  63.6026801  52.8686011  30.3804192  64.9555088  52.1983289  30.4920834
  74.3470328  61.4450278  47.5140401  73.4597106  61.1076200  47.6366799
  74.9168879  60.7133310  47.7509166  67.8771481  66.1051731  44.4801644
  67.8041653  66.9106702  44.9920948  67.4348874  66.3043697  43.6549665
  67.6661261  65.3423501  37.9904465  66.8828783  65.8845181  38.0842690
  68.3654006  65.8597480  38.3898707  70.9757911  51.1518130  40.6338671
  71.4726610  50.3988093  40.3139741  70.2044892  51.1882447  40.0681880
  78.8287668  56.8558496  42.2756962  78.8177544  57.7383211  41.9050895
  77.9605048  56.5030047  42.0811499  70.3370165  66.0038565  46.6359802
  71.0498137  66.6386030  46.5635704  69.8460193  66.1002431  45.8199804
  72.0587691  59.9089817  38.2077094  71.1243970  60.0291280  38.0381798
  72.2364360  59.0062284  37.9437104  67.5592880  53.2935513  40.3610355
  67.1890667  52.7406554  41.0491261  68.0551972  52.6893647  39.8085355
  75.4460243  55.7507137  38.7427128  75.9120695  56.5835128  38.6687431
  75.8967743  55.2852118  39.4472387  65.3882078  63.7533008  47.4565373
  66.0891538  64.3869491  47.6094768  64.9177193  64.0947740  46.6961013
  73.5136474  62.0950958  35.7413280  73.7896318  61.9807553  36.6507154
  72.6440973  61.6968443  35.7025453  73.4176906  48.1187724  42.7818030
  72.5039985  48.3491951  42.9500237  73.8470007  48.2026168  43.6332062
  73.1883364  56.3077616  45.2817924  72.5354814  56.5553523  44.6270376
  73.5663744  55.4941754  44.9480401  70.1490538  66.3437309  39.3846094
  70.3312932  65.5258965  39.8473846  70.9723524  66.5605001  38.9470984
  70.4832703  65.2705494  36.6461142  71.0120470  64.7597949  36.0331305
  70.7460923  64.9548024  37.5106675  69.2370937  57.0497427  51.7683961
  68.5611574  56.9491556  52.4386336  70.0598571  56.8936640  52.2319958
  60.9849796  63.2869363  44.3896476  61.5703233  62.5413051  44.5224380
  60.7874635  63.5973320  45.2733140  63.8388451  66.3220611  39.4058918
  63.1698827  66.8066738  38.9222958  63.7001321  66.5689831  40.3202297
  67.9793720  68.3564354  46.0041577  68.5312028  68.5195976  46.7690662
  68.3199913  68.9468792  45.3321602  72.8304594  63.1825612  51.8590231
  73.3744498  63.7955570  51.3645186  72.2491439  63.7405190  52.3757244
  71.1162107  66.3046330  42.9905259  70.9913247  65.5036070  42.4816204
  71.7741198  66.7992523  42.5019229  73.1797016  64.1055350  44.6184809
  72.2327351  63.9860701  44.5463136  73.5279789  63.2177848  44.7011070
  60.9363870  52.2653163  36.3094176  60.6076576  51.3850542  36.1269282
  61.2903241  52.2100832  37.1970565  70.1843449  63.9008066  40.8189161
  70.0368411  62.9724773  40.9996731  71.0096942  63.9228157  40.3346236
  64.0505693  52.5526133  36.6769653  64.3901766  53.0812054  35.9548262
  64.4977814  52.8906539  37.4528220  73.7877571  64.7236625  41.9054034
  74.7124118  64.5179486  41.7678485  73.6192874  64.4753026  42.8143375
  66.7449134  50.9363184  46.1272721  66.4045954  50.1370997  46.5293401
  66.0388140  51.2364895  45.5549555  67.3965606  48.0212496  44.5800044
  68.2191675  47.5472974  44.4578935  67.6403669  48.8002980  45.0798731
  66.0373840  51.0500755  34.8762946  66.7582203  51.4282007  34.3726663
  65.4139145  51.7689631  34.9797924  70.1804963  51.7545904  35.8121278
  70.3968578  52.6370542  35.5110107  69.6999030  51.3632117  35.0826920
  64.9204185  54.7131617  42.3892023  64.7748765  55.0271920  43.2816305
  64.4429388  55.3316517  41.8362922  66.7800568  51.7034165  42.4372913
  66.7662136  50.8075258  42.1005211  67.4972996  51.7104829  43.0711199
  68.6326698  52.1371505  44.4826040  68.3744476  53.0588576  44.4810370
  68.1011739  51.7401940  45.1726504  73.5772887  65.2422292  37.2616125
  73.7509765  64.6768715  36.5089978  74.0701778  66.0423187  37.0795615
  66.1837463  50.5848545  37.7060483  66.3053375  49.6565191  37.9051370
  65.8939506  50.5987231  36.7938798  69.0528654  48.2703456  40.8427203
  69.0750351  48.3342789  39.8879182  69.4696713  47.4307964  41.0367709
  79.4312278  58.0058715  38.8806425  79.8743424  57.2566040  38.4825548
  78.5538788  57.9968851  38.4980157  74.5648059  64.5589057  34.3613024
  75.2598964  65.1795749  34.5800338  74.9071210  63.7084408  34.6365402
  76.4639483  62.0088762  35.8900354  76.9890807  62.3476035  35.1649674
  76.3761835  61.0735777  35.7063489  68.1259531  65.9222836  48.0190231
  68.4346658  65.6771983  48.8912931  68.9235013  66.1269474  47.5309101
  68.1480143  68.0760745  40.2495608  67.7085134  67.5837124  40.9428464
  68.8988260  67.5333713  40.0087683  65.5954016  63.6198754  42.3217909
  64.9734025  62.9569459  42.0220137  66.2658882  63.6459886  41.6391557
  76.1533389  62.6421666  51.1951552  75.3628932  62.6245805  50.6556052
  75.9166743  63.1809959  51.9500589  76.2731264  59.4914132  48.5084281
  76.3229269  59.3264140  49.4499804  76.1645187  58.6241391  48.1182162
  65.1567522  62.1702678  35.7976370  65.3055643  62.8538142  35.1443043
  65.9633966  62.1507768  36.3125826  73.5635026  55.4745060  49.8243588
  74.4644889  55.3351525  49.5327585  73.6383001  55.6399515  50.7641765
  67.8977831  52.8511915  48.6696774  67.0281141  53.1445481  48.3979363
  68.1337312  53.4352360  49.3904038  77.7749461  61.9111074  48.7526302
  77.4834269  62.2741054  49.5889763  77.1621592  61.1978082  48.5739635
  78.9745143  59.4763953  41.2728873  79.8092034  59.9153757  41.4366433
  79.1104272  59.0002607  40.4537118  76.0236649  57.0343688  47.2206360
  76.4990770  57.2271335  46.4125212  75.1002214  57.0902874  46.9749744
  70.6016865  49.0691532  46.1862194  71.1198809  49.8052559  45.8608683
  70.2471998  49.3755525  47.0208953  62.1815803  53.9296213  34.3023600
  61.4885048  54.0040568  33.6463636  61.9367555  53.1656557  34.8245117
  70.8529459  45.4891814  41.7063091  71.1331213  44.8215003  42.3323518
  71.6380066  45.6820910  41.1937755  68.6562928  64.6650808  33.2688117
  68.0836895  65.2840995  32.8158589  69.2295722  65.2150170  33.8028039
  74.7238318  53.9109448  45.4534666  75.6755741  54.0107546  45.4746890
  74.5541768  53.1187717  45.9632750  72.7452697  50.9965032  45.6394067
  72.1502629  51.2770044  44.9440556  72.4602394  51.4858932  46.4110808
  71.8760188  64.9487958  34.3996700  72.8090861  64.8833520  34.6029575
  71.7883401  65.7844225  33.9411232  74.5048204  64.2653829  31.3600647
  74.4261836  63.9313692  32.2536405  75.3257871  64.7575597  31.3592119
  77.2026396  57.1315568  44.5676966  77.1702716  56.1931569  44.7536650
  77.8127019  57.2099605  43.8342791  69.0409726  56.0011621  30.6104170
  69.9868831  55.8717829  30.6792588  68.6623971  55.2626283  31.0873598
  77.3520884  53.9226611  44.6135249  76.8359933  53.1385068  44.4265178
  78.2360833  53.5945328  44.7781768  75.0131611  47.6667627  40.5731062
  74.8156432  47.3582715  41.4574394  75.6231317  48.3929266  40.7028991
  81.1018243  56.3339437  44.3057454  80.3751406  56.1995402  43.6973945
  80.6865529  56.6416266  45.1114172  68.9248419  60.0529367  52.0704827
  69.8451428  60.2307966  52.2644873  68.8898002  59.1085412  51.9184526
  67.2252644  53.9261597  30.5459055  66.3184099  53.6294710  30.6221769
  67.5028625  53.6291415  29.6793341  68.8414709  48.4698487  36.7003296
  68.0315438  48.1245572  37.0758542  69.5299126  48.1606031  37.2890908
  70.7705258  47.5476534  38.3227593  71.3236296  47.9671987  38.9817616
  71.0075344  46.6212282  38.3650549  66.7938357  53.5363608  54.1030357
  66.6935084  54.4857965  54.0342448  66.5759899  53.2081846  53.2306427
  65.9951428  50.7848533  30.6871034  66.8570592  51.1103431  30.9466852
  66.1801772  49.9980029  30.1744100  74.1484065  49.6577059  37.8306257
  73.5682734  50.3161863  37.4484310  73.8819997  48.8354404  37.4193675
  72.5987631  49.0582117  40.0327578  73.0987409  49.1698651  39.2241896
  73.2423239  48.7543170  40.6728386  66.6569627  56.9660746  52.9195418
  66.1736709  57.7661107  53.1259308  66.7430566  56.9768691  51.9662862
  62.5842964  60.8565281  44.9563852  63.5386218  60.8249223  44.8893784
  62.3855488  60.3955905  45.7714078  72.9308943  51.8177149  36.8862605
  72.0434798  52.1026800  36.6682800  73.3462932  51.6570913  36.0389882
  76.2823479  51.8423670  40.6016945  77.0583869  52.3320123  40.8741562
  75.5571613  52.2681725  41.0588814  78.7196037  52.5551290  41.6590885
  79.3140528  52.3147026  40.9484194  78.7922621  51.8358420  42.2864422
  60.9393193  66.3984901  41.9734050  60.8047661  65.6385301  41.4072048
  60.5225255  67.1225800  41.5062839  72.0752156  61.5821824  30.9810625
  72.7788006  61.7871827  31.5968281  71.3514805  62.1498586  31.2459709
  72.9049966  57.3331685  37.1012896  72.8485168  57.7900237  36.2620528
  73.4578309  56.5722370  36.9235738  76.7154772  53.1221417  37.9263015
  76.4591707  52.7218053  38.7571223  76.0907640  53.8365211  37.8013154
  81.0267110  55.8617491  40.4334307  80.4666668  55.9310680  41.2065869
  80.4210614  55.6858475  39.7133803  64.0962319  67.2954218  42.1852493
  63.9794703  68.2399650  42.0831183  63.2754765  66.9927779  42.5738292
  73.9838854  62.0204353  33.0309086  74.8184458  61.5885552  32.8486560
  73.8223197  61.8486367  33.9585980  73.6384746  58.5236467  34.3965425
  73.5833550  58.3580738  33.4553869  73.0130801  59.2312500  34.5527615
  70.9530653  60.8285378  53.7218988  71.8221813  61.0026031  53.3605622
  70.4737404  61.6479795  53.5994717  66.9480871  48.0244576  33.9750743
  66.9359541  48.9686416  34.1319014  67.8404293  47.8414721  33.6810204
  65.1216833  67.9482480  45.4008421  66.0244080  67.9806090  45.7174916
  64.8954203  67.0182930  45.4154757  66.8770435  66.7013466  42.0618500
  65.9266066  66.7015328  41.9482872  67.1802921  65.9546201  41.5454534
  70.7632991  44.6187352  38.2296680  69.9965386  44.0645839  38.3753362
  71.1743696  44.6909221  39.0910832  79.4212835  72.4901433  43.0625787
  79.0831346  72.3742497  42.1746322  80.2902603  72.0892598  43.0426793
  75.2799651  74.3436909  39.0522678  74.7164516  74.2526846  38.2838966
  75.1652046  73.5236813  39.5325170  79.9032618  73.6436284  49.0211992
  79.8921259  73.2489083  48.1492496  80.0653257  72.9102357  49.6145764
  72.8264083  75.8388101  41.8906898  73.6185375  75.4978925  41.4753198
  73.0660733  75.9483076  42.8109052  74.7854837  75.0997014  34.7624277
  75.5585713  74.5526001  34.6237153  75.1380235  75.9641263  34.9738739
  77.5496086  73.8050245  44.5592536  78.1459658  73.5806267  43.8449499
  77.6071057  73.0634990  45.1617984  77.1221114  71.2589680  32.3942727
  77.3746635  70.7371201  31.6326190  76.1845673  71.0955825  32.4969411
  82.1664397  70.2625458  40.2017470  82.9527486  69.8444881  39.8507887
  82.4303101  71.1671550  40.3699119  76.8417403  73.1617786  34.5967102
  76.7253661  72.4862689  35.2648186  76.9519663  72.6750160  33.7799255
  79.1848944  72.6227933  38.3013791  78.8207151  72.0958554  39.0126713
  80.0416060  72.2326402  38.1280277  78.8254431  67.6517833  33.2975140
  78.9928833  68.5198069  33.6645611  78.6351600  67.8145114  32.3736429
  75.0342246  72.5648608  40.9977675  74.1092742  72.4324823  41.2055366
  75.2826659  73.3442828  41.4947617  78.8043652  70.1075490  34.2821807
  78.6843277  70.5532541  35.1207287  78.1096240  70.4560808  33.7235345
  72.3951057  72.2081882  41.8321464  72.5243438  72.4616361  42.7460875
  71.7148508  72.8009590  41.5126119  79.0567774  70.0506997  50.5873305
  78.2801108  70.6100918  50.5776169  79.6958337  70.5363780  51.1088175
  77.3114146  72.8592451  50.1491272  78.0528830  73.3977495  49.8726095
  76.6051132  73.4858739  50.3062824  79.1400556  69.9394198  46.1196990
  79.9861751  70.3633612  46.2631639  79.0799193  69.2827822  46.8135553
  82.2900001  67.5998566  47.7778164  82.0460933  68.3540627  47.2412439
  82.5659932  67.9783914  48.6125411  81.8464693  66.7554999  43.3592002
  80.9849172  67.0536253  43.6508739  81.8727127  66.9725398  42.4273034
  75.5550343  74.8468671  42.7045570  76.1251700  75.2755940  42.0663055
  76.1458455  74.5651256  43.4029756  77.5995148  71.4220342  36.5755372
  78.3019192  71.8741386  37.0429299  77.2675777  70.7804161  37.2035265
  76.0475510  70.0132099  50.9506582  75.4174170  70.6948380  51.1841979
  75.9411598  69.9015181  50.0059720  71.3420482  69.6803895  41.8772506
  70.5519536  69.9361423  41.4012617  71.8331730  70.4952233  41.9824546
  73.2935228  70.0448474  38.8355983  72.4966391  70.1567168  39.3539478
  73.0660820  70.3835126  37.9696873  69.6258185  69.9334385  44.3087497
  69.8766224  70.8181395  44.5745073  70.1617734  69.7538987  43.5362589
  75.3256253  64.3152865  53.3131833  74.9323198  63.7619063  53.9879477
  76.1422393  64.6263443  53.7038350  72.2918310  75.7536723  37.2245403
  72.8042831  76.5479973  37.3750967  72.9441023  75.0563013  37.1579004
  78.2424214  65.7310744  50.9052089  78.9833927  66.3317897  50.8256552
  78.4742136  64.9888382  50.3470132  73.3865552  70.9167111  49.1830319
  73.2719067  70.0152368  49.4837418  72.5310069  71.1630808  48.8315136
  82.1881376  61.7591847  45.1816371  81.8445646  62.6493488  45.1055482
  82.5560339  61.5693504  44.3185956  70.2567227  74.0825377  38.0004973
  71.0942449  74.4922386  37.7838681  70.4345495  73.1424819  37.9705167
  79.7378770  66.5950159  38.7474045  78.8820367  66.2057009  38.5679683
  80.1505722  66.6742119  37.8873830  81.2677917  64.1296502  43.1465604
  80.7642712  64.0926637  42.3333410  81.5608524  65.0389245  43.2062261
  77.5120803  64.2135232  42.1531786  78.3773800  64.0178040  41.7937675
  77.5798312  63.9845583  43.0801143  81.9417962  69.6227550  35.5148587
  81.6368098  69.9373699  36.3658731  82.8948404  69.7008970  35.5575920
  75.1183122  66.4437440  39.5248153  75.6926874  66.2212621  38.7921346
  75.7054104  66.5126134  40.2776754  75.4452709  68.4741901  33.5444038
  74.6090021  68.8116587  33.8653313  75.3057479  68.3390880  32.6071175
  77.4205790  63.3178688  38.2523222  76.7670202  63.0027706  37.6279837
  77.3786264  62.6954429  38.9783045  78.5316994  73.5997984  30.1676514
  77.6244056  73.3687237  30.3667663  79.0288026  72.8035603  30.3550496
  80.6543530  69.8060622  42.5770870  79.7366091  70.0275569  42.4192558
  81.0703674  69.8806932  41.7182577  81.4378578  71.2052038  37.7073550
  82.1850397  71.7173435  37.3980672  81.7070167  70.8836090  38.5677944
  70.2793398  71.4216093  38.6715707  70.0817798  70.8285453  37.9466773
  69.7240062  71.1168303  39.3891645  78.2590122  71.3139199  40.7910300
  78.3138732  70.3613035  40.7152776  77.4481324  71.4698638  41.2751598
  76.1982482  69.9316259  38.5500679  75.3850347  70.2310429  38.9565871
  76.6941476  69.5371948  39.2675161  81.7956693  70.3958083  47.3815573
  82.1506081  70.6229556  48.2410038  82.4428825  70.7276460  46.7592828
  75.6896557  67.5034614  44.1661914  76.3295936  67.3623373  43.4684877
  74.8574087  67.2169128  43.7900516  72.7739624  70.9480126  36.3556659
  71.8437212  70.8864582  36.5726621  72.8697096  70.4256079  35.5593300
  72.6925173  67.4734939  38.9434900  72.9531990  68.3880273  38.8344061
  73.5142345  67.0059382  39.0931513  74.1650098  68.8872696  46.1133725
  74.8373152  68.6790059  45.4646374  73.3379885  68.6894782  45.6738957
  80.0675670  65.5134637  48.1299386  79.4203585  66.2124587  48.0363862
  80.8376686  65.9470781  48.4975634  74.5677596  72.1615299  46.8736162
  74.4297393  71.4295538  47.4747701  75.4782519  72.0724200  46.5920350
  77.1959896  71.8735259  46.3619842  77.9059515  71.2328451  46.3206460
  77.1529204  72.1248154  47.2846023  75.9088830  68.8600477  48.1815481
  75.3726187  68.4091215  48.8337078  75.3205539  68.9946385  47.4385946
  75.3191089  68.3189128  30.7441945  74.4420555  68.1977929  30.3804192
  75.7948842  67.5275206  30.4920834  66.8393229  73.1066288  40.8383452
  67.5264269  72.7928018  40.2504467  66.6841358  74.0107652  40.5650703
  71.6427951  67.9956484  45.2668476  71.5586140  67.3882154  44.5318886
  70.8210658  68.4865503  45.2677972  81.8151665  66.4810048  40.6338671
  82.3120365  65.7280010  40.3139741  81.0438647  66.5174365  40.0681880
  78.3986634  68.6227431  40.3610355  78.0284422  68.0698471  41.0491261
  78.8945727  68.0185564  39.8085355  80.0764692  72.3789344  51.7683961
  79.4005329  72.2783474  52.4386336  80.8992325  72.2228558  52.2319958
  71.8243551  78.6161281  44.3896476  72.4096987  77.8704969  44.5224380
  71.6268389  78.9265238  45.2733140  66.4161205  71.1866881  43.1100919
  66.4545305  70.6530472  43.9038037  65.9101498  70.6602087  42.4911896
  73.7951968  66.0331422  46.6063461  73.8593294  66.8946253  46.1940859
  73.7319088  65.4205423  45.8735820  73.2704240  68.1054554  50.2536496
  73.8976279  67.7231631  50.8674020  72.4132159  67.8868756  50.6192188
  70.0469783  69.9130983  36.1854851  70.3423224  69.0041662  36.1321904
  69.1457819  69.8918723  35.8635853  73.5764030  67.9886980  42.1682399
  72.8550616  68.6022948  42.0289872  74.3657286  68.5244745  42.0899045
  76.3790344  65.3241406  48.4423051  76.9024745  65.5703703  49.2049360
  76.1602677  66.1561441  48.0226188  71.7757625  67.5945081  36.3094176
  71.4470331  66.7142460  36.1269282  72.1296995  67.5392750  37.1970565
  74.8899448  67.8818051  36.6769653  75.2295520  68.4103972  35.9548262
  75.3371568  68.2198457  37.4528220  77.5842889  66.2655101  46.1272721
  77.2439709  65.4662915  46.5293401  76.8781895  66.5656812  45.5549555
  78.2359360  63.3504414  44.5800044  79.0585430  62.8764892  44.4578935
  78.4797424  64.1294898  45.0798731  76.8767595  66.3792672  34.8762946
  77.5975957  66.7573925  34.3726663  76.2532899  67.0981549  34.9797924
  81.0198718  67.0837821  35.8121278  81.2362332  67.9662459  35.5110107
  80.5392785  66.6924035  35.0826920  75.7597939  70.0423535  42.3892023
  75.6142520  70.3563838  43.2816305  75.2823143  70.6608435  41.8362922
  77.6194322  67.0326083  42.4372913  77.6055891  66.1367176  42.1005211
  78.3366750  67.0396746  43.0711199  79.4720453  67.4663423  44.4826040
  79.2138231  68.3880493  44.4810370  78.9405493  67.0693857  45.1726504
  70.2343601  72.5828879  45.3279684  69.6897069  73.3588687  45.4599959
  71.1122951  72.9299683  45.1698806  77.0231218  65.9140463  37.7060483
  77.1447129  64.9857109  37.9051370  76.7333260  65.9279149  36.7938798
  79.8922408  63.5995373  40.8427203  79.9144105  63.6634706  39.8879182
  80.3090467  62.7599882  41.0367709  71.0209623  71.7098775  48.2209841
  70.2791359  71.8581411  48.8074472  70.7002367  71.9707041  47.3576591
  69.6674842  77.5150530  41.2109169  68.8306750  77.0872705  41.0293171
  69.6398487  77.7082974  42.1479961  76.5072297  67.4272460  51.9150415
  76.5560453  68.3034583  51.5328185  77.0494812  66.8849853  51.3422059
  78.7371586  68.1803833  48.6696774  77.8674895  68.4737399  48.3979363
  78.9731066  68.7644278  49.3904038  73.7513910  73.5259773  36.8037439
  73.5059952  72.6222103  37.0017649  73.9209824  73.5276924  35.8616917
  81.4410620  64.3983450  46.1862194  81.9592564  65.1344476  45.8608683
  81.0865753  64.7047443  47.0208953  73.0209557  69.2588131  34.3023600
  72.3278802  69.3332486  33.6463636  72.7761309  68.4948474  34.8245117
  81.6923214  60.8183732  41.7063091  81.9724968  60.1506921  42.3323518
  82.4773821  61.0112828  41.1937755  79.8803481  71.3303539  30.6104170
  80.8262586  71.2009747  30.6792588  79.5017726  70.5918201  31.0873598
  78.0646398  69.2553515  30.5459055  77.1577853  68.9586628  30.6221769
  78.3422379  68.9583333  29.6793341  68.9824338  70.5759878  40.9958101
  68.6627123  69.7225187  40.7032475  68.4357767  70.7908457  41.7516069
  72.7604246  73.2922319  44.7127608  72.9790256  74.2239427  44.7315642
  73.1730020  72.9330294  45.4982412  79.6808464  63.7990405  36.7003296
  78.8709192  63.4537490  37.0758542  80.3692881  63.4897949  37.2890908
  81.6099012  62.8768452  38.3227593  82.1630051  63.2963905  38.9817616
  81.8469098  61.9504200  38.3650549  77.6332111  68.8655525  54.1030357
  77.5328838  69.8149882  54.0342448  77.4153653  68.5373764  53.2306427
  76.8345183  66.1140450  30.6871034  77.6964347  66.4395349  30.9466852
  77.0195527  65.3271946  30.1744100  68.8512598  74.1962790  42.9651223
  68.1576070  73.7816743  42.4521177  69.5985589  74.2383326  42.3684642
  77.4963381  72.2952664  52.9195418  77.0130463  73.0953024  53.1259308
  77.5824320  72.3060609  51.9662862  70.7649341  74.1281044  40.8417238
  70.7420029  74.2268731  39.8899121  71.0749977  74.9746195  41.1634404
  73.4236719  76.1857199  44.9563852  74.3779972  76.1541141  44.8893784
  73.2249242  75.7247823  45.7714078  74.0136101  74.7558315  47.5234650
  74.8328990  75.2502394  47.5469487  74.2872909  73.8390283  47.4952217
  69.2671015  69.0896449  48.2226847  69.9129879  68.5795403  48.7114072
  69.0588166  69.8265130  48.7970272  77.7874626  63.3536493  33.9750743
  77.7753296  64.2978333  34.1319014  78.6798048  63.1706639  33.6810204
  81.6026745  59.9479270  38.2296680  80.8359141  59.3937757  38.3753362
  82.0137450  60.0201139  39.0910832  73.6068506  66.2364066  52.3201861
  74.4699968  65.8800871  52.5305186  73.0333917  65.8977961  53.0077266
  33.2075527  -1.4326416  24.6557244  33.1299557  -0.4818591  24.7345725
  32.6037171  -1.7780544  25.3132171  31.8669494  -3.9224895  32.0323805
  32.4176919  -4.0507832  31.2600799  31.0280970  -3.6230006  31.6818698
  38.0810057  -2.0010057  19.8118507  37.4071755  -1.6978361  20.4203465
  38.4675879  -1.1980977  19.4623964  36.2801272  -1.8330385  22.0265586
  36.4553027  -2.3042342  22.8411209  35.5934060  -1.2064619  22.2546847
  30.8462357   1.3158978  28.8005446  31.0858955   1.9477502  29.4784465
  30.0031553   0.9647018  29.0870806  35.3590219  -2.8761900  31.2046950
  35.2860390  -2.0706928  31.7166255  34.9167612  -2.6769934  30.3794972
  35.1479998  -3.6390130  24.7149772  34.3647520  -3.0968450  24.8087997
  35.8472744  -3.1216150  25.1144013  37.8188902  -2.9775066  33.3605109
  38.5316875  -2.3427601  33.2881011  37.3278931  -2.8811200  32.5445111
  28.4668534  -5.6944267  31.1141783  29.0521971  -6.4400579  31.2469687
  28.2693372  -5.3840310  31.9978447  31.3207189  -2.6593020  26.1304225
  30.6517564  -2.1746892  25.6468265  31.1820059  -2.4123799  27.0447604
  35.4612458  -0.6249276  32.7286883  36.0130766  -0.4617655  33.4935969
  35.8018651  -0.0344838  32.0566908  35.6078269  -3.0590795  34.7435538
  35.9165396  -3.3041648  35.6158237  36.4053751  -2.8544156  34.2554408
  35.6298881  -0.9052885  26.9740914  35.1903871  -1.3976506  27.6673771
  36.3806998  -1.4479917  26.7332990  28.1091220  -4.7141344  26.9765542
  28.9349240  -5.0137572  26.5964186  27.7585272  -5.4833722  27.4255331
  28.4211931  -2.5828730  28.6979357  28.2866399  -3.3428329  28.1317355
  28.0043993  -1.8587830  28.2308146  31.5781057  -1.6859413  28.9097799
  31.4613441  -0.7413980  28.8076490  30.7573503  -1.9885851  29.2983599
  32.6035571  -1.0331151  32.1253728  33.5062818  -1.0007541  32.4420223
  32.3772941  -1.9630700  32.1400064  34.3589173  -2.2800164  28.7863807
  33.4084804  -2.2798303  28.6728179  34.6621659  -3.0267430  28.2699841
  50.0941866   3.5560374  29.8509569  50.7320276   3.4367121  29.1472909
  49.9762709   4.5041218  29.9097521  46.9031573   3.5087802  29.7871094
  46.5650084   3.3928867  28.8991628  47.7721341   3.1078967  29.7672100
  42.7618388   5.3623279  25.7767985  42.1983254   5.2713215  25.0084272
  42.6470783   4.5423183  26.2570477  47.3851356   4.6622654  35.7457299
  47.3739997   4.2675452  34.8737803  47.5471995   3.9288726  36.3391071
  40.3082820   6.8574470  28.6152205  41.1004112   6.5165295  28.1998504
  40.5479471   6.9669445  29.5354358  48.3417947   9.0294246  21.0882449
  47.6905927   9.6148327  20.7016463  49.1362310   9.5600441  21.1477487
  42.2673574   6.1183383  21.4869584  43.0404450   5.5712370  21.3482460
  42.6198973   6.9827633  21.6984045  44.1058617   7.4459766  34.6936483
  43.8148483   8.3505396  34.5783149  44.7415601   7.4876293  35.4080553
  45.0314824   4.8236614  31.2837843  45.6278396   4.5992637  30.5694806
  45.0889795   4.0821360  31.8863291  44.6039852   2.2776050  19.1188034
  44.8565373   1.7557571  18.3571497  43.6664411   2.1142195  19.2214717
  49.8193212   6.7184678  21.6251434  49.1839045   6.7919305  22.3372338
  49.4890619   7.3078277  20.9470513  44.3236141   4.1804155  21.3212409
  44.2072399   3.5049059  21.9893493  44.4338401   3.6936529  20.5044562
  46.6667682   3.6414303  25.0259098  46.3025889   3.1144924  25.7372019
  47.5234798   3.2512772  24.8525583  49.0648502   7.1321181  31.6886277
  48.7649225   8.0346220  31.5802084  48.7199561   6.8653364  32.5407430
  42.5160983   3.5834978  27.7222981  41.5911480   3.4511192  27.9300673
  42.7645397   4.3629197  28.2192924  46.2862390   1.1261860  21.0067113
  46.1662015   1.5718911  21.8452594  45.5914978   1.4747177  20.4480651
  39.8769794   3.2268252  28.5566770  40.0062176   3.4802730  29.4706182
  39.1967246   3.8195960  28.2371425  44.0469282  13.8965502  24.6557244
  43.9693311  14.8473327  24.7345725  43.4430925  13.5511374  25.3132171
  46.5386512   1.0693367  37.3118611  45.7619846   1.6287287  37.3021476
  47.1777075   1.5550150  37.8333481  44.7932884   3.8778820  36.8736578
  45.5347568   4.4163864  36.5971402  44.0869869   4.5045109  37.0308130
  50.2688223   6.0207961  35.4708740  50.6771580   5.5790371  34.7263372
  49.5465485   5.4460588  35.7242933  46.6219294   0.9580568  32.8442297
  47.4680489   1.3819981  32.9876946  46.5617931   0.3014192  33.5380860
  50.5917038   6.5809151  29.2261029  49.9625901   6.7454866  28.5237097
  50.2042700   6.9950761  29.9971993  54.4706270   7.5163589  26.5805393
  53.7857308   7.8962491  26.0302426  54.5550119   8.1258916  27.3137340
  51.7257202   5.1623548  33.1800736  51.9374097   5.8055308  32.5035117
  51.6786950   4.3285865  32.7122666  46.1445000   6.3183559  26.4911114
  46.6083346   6.5971262  25.7015736  45.8801798   5.4167004  26.3084205
  43.0369081   5.8655041  29.4290877  43.6070438   6.2942309  28.7908362
  43.6277193   5.5837626  30.1275063  45.0813886   2.4406712  23.3000679
  45.7837929   2.8927756  23.7674605  44.7494515   1.7990531  23.9280572
  43.5294248   1.0318468  37.6751888  42.8992908   1.7134749  37.9087285
  43.4230335   0.9201550  36.7305027  38.8239220   0.6990264  28.6017813
  38.0338274   0.9547793  28.1257923  39.3150467   1.5138602  28.7069853
  52.8403030   8.0395504  31.3523093  53.6620473   7.6375691  31.0705775
  52.8365432   7.9363738  32.3039209  40.7753965   1.0634844  25.5601289
  39.9785129   1.1753538  26.0784785  40.5479558   1.4021496  24.6942180
  46.6059633   7.5879547  33.5083804  46.6704066   8.0499954  34.3441976
  45.8970557   6.9576912  33.6366114  37.1076923   0.9520755  31.0332803
  37.3584961   1.8367765  31.2990379  37.6436471   0.7725356  30.2607895
  46.3207651   9.2547654  23.3762784  46.1853325  10.0999190  23.8047632
  46.8617463   9.4566932  22.6128718  39.7737048   6.7723092  23.9490709
  40.2861569   7.5666343  24.0996274  40.4259761   6.0749383  23.8824311
  41.5831933   9.8888849  26.0313462  41.7598561  10.8106813  25.8434446
  42.3788766   9.5747268  26.4607842  40.8684289   1.9353481  35.9075626
  40.7537804   1.0338738  36.2082725  40.0128807   2.1817177  35.5560442
  47.9476127   9.8771221  37.5063126  47.5039981   9.0907600  37.1884031
  48.6093341  10.0650371  36.8407017  42.7063248  11.4067023  32.0323805
  43.2570673  11.2784086  31.2600799  41.8674724  11.7061912  31.6818698
  50.0457365  10.1574021  35.5344528  50.0275840  10.9782902  35.0424797
  50.9677285  10.0328096  35.7594669  46.5030419   7.6718150  36.3768036
  47.0358756   6.9106439  36.1467344  45.9744500   7.3791802  37.1192190
  37.7385965   5.1011747  24.7250280  38.5761187   5.5108755  24.5083988
  37.9164233   4.1611189  24.6950474  49.6350397   2.7686827  20.4134113
  49.1197020   3.5391432  20.6522500  49.3627705   2.0951964  21.0367174
  54.6084671   5.5219182  22.3487286  53.8314114   5.1830342  21.9042448
  55.2876152   5.5271805  21.6742251  47.8683132   6.8004143  23.8886848
  47.3404494   6.0656902  23.5760085  47.3670635   7.5778819  23.6426816
  52.8475978   4.9953163  29.0053894  52.1899652   5.6852425  29.0934023
  53.6516377   5.3849595  29.3487881  51.6581437   3.3497536  27.0557836
  52.1713319   3.9827528  27.5579546  52.3082661   2.7498732  26.6901196
  42.9271447  -0.5071730  20.2689345  42.0908759  -0.1697043  20.5898619
  42.7876216  -0.6422750  19.3316482  46.0135732   4.6184353  16.8921821
  45.1062794   4.3873607  17.0912970  46.5106764   3.8221972  17.0795803
  48.9203811  13.3281860  19.8118507  48.2465510  13.6313557  20.4203465
  49.3069633  14.1310941  19.4623964  48.1362268   0.8246992  29.3016177
  47.2184829   1.0461939  29.1437865  48.5522411   0.8993302  28.4427884
  48.9197315   2.2238407  24.4318857  49.6669134   2.7359804  24.1225979
  49.1888905   1.9022460  25.2923250  47.1923966   4.7196948  21.4145811
  46.2835185   4.4355981  21.5118281  47.2219049   5.1396027  20.5549118
  52.4243233   8.3303537  25.1836979  51.9705560   7.4894447  25.2402169
  51.7937200   8.9664936  25.5211759  50.8676172  10.1680034  26.1186797
  51.1599147  10.7285091  25.3999162  51.3774793  10.4608595  26.8739956
  37.7612136   2.4402462  25.3961013  37.5636536   1.8471823  24.6712080
  37.2058800   2.1354672  26.1136952  45.7408860   2.3325569  27.5155606
  45.7957469   1.3799405  27.4398083  44.9300062   2.4885008  27.9996905
  46.8900053   6.2605692  18.7533890  46.4519483   5.5441551  18.2939527
  47.6310494   6.4881806  18.1918981  43.6801220   0.9502628  25.2745985
  42.8669085   1.2496799  25.6811177  44.1760214   0.5558317  25.9920468
  45.8309797  10.9460385  27.2080250  45.7885976  11.1721232  26.2788782
  46.7472496  10.7123760  27.3566051  49.2775431   1.4144453  34.1060879
  49.6324819   1.6415926  34.9655345  49.9247562   1.7462830  33.4838134
  55.0073168   4.5362889  24.8110208  54.8691067   4.7264485  23.8831397
  54.6509387   5.2982272  25.2678259  55.0342548   6.6039416  29.8221480
  55.4679054   6.5114705  30.6704534  55.7474128   6.5796916  29.1841496
  43.9475598   7.8223414  27.0042213  44.7416197   7.3273734  26.8024788
  43.2367291   7.2941277  26.6409918  48.7670443  10.2041510  31.3554580
  48.8207465  10.7732446  32.1232296  47.8985224  10.3743395  30.9908617
  40.2558362   1.9666496  23.0801965  39.3255950   1.9050952  23.2971928
  40.3515834   1.4442449  22.2838607  40.1743911  -1.5078691  25.6680207
  40.4350728  -0.5933358  25.5589368  40.9961083  -1.9754249  25.8176820
  41.6468836  -0.0940934  32.8379032  42.3191890  -0.3023572  32.1891680
  40.8198623  -0.2918848  32.3984264  55.8958097   6.6463116  32.3554365
  56.0893987   7.5508927  32.6013640  55.7958716   6.1870535  33.1892950
  50.9573206   6.7969859  37.9295246  50.8058712   6.5680411  37.0125329
  50.9477886   7.7540461  37.9426591  47.7258542   4.3701772  32.9141512
  48.6550602   4.5212931  32.7410479  47.3049572   4.4585793  32.0590159
  46.5246874   8.3952436  30.6840050  46.3857960   8.0271221  31.5565988
  45.7361470   8.9100076  30.5124008  47.1195026  13.4961533  22.0265586
  47.2946782  13.0249576  22.8411209  46.4327814  14.1227299  22.2546847
  48.0752089   7.7734039  28.0728888  47.7401922   7.7334809  28.9686537
  47.5756035   7.1078755  27.5999298  42.0496333   3.1801669  33.5981469
  41.9116131   2.4481908  34.1993008  42.9601257   3.0910569  33.3165656
  51.0111281   5.1190073  18.3465947  50.3940452   4.3936901  18.2499000
  50.5427769   5.8799434  18.0033021  44.6778634   2.8921628  33.0865148
  45.3878253   2.2514821  33.0451767  44.6347942   3.1434523  34.0091329
  52.6665413   9.8288982  36.0071728  52.6077959   9.1448202  35.3402311
  53.0684931  10.5707972  35.5552354  43.3907568  -0.1213154  34.9060788
  42.8544925  -0.5722415  35.5582384  42.8024276   0.0132755  34.1631252
  41.6856111  16.6450896  28.8005446  41.9252710  17.2769420  29.4784465
  40.8425308  16.2938936  29.0870806  52.6682820   7.7928566  34.2385707
  51.7809599   7.4554487  34.3612106  53.2381371   7.0611597  34.4754473
  34.3211967   4.1252657  27.5628759  35.0083007   3.8114387  26.9749774
  34.1660096   5.0294022  27.2896010  39.1246689  -0.9857146  31.9913782
  39.0404878  -1.5931477  31.2564192  38.3029396  -0.4948128  31.9923279
  46.1983973  12.4530018  31.2046950  46.1254145  13.2584989  31.7166255
  45.7561366  12.6521984  30.3794972  45.9873753  11.6901788  24.7149772
  45.2041275  12.2323468  24.8087997  46.6866498  12.2075768  25.1144013
  48.6582657  12.3516852  33.3605109  49.3710629  12.9864317  33.2881011
  48.1672686  12.4480718  32.5445111  50.3800184   6.2568105  24.9322401
  49.4456463   6.3769567  24.7627105  50.5576852   5.3540571  24.6682411
  43.7094570  10.1011295  34.1810680  44.4104030  10.7347778  34.3340074
  43.2389685  10.4426027  33.4206319  51.8348966   8.4429245  22.4658587
  52.1108810   8.3285840  23.3752461  50.9653465   8.0446730  22.4270760
  51.5095856   2.6555903  32.0063230  50.8567307   2.9031810  31.3515683
  51.8876236   1.8420041  31.6725708  48.4703030  12.6915596  26.1091401
  48.6525425  11.8737252  26.5719153  49.2936016  12.9083288  25.6716291
  48.8045196  11.6183781  23.3706449  49.3332962  11.1076236  22.7576611
  49.0673415  11.3026311  24.2351982  47.5583429   3.3975714  38.4929267
  46.8824066   3.2969843  39.1631643  48.3811063   3.2414928  38.9565265
  39.3062288   9.6347650  31.1141783  39.8915725   8.8891338  31.2469687
  39.1087127   9.9451607  31.9978447  42.1600944  12.6698898  26.1304225
  41.4911319  13.1545026  25.6468265  42.0213813  12.9168118  27.0447604
  33.8979943   2.2053251  29.8346226  33.9364043   1.6716841  30.6283344
  33.3920236   1.6788456  29.2157203  46.3006212  14.7042641  32.7286883
  46.8524520  14.8674263  33.4935969  46.6412406  15.2947079  32.0566908
  40.7522978  -0.8759076  36.9781802  41.3795017  -1.2581999  37.5919327
  39.8950897  -1.0944874  37.3437495  51.1517087   9.5303899  38.5835538
  51.6956991  10.1433857  38.0890493  50.5703931  10.0883477  39.1002551
  37.5288521   0.9317353  22.9100157  37.8241962   0.0228031  22.8567211
  36.6276557   0.9105092  22.5881160  49.4374600  12.6524617  29.7150566
  49.3125739  11.8514357  29.2061511  50.0953691  13.1470810  29.2264536
  41.0582768  -0.9926651  28.8927706  40.3369354  -0.3790683  28.7535179
  41.8476024  -0.4568886  28.8144352  51.5009508  10.4533637  31.3430116
  50.5539843  10.3338988  31.2708442  51.8492281   9.5656135  31.4256377
  39.2576362  -1.3868549  23.0339482  38.9289069  -2.2671171  22.8514588
  39.6115733  -1.4420881  23.9215872  48.5055941  10.2486353  27.5434468
  48.3580904   9.3203061  27.7242038  49.3309435  10.2706444  27.0591543
  42.3718186  -1.0995580  23.4014960  42.7114258  -0.5709658  22.6793568
  42.8190306  -0.7615174  24.1773527  52.1090063  11.0714912  28.6299341
  53.0336611  10.8657773  28.4923792  51.9405366  10.8231313  29.5388682
  43.2416677   1.0609904  29.1137330  43.0961258   1.3750207  30.0061611
  42.7641881   1.6794804  28.5608228  51.8985379  11.5900579  23.9861432
  52.0722257  11.0247002  23.2335285  52.3914271  12.3901474  23.8040922
  37.7162339   3.6015248  32.0524991  37.1715807   4.3775056  32.1845265
  38.5941689   3.9486053  31.8944112  52.8860552  10.9067344  21.0858330
  53.5811456  11.5274036  21.3045645  53.2283702  10.0562695  21.3610708
  38.5028361   2.7285145  34.9455148  37.7610097   2.8767780  35.5319778
  38.1821105   2.9893410  34.0821897  54.7851975   8.3567049  22.6145661
  55.3103299   8.6954322  21.8894981  54.6974327   7.4214065  22.4308796
  46.4472024  12.2701123  34.7435538  46.7559150  12.0250270  35.6158237
  47.2447506  12.4747761  34.2554408  46.4692636  14.4239033  26.9740914
  46.0297626  13.9315411  27.6673771  47.2200753  13.8812000  26.7332990
  38.9484975  10.6150573  26.9765542  39.7742995  10.3154345  26.5964186
  38.5979027   9.8458196  27.4255331  43.9166508   9.9677042  29.0463216
  43.2946517   9.3047747  28.7465444  44.5871375   9.9938174  28.3636864
  37.1493580   8.5336900  27.9354476  36.3125488   8.1059074  27.7538477
  37.1217225   8.7269343  28.8725267  54.4745881   8.9899953  37.9196859
  53.6841425   8.9724092  37.3801358  54.2379236   9.5288247  38.6745896
  54.5943756   5.8392419  35.2329588  54.6441761   5.6742427  36.1745110
  54.4857679   4.9719678  34.8427468  43.4780015   8.5180965  22.5221677
  43.6268135   9.2016429  21.8688349  44.2846458   8.4986055  23.0371132
  56.0961953   8.2589361  35.4771609  55.8046761   8.6219341  36.3135070
  55.4834084   7.5456369  35.2984941  57.2957635   5.8242241  27.9974179
  58.1304527   6.2632045  28.1611740  57.4316764   5.3480894  27.1782425
  54.3449141   3.3821975  33.9451667  54.8203263   3.5749622  33.1370519
  53.4214706   3.4381161  33.6995051  41.2332648   4.5446143  23.5282745
  40.9878690   3.6408473  23.7262956  41.4028562   4.5463293  22.5862223
  40.5028295   0.2774500  21.0268907  39.8097540   0.3518855  20.3708943
  40.2580047  -0.4865156  21.5490424  46.9775420  11.0129095  19.9933424
  46.4049387  11.6319283  19.5403896  47.5508214  11.5628457  20.5273346
  50.1972680  11.2966246  21.1242006  51.1303353  11.2311807  21.3274882
  50.1095893  12.1322512  20.6656539  52.8260697  10.6132116  18.0845954
  52.7474328  10.2791980  18.9781712  53.6470363  11.1053884  18.0837426
  47.3622219   2.3489908  17.3349476  48.3081323   2.2196116  17.4037894
  46.9836464   1.6104570  17.8118905  47.2460911   6.4007654  38.7950133
  48.1663921   6.5786253  38.9890180  47.2110494   5.4563700  38.6429833
  45.5465136   0.2739885  17.2704362  44.6396591  -0.0227003  17.3467075
  45.8241117  -0.0230297  16.4038648  36.4643076   1.5946248  27.7203408
  36.1445861   0.7411556  27.4277782  35.9176504   1.8094826  28.4761375
  40.2422984   4.3108689  31.4372915  40.4608994   5.2425797  31.4560948
  40.6548758   3.9516663  32.2227718  45.1150849  -0.1158105  40.8275664
  45.0147576   0.8336252  40.7587755  44.8972391  -0.4439866  39.9551734
  36.3331336   5.2149160  29.6896530  35.6394808   4.8003112  29.1766484
  37.0804327   5.2569696  29.0929949  44.9782119   3.3139034  39.6440725
  44.4949201   4.1139394  39.8504614  45.0643058   3.3246979  38.6908169
  38.2468079   5.1467413  27.5662545  38.2238767   5.2455101  26.6144428
  38.5568715   5.9932564  27.8879711  40.9055457   7.2043568  31.6809159
  41.8598710   7.1727511  31.6139091  40.7067980   6.7434192  32.4959385
  41.4954839   5.7744684  34.2479957  42.3147728   6.2688763  34.2714794
  41.7691646   4.8576653  34.2197524  39.2605685  12.7463188  28.6979357
  39.1260153  11.9863589  28.1317355  38.8437748  13.4704088  28.2308146
  50.3964648   7.9300111  17.7055932  51.1000499   8.1350114  18.3213588
  49.6727297   8.4976873  17.9705016  51.2262459   3.6809973  23.8258202
  51.1697660   4.1378524  22.9865835  51.7790801   2.9200657  23.6481045
  42.4174811  13.6432505  28.9097799  42.3007195  14.5877937  28.8076490
  41.5967258  13.3406066  29.2983599  52.3051346   8.3682641  19.7554392
  53.1396950   7.9363839  19.5731867  52.1435689   8.1964654  20.6831287
  51.9597238   4.8714754  21.1210731  51.9046042   4.7059025  20.1799176
  51.3343293   5.5790787  21.2772921  36.7489753   0.1082818  34.9472154
  37.3948617  -0.4018228  35.4359379  36.5406904   0.8451500  35.5215579
  49.2743145   7.1763666  40.4464294  50.1434305   7.3504318  40.0850929
  48.7949897   7.9958083  40.3240024  43.4429325  14.2960767  32.1253728
  44.3456572  14.3284377  32.4420223  43.2166696  13.3661218  32.1400064
  45.1982927  13.0491753  28.7863807  44.2478558  13.0493615  28.6728179
  45.5015414  12.3024488  28.2699841  60.9335621  18.8852292  29.8509569
  61.5714031  18.7659039  29.1472909  60.8156464  19.8333136  29.9097521
  57.7425327  18.8379720  29.7871094  57.4043839  18.7220784  28.8991628
  58.6115095  18.4370885  29.7672100  53.6012143  20.6915196  25.7767985
  53.0377008  20.6005133  25.0084272  53.4864538  19.8715101  26.2570477
  51.1476575  22.1866388  28.6152205  51.9397867  21.8457212  28.1998504
  51.3873225  22.2961363  29.5354358  59.1811702  24.3586164  21.0882449
  58.5299681  24.9440244  20.7016463  59.9756064  24.8892359  21.1477487
  53.1067329  21.4475301  21.4869584  53.8798205  20.9004288  21.3482460
  53.4592728  22.3119550  21.6984045  54.9452371  22.7751683  34.6936483
  54.6542237  23.6797314  34.5783149  55.5809356  22.8168211  35.4080553
  55.8708578  20.1528532  31.2837843  56.4672150  19.9284554  30.5694806
  55.9283550  19.4113277  31.8863291  55.4433607  17.6067967  19.1188034
  55.6959127  17.0849488  18.3571497  54.5058166  17.4434113  19.2214717
  60.4876889  16.6103746  26.9262777  61.2739979  16.1923169  26.5753194
  60.7515594  17.5149838  27.0944425  60.6586967  22.0476596  21.6251434
  60.0232800  22.1211222  22.3372338  60.3284373  22.6370195  20.9470513
  65.8885317  16.5478979  27.8295755  66.6210489  15.9778196  28.0633585
  65.1324672  16.1600579  28.2702261  55.1629895  19.5096073  21.3212409
  55.0466153  18.8340977  21.9893493  55.2732155  19.0228447  20.5044562
  57.5061436  18.9706220  25.0259098  57.1419644  18.4436841  25.7372019
  58.3628552  18.5804689  24.8525583  63.4110737  10.2600553  32.2890364
  63.0794062  11.1295964  32.0651579  62.8156350   9.9436837  32.9684394
  57.1466923  13.9996120  20.0220446  57.3141326  14.8676356  20.3890917
  56.9564092  14.1623402  19.0981736  59.9042256  22.4613099  31.6886277
  59.6042980  23.3638138  31.5802084  59.5593316  22.1945282  32.5407430
  53.3554738  18.9126896  27.7222981  52.4305234  18.7803110  27.9300673
  53.6039151  19.6921115  28.2192924  63.3039400  14.9795639  29.3683714
  62.3956278  14.9111047  29.0742475  63.2526996  15.4567584  30.1965540
  57.1256144  16.4553777  21.0067113  57.0055769  16.9010828  21.8452594
  56.4308733  16.8039095  20.4480651  50.7163549  18.5560169  28.5566770
  50.8455930  18.8094648  29.4706182  50.0361000  19.1487877  28.2371425
  54.8863036  29.2257419  24.6557244  54.8087066  30.1765244  24.7345725
  54.2824680  28.8803292  25.3132171  57.3780266  16.3985285  37.3118611
  56.6013600  16.9579205  37.3021476  58.0170829  16.8842068  37.8333481
  65.1701047  13.1812077  31.1461588  64.5275427  13.4744611  30.5001383
  64.6655975  13.0664998  31.9514785  62.8241210  16.9275251  21.8347447
  63.7359066  17.1602637  21.6595145  62.3150857  17.5112295  21.2722526
  61.1081978  21.3499878  35.4708740  61.5165334  20.9082289  34.7263372
  60.3859239  20.7752506  35.7242933  57.4613048  16.2872485  32.8442297
  58.3074243  16.7111899  32.9876946  57.4011686  15.6306110  33.5380860
  61.4310793  21.9101069  29.2261029  60.8019655  22.0746783  28.5237097
  61.0436455  22.3242679  29.9971993  65.3100025  22.8455507  26.5805393
  64.6251063  23.2254408  26.0302426  65.3943874  23.4550834  27.3137340
  60.6112493  13.9476854  34.5023470  60.3673425  14.7018914  33.9657746
  60.8872424  14.3262201  35.3370718  62.5650956  20.4915466  33.1800736
  62.7767851  21.1347226  32.5035117  62.5180704  19.6577782  32.7122666
  60.1677185  13.1033287  30.0837308  59.3061664  13.4014540  30.3754046
  60.1939620  13.3203685  29.1518341  56.9838754  21.6475477  26.4911114
  57.4477100  21.9263180  25.7015736  56.7195553  20.7458922  26.3084205
  53.8762836  21.1946959  29.4290877  54.4464193  21.6234227  28.7908362
  54.4670947  20.9129543  30.1275063  55.9207641  17.7698630  23.3000679
  56.6231684  18.2219673  23.7674605  55.5888269  17.1282448  23.9280572
  54.3688002  16.3610386  37.6751888  53.7386663  17.0426667  37.9087285
  54.2624090  16.2493468  36.7305027  49.6632975  16.0282182  28.6017813
  48.8732028  16.2839711  28.1257923  50.1544222  16.8430520  28.7069853
  63.6796784  23.3687421  31.3523093  64.5014228  22.9667609  31.0705775
  63.6759187  23.2655656  32.3039209  51.6147720  16.3926761  25.5601289
  50.8178883  16.5045456  26.0784785  51.3873312  16.7313414  24.6942180
  57.4453388  22.9171465  33.5083804  57.5097820  23.3791872  34.3441976
  56.7364311  22.2868830  33.6366114  47.9470677  16.2812673  31.0332803
  48.1978716  17.1659683  31.2990379  48.4830226  16.1017274  30.2607895
  71.7702777  19.7126170  27.7008065  71.0166486  19.1433568  27.5452069
  71.9050318  19.6788834  28.6478700  57.1601405  24.5839572  23.3762784
  57.0247080  25.4291108  23.8047632  57.7011218  24.7858850  22.6128718
  53.6468745  10.6631152  40.0377139  53.2535690  10.1097351  40.7124784
  54.4634885  10.9741730  40.4283657  50.6130803  22.1015010  23.9490709
  51.1255323  22.8958260  24.0996274  51.2653515  21.4041301  23.8824311
  52.4225687  25.2180766  26.0313462  52.5992316  26.1398731  25.8434446
  53.2182521  24.9039186  26.4607842  56.5636706  12.0789031  37.6297396
  57.3046419  12.6796184  37.5501858  56.7954629  11.3366669  37.0715439
  51.7078044  17.2645398  35.9075626  51.5931559  16.3630656  36.2082725
  50.8522562  17.5109095  35.5560442  53.5457003  26.7358940  32.0323805
  54.0964428  26.6076004  31.2600799  52.7068479  27.0353829  31.6818698
  60.5093869   8.1070134  31.9061678  60.1658138   8.9971776  31.8300788
  60.8772831   7.9171792  31.0431263  48.5779719  20.4303664  24.7250280
  49.4154941  20.8400673  24.5083988  48.7557987  19.4903107  24.6950474
  60.4744151  18.0978745  20.4134113  59.9590775  18.8683350  20.6522500
  60.2021460  17.4243881  21.0367174  58.0591262  12.9428446  25.4719351
  57.2032859  12.5535296  25.2924990  58.4718214  13.0220407  24.6119137
  59.5890409  10.4774789  29.8710911  59.0855205  10.4404924  29.0578716
  59.8821016  11.3867532  29.9307568  55.8333295  10.5613519  28.8777093
  56.6986292  10.3656328  28.5182982  55.9010804  10.3323871  29.8046449
  65.4478426  20.8511100  22.3487286  64.6707868  20.5122259  21.9042448
  66.1269907  20.8563723  21.6742251  60.2630455  15.9705837  22.2393894
  59.9580590  16.2851986  23.0904037  61.2160897  16.0487257  22.2821227
  58.7076886  22.1296061  23.8886848  58.1798248  21.3948820  23.5760085
  58.2064389  22.9070737  23.6426816  63.6869732  20.3245081  29.0053894
  63.0293407  21.0144342  29.0934023  64.4910132  20.7141513  29.3487881
  53.4395614  12.7915727  26.2493459  54.0139366  12.5690908  25.5166652
  54.0266597  12.8604421  27.0022061  62.4975191  18.6789454  27.0557836
  63.0107073  19.3119446  27.5579546  63.1476415  18.0790649  26.6901196
  53.7665201  14.8220188  20.2689345  52.9302513  15.1594874  20.5898619
  53.6269971  14.6869168  19.3316482  55.7418282   9.6656976  24.9768529
  55.0882694   9.3505993  24.3525144  55.6998756   9.0432716  25.7028352
  56.8529487  19.9476271  16.8921821  55.9456548  19.7165524  17.0912970
  57.3500519  19.1513890  17.0795803  59.7597566  28.6573778  19.8118507
  59.0859264  28.9605475  20.4203465  60.1463388  29.4602858  19.4623964
  58.9756022  16.1538909  29.3016177  58.0578584  16.3753856  29.1437865
  59.3916166  16.2285220  28.4427884  59.7591070  17.5530325  24.4318857
  60.5062889  18.0651722  24.1225979  60.0282659  17.2314378  25.2923250
  58.0317720  20.0488866  21.4145811  57.1228939  19.7647898  21.5118281
  58.0612804  20.4687944  20.5549118  63.2636988  23.6595455  25.1836979
  62.8099315  22.8186365  25.2402169  62.6330954  24.2956854  25.5211759
  62.2069907  14.5887441  26.4137646  61.4692664  14.0764827  26.7447889
  62.4596681  14.1487823  25.6020923  61.7069927  25.4971952  26.1186797
  61.9992901  26.0577009  25.3999162  62.2168547  25.7900513  26.8739956
  62.3081534   7.3663693  27.0079415  62.6140411   6.5061057  26.7205330
  63.0334139   7.9581313  26.8078409  48.6005890  17.7694380  25.3961013
  48.4030290  17.1763741  24.6712080  48.0452554  17.4646590  26.1136952
  56.5802614  17.6617486  27.5155606  56.6351224  16.7091323  27.4398083
  55.7693816  17.8176925  27.9996905  57.7293808  21.5897609  18.7533890
  57.2913238  20.8733468  18.2939527  58.4704249  21.8173724  18.1918981
  54.5194974  16.2794546  25.2745985  53.7062840  16.5788717  25.6811177
  55.0153968  15.8850235  25.9920468  56.6703552  26.2752303  27.2080250
  56.6279731  26.5013149  26.2788782  57.5866251  26.0415678  27.3566051
  60.1169186  16.7436370  34.1060879  60.4718573  16.9707844  34.9655345
  60.7641317  17.0754747  33.4838134  65.8466923  19.8654806  24.8110208
  65.7084821  20.0556402  23.8831397  65.4903141  20.6274189  25.2678259
  54.0109049  13.8512902  30.8907220  54.6508428  13.7101661  30.1930184
  53.1786579  13.5647415  30.5145822  65.8736302  21.9331333  29.8221480
  66.3072809  21.8406622  30.6704534  66.5867883  21.9088834  29.1841496
  54.7869353  23.1515332  27.0042213  55.5809951  22.6565652  26.8024788
  54.0761045  22.6233195  26.6409918  59.6064197  25.5333427  31.3554580
  59.6601219  26.1024364  32.1232296  58.7378979  25.7035313  30.9908617
  51.0952116  17.2958414  23.0801965  50.1649704  17.2342869  23.2971928
  51.1909588  16.7734366  22.2838607  51.0137665  13.8213227  25.6680207
  51.2744483  14.7358560  25.5589368  51.8354838  13.3537669  25.8176820
  52.4862591  15.2350984  32.8379032  53.1585644  15.0268346  32.1891680
  51.6592377  15.0373070  32.3984264  66.7351852  21.9755034  32.3554365
  66.9287742  22.8800845  32.6013640  66.6352470  21.5162453  33.1892950
  58.3888163  11.8612925  34.8544692  57.7416078  12.5602874  34.7609169
  59.1589178  12.2949069  35.2220941  58.5652297  19.6993690  32.9141512
  59.4944357  19.8504849  32.7410479  58.1443327  19.7877710  32.0590159
  57.3640629  23.7244354  30.6840050  57.2251714  23.3563138  31.5565988
  56.5755225  24.2391993  30.5124008  57.9588781  28.8253450  22.0265586
  58.1340536  28.3541494  22.8411209  57.2721569  29.4519217  22.2546847
  58.9145844  23.1025957  28.0728888  58.5795676  23.0626727  28.9686537
  58.4149790  22.4370673  27.5999298  52.8890088  18.5093587  33.5981469
  52.7509886  17.7773826  34.1993008  53.7995011  18.4202487  33.3165656
  61.8505036  20.4481991  18.3465947  61.2334206  19.7228819  18.2499000
  61.3821524  21.2091351  18.0033021  55.5172388  18.2213546  33.0865148
  56.2272007  17.5806738  33.0451767  55.4741697  18.4726441  34.0091329
  63.5059167  25.1580899  36.0071728  63.4471713  24.4740119  35.3402311
  63.9078686  25.8999889  35.5552354  54.2301322  15.2078764  34.9060788
  53.6938679  14.7569502  35.5582384  53.6418031  15.3424673  34.1631252
  53.6403581  14.6667415  17.4687252  52.7633048  14.5456216  17.1049498
  54.1161334  13.8753494  17.2166140  63.5076574  23.1220483  34.2385707
  62.6203353  22.7846405  34.3612106  64.0775125  22.3903515  34.4754473
  45.1605722  19.4544575  27.5628759  45.8476761  19.1406305  26.9749774
  45.0053850  20.3585940  27.2896010  49.9640444  14.3434772  31.9913782
  49.8798632  13.7360441  31.2564192  49.1423150  14.8343790  31.9923279
  57.0377728  27.7821936  31.2046950  56.9647899  28.5876907  31.7166255
  56.5955121  27.9813901  30.3794972  56.8267507  27.0193706  24.7149772
  56.0435029  27.5615386  24.8087997  57.5260253  27.5367685  25.1144013
  60.1364158  12.8288335  27.3583977  60.6332857  12.0758297  27.0385048
  59.3651139  12.8652652  26.7927187  67.9893915  18.5328701  29.0002269
  67.9783791  19.4153416  28.6296202  67.1211294  18.1800251  28.8056806
  59.4976411  27.6808770  33.3605109  60.2104384  28.3156234  33.2881011
  59.0066440  27.7772636  32.5445111  61.2193938  21.5860022  24.9322401
  60.2850217  21.7061485  24.7627105  61.3970607  20.6832489  24.6682411
  56.7199126  14.9705718  27.0855662  56.3496914  14.4176758  27.7736568
  57.2158219  14.3663852  26.5330662  64.6066490  17.4277342  25.4672435
  65.0726942  18.2605333  25.3932738  65.0573990  16.9622323  26.1717693
  54.5488325  25.4303213  34.1810680  55.2497784  26.0639696  34.3340074
  54.0783440  25.7717945  33.4206319  62.6742721  23.7721163  22.4658587
  62.9502565  23.6577757  23.3752461  61.8047219  23.3738648  22.4270760
  62.5783152   9.7957929  29.5063336  61.6646232  10.0262155  29.6745543
  63.0076254   9.8796373  30.3577369  62.3489611  17.9847821  32.0063230
  61.6961061  18.2323728  31.3515683  62.7269991  17.1711959  31.6725708
  59.3096785  28.0207514  26.1091401  59.4919179  27.2029170  26.5719153
  60.1329771  28.2375206  25.6716291  59.6438950  26.9475699  23.3706449
  60.1726717  26.4368153  22.7576611  59.9067170  26.6318229  24.2351982
  52.9994698  27.9990816  26.1304225  52.3305073  28.4836943  25.6468265
  52.8607568  28.2460036  27.0447604  44.7373698  17.5345168  29.8346226
  44.7757797  17.0008759  30.6283344  44.2313991  17.0080374  29.2157203
  57.1399967  30.0334559  32.7286883  57.6918275  30.1966181  33.4935969
  57.4806160  30.6238997  32.0566908  52.1164460  12.3809709  33.3308768
  52.1805786  13.2424540  32.9186166  52.0531580  11.7683711  32.5981127
  51.5916733  14.4532841  36.9781802  52.2188771  14.0709919  37.5919327
  50.7344651  14.2347043  37.3437495  48.3682275  16.2609271  22.9100157
  48.6635716  15.3519949  22.8567211  47.4670311  16.2397010  22.5881160
  60.2768354  27.9816535  29.7150566  60.1519493  27.1806274  29.2061511
  60.9347445  28.4762728  29.2264536  51.8976522  14.3365267  28.8927706
  51.1763108  14.9501235  28.7535179  52.6869778  14.8723032  28.8144352
  62.3403262  25.7825555  31.3430116  61.3933598  25.6630906  31.2708442
  62.6886036  24.8948053  31.4256377  54.7002836  11.6719694  35.1668358
  55.2237238  11.9181990  35.9294667  54.4815169  12.5039728  34.7471495
  50.0970117  13.9423368  23.0339482  49.7682823  13.0620747  22.8514588
  50.4509488  13.8871037  23.9215872  59.3449696  25.5778271  27.5434468
  59.1974658  24.6494978  27.7242038  60.1703189  25.5998362  27.0591543
  53.2111940  14.2296338  23.4014960  53.5508013  14.7582259  22.6793568
  53.6584060  14.5676744  24.1773527  62.9483818  26.4006830  28.6299341
  63.8730365  26.1949691  28.4923792  62.7799121  26.1523231  29.5388682
  55.9055381  12.6133389  32.8518028  55.5652201  11.8141202  33.2538708
  55.1994387  12.9135100  32.2794861  56.5571853   9.6982701  31.3045351
  57.3797922   9.2243179  31.1824241  56.8009916  10.4773185  31.8044037
  55.1980087  12.7270960  21.6008253  55.9188450  13.1052212  21.0971970
  54.5745391  13.4459836  21.7043231  59.3411210  13.4316109  22.5366585
  59.5574824  14.3140746  22.2355413  58.8605277  13.0402322  21.8072227
  54.0810431  16.3901822  29.1137330  53.9355012  16.7042125  30.0061611
  53.6035635  17.0086722  28.5608228  55.9406814  13.3804370  29.1618219
  55.9268383  12.4845463  28.8250517  56.6579242  13.3875034  29.7956505
  57.7932945  13.8141710  31.2071347  57.5350723  14.7358781  31.2055677
  57.2617985  13.4172145  31.8971811  62.7379134  26.9192497  23.9861432
  62.9116011  26.3538920  23.2335285  63.2308025  27.7193392  23.8040922
  48.5556094  18.9307166  32.0524991  48.0109562  19.7066974  32.1845265
  49.4335443  19.2777971  31.8944112  55.3443710  12.2618750  24.4305789
  55.4659621  11.3335396  24.6296677  55.0545753  12.2757436  23.5184105
  58.2134901   9.9473660  27.5672509  58.2356597  10.0112994  26.6124489
  58.6302960   9.1078169  27.7613015  68.5918525  19.6828920  25.6051732
  69.0349671  18.9336245  25.2070855  67.7145035  19.6739056  25.2225464
  63.7254306  26.2359261  21.0858330  64.4205211  26.8565954  21.3045645
  64.0677456  25.3854613  21.3610708  65.6245729  23.6858967  22.6145661
  66.1497053  24.0246240  21.8894981  65.5368082  22.7505982  22.4308796
  57.2865778  27.5993041  34.7435538  57.5952905  27.3542187  35.6158237
  58.0841260  27.8039679  34.2554408  57.3086390  29.7530950  26.9740914
  56.8691380  29.2607329  27.6673771  58.0594507  29.2103918  26.7332990
  49.7878729  25.9442491  26.9765542  50.6136749  25.6446263  26.5964186
  49.4372781  25.1750114  27.4255331  54.7560262  25.2968959  29.0463216
  54.1340272  24.6339664  28.7465444  55.4265129  25.3230091  28.3636864
  47.9887334  23.8628818  27.9354476  47.1519242  23.4350992  27.7538477
  47.9610980  24.0561261  28.8725267  54.8284790  13.7750747  38.6395722
  54.8772945  14.6512870  38.2573492  55.3707304  13.2328140  38.0667365
  65.4337510  21.1684337  35.2329588  65.4835515  21.0034344  36.1745110
  65.3251434  20.3011596  34.8427468  54.3173769  23.8472883  22.5221677
  54.4661890  24.5308347  21.8688349  55.1240213  23.8277973  23.0371132
  62.7241273  17.1515265  36.5488894  63.6251136  17.0121730  36.2572892
  62.7989247  17.3169720  37.4887072  57.0584078  14.5282120  35.3942081
  56.1887388  14.8215686  35.1224669  57.2943559  15.1122565  36.1149344
  66.9355707  23.5881279  35.4771609  66.6440516  23.9511259  36.3135070
  66.3227839  22.8748287  35.2984941  68.1351390  21.1534158  27.9974179
  68.9698281  21.5923962  28.1611740  68.2710518  20.6772812  27.1782425
  65.1842896  18.7113893  33.9451667  65.6597017  18.9041539  33.1370519
  64.2608461  18.7673079  33.6995051  52.0726402  19.8738060  23.5282745
  51.8272444  18.9700390  23.7262956  52.2422317  19.8755211  22.5862223
  59.7623112  10.7461737  32.9107501  60.2805056  11.4822764  32.5853990
  59.4078245  11.0525730  33.7454260  51.3422050  15.6066418  21.0268907
  50.6491295  15.6810773  20.3708943  51.0973802  14.8426762  21.5490424
  60.0135706   7.1662019  28.4308398  60.2937460   6.4985208  29.0568824
  60.7986313   7.3591115  27.9183061  57.8169175  26.3421013  19.9933424
  57.2443142  26.9611200  19.5403896  58.3901968  26.8920375  20.5273346
  63.8844565  15.5879653  32.1779973  64.8361987  15.6877751  32.1992197
  63.7148015  14.7957922  32.6878057  61.9058944  12.6735236  32.3639374
  61.3108876  12.9540249  31.6685862  61.6208641  13.1629137  33.1356115
  61.0366434  26.6258163  21.1242006  61.9697108  26.5603725  21.3274882
  60.9489647  27.4614430  20.6656539  63.6654451  25.9424034  18.0845954
  63.5868083  25.6083897  18.9781712  64.4864118  26.4345802  18.0837426
  66.3632642  18.8085773  31.2922272  66.3308962  17.8701774  31.4781956
  66.9733266  18.8869810  30.5588097  58.2015973  17.6781826  17.3349476
  59.1475078  17.5488034  17.4037894  57.8230218  16.9396488  17.8118905
  66.5127131  15.5996816  31.3380556  65.9966179  14.8155273  31.1510484
  67.3967079  15.2715533  31.5027075  64.1737858   9.3437832  27.2976368
  63.9762679   9.0352920  28.1819700  64.7837563  10.0699471  27.4274298
  72.1809192  19.8701780  30.4328309  72.9112581  19.6087068  30.9936013
  71.5716138  19.1330502  30.4730377  70.2624489  18.0109642  31.0302760
  69.5357653  17.8765607  30.4219252  69.8471776  18.3186471  31.8359478
  56.3858890  15.6031802  17.2704362  55.4790346  15.3064915  17.3467075
  56.6634871  15.3061620  16.4038648  47.3036831  16.9238166  27.7203408
  46.9839615  16.0703474  27.4277782  46.7570259  17.1386744  28.4761375
  51.0816738  19.6400607  31.4372915  51.3002748  20.5717715  31.4560948
  51.4942512  19.2808581  32.2227718  58.0020956  10.1468692  23.4248603
  57.1921684   9.8015777  23.8003849  58.6905373   9.8376236  24.0136215
  59.9311504   9.2246739  25.0472900  60.4842543   9.6442192  25.7062923
  60.1681591   8.2982487  25.0895856  55.9544604  15.2133812  40.8275664
  55.8541331  16.1628169  40.7587755  55.7366146  14.8852051  39.9551734
  55.1557675  12.4618738  17.4116341  56.0176839  12.7873636  17.6712158
  55.3408019  11.6750233  16.8989407  47.1725091  20.5441077  29.6896530
  46.4788562  20.1295030  29.1766484  47.9198082  20.5861614  29.0929949
  63.3090311  11.3347264  24.5551564  62.7288981  11.9932068  24.1729616
  63.0426244  10.5124609  24.1438981  61.7593878  10.7352322  26.7572884
  62.2593656  10.8468856  25.9487203  62.4029486  10.4313375  27.3973693
  49.0861833  20.4759331  27.5662545  49.0632521  20.5747018  26.6144428
  49.3962470  21.3224482  27.8879711  62.0915189  13.4947354  23.6107912
  61.2041045  13.7797005  23.3928107  62.5069179  13.3341118  22.7635189
  65.4429726  13.5193875  27.3262251  66.2190116  14.0090328  27.5986868
  64.7177860  13.9451930  27.7834121  67.8802284  14.2321495  28.3836192
  68.4746775  13.9917231  27.6729500  67.9528868  13.5128625  29.0109728
  50.0999440  28.0755106  28.6979357  49.9653908  27.3155506  28.1317355
  49.6831502  28.7996005  28.2308146  61.2358403  23.2592029  17.7055932
  61.9394253  23.4642032  18.3213588  60.5121052  23.8268791  17.9705016
  62.0656213  19.0101890  23.8258202  62.0091415  19.4670442  22.9865835
  62.6184556  18.2492575  23.6481045  65.8761019  14.7991622  24.6508322
  65.6197953  14.3988258  25.4816529  65.2513887  15.5135416  24.5258461
  70.1873357  17.5387695  27.1579613  69.6272915  17.6080885  27.9311175
  69.5816860  17.3628680  26.4379109  53.2568566  28.9724423  28.9097799
  53.1400950  29.9169855  28.8076490  52.4361012  28.6697984  29.2983599
  63.1445100  23.6974558  19.7554392  63.9790704  23.2655757  19.5731867
  62.9829443  23.5256572  20.6831287  62.7990993  20.2006672  21.1210731
  62.7439796  20.0350943  20.1799176  62.1737048  20.9082704  21.2772921
  47.5883508  15.4374736  34.9472154  48.2342371  14.9273690  35.4359379
  47.3800659  16.1743418  35.5215579  56.1087118   9.7014781  20.6996050
  56.0965788  10.6456620  20.8564321  57.0010540   9.5184926  20.4055511
  56.0376682  28.3783671  28.7863807  55.0872313  28.3785533  28.6728179
  56.3409168  27.6316406  28.2699841  59.9239237   6.2957557  24.9541987
  59.1571633   5.7416044  25.0998669  60.3349942   6.3679426  25.8156138
  51.9280999  12.5842353  39.0447168  52.7912460  12.2279158  39.2550492
  51.3546409  12.2456248  39.7322572  71.7729375  34.2144209  29.8509569
  72.4107785  34.0950957  29.1472909  71.6550218  35.1625053  29.9097521
  68.5819082  34.1671637  29.7871094  68.2437593  34.0512702  28.8991628
  69.4508850  33.7662803  29.7672100  64.4405897  36.0207114  25.7767985
  63.8770763  35.9297051  25.0084272  64.3258292  35.2007018  26.2570477
  69.0638865  35.3206489  35.7457299  69.0527505  34.9259287  34.8737803
  69.2259504  34.5872562  36.3391071  61.9870329  37.5158305  28.6152205
  62.7791621  37.1749130  28.1998504  62.2266980  37.6253281  29.5354358
  70.0205456  39.6878082  21.0882449  69.3693436  40.2732162  20.7016463
  70.8149819  40.2184276  21.1477487  63.9461083  36.7767219  21.4869584
  64.7191959  36.2296206  21.3482460  64.2986482  37.6411468  21.6984045
  65.7846126  38.1043601  34.6936483  65.4935992  39.0089232  34.5783149
  66.4203110  38.1460129  35.4080553  66.7102333  35.4820450  31.2837843
  67.3065905  35.2576472  30.5694806  66.7677304  34.7405195  31.8863291
  66.2827361  32.9359885  19.1188034  66.5352882  32.4141406  18.3571497
  65.3451920  32.7726030  19.2214717  71.3270644  31.9395663  26.9262777
  72.1133733  31.5215086  26.5753194  71.5909348  32.8441755  27.0944425
  71.4980721  37.3768514  21.6251434  70.8626554  37.4503140  22.3372338
  71.1678128  37.9662112  20.9470513  76.7279071  31.8770896  27.8295755
  77.4604243  31.3070113  28.0633585  75.9718427  31.4892497  28.2702261
  66.0023650  34.8387991  21.3212409  65.8859908  34.1632894  21.9893493
  66.1125910  34.3520365  20.5044562  68.3455191  34.2998138  25.0259098
  67.9813398  33.7728759  25.7372019  69.2022307  33.9096607  24.8525583
  74.2504491  25.5892471  32.2890364  73.9187816  26.4587881  32.0651579
  73.6550105  25.2728755  32.9684394  67.9860678  29.3288038  20.0220446
  68.1535080  30.1968274  20.3890917  67.7957847  29.4915319  19.0981736
  70.7436011  37.7905017  31.6886277  70.4436734  38.6930055  31.5802084
  70.3987070  37.5237200  32.5407430  64.1948492  34.2418813  27.7222981
  63.2698989  34.1095027  27.9300673  64.4432906  35.0213033  28.2192924
  74.1433155  30.3087557  29.3683714  73.2350032  30.2402965  29.0742475
  74.0920751  30.7859502  30.1965540  67.9649899  31.7845695  21.0067113
  67.8449524  32.2302746  21.8452594  67.2702487  32.1331013  20.4480651
  61.5557303  33.8852087  28.5566770  61.6849685  34.1386566  29.4706182
  60.8754755  34.4779795  28.2371425  65.7256791  44.5549337  24.6557244
  65.6480820  45.5057162  24.7345725  65.1218434  44.2095209  25.3132171
  68.2174021  31.7277202  37.3118611  67.4407355  32.2871122  37.3021476
  68.8564584  32.2133985  37.8333481  76.0094801  28.5103995  31.1461588
  75.3669181  28.8036528  30.5001383  75.5049730  28.3956915  31.9514785
  73.6634965  32.2567168  21.8347447  74.5752821  32.4894555  21.6595145
  73.1544612  32.8404212  21.2722526  66.4720393  34.5362656  36.8736578
  67.2135077  35.0747700  36.5971402  65.7657378  35.1628944  37.0308130
  71.9475732  36.6791796  35.4708740  72.3559088  36.2374207  34.7263372
  71.2252994  36.1044424  35.7242933  68.3006803  31.6164403  32.8442297
  69.1467998  32.0403816  32.9876946  68.2405440  30.9598027  33.5380860
  72.2704547  37.2392987  29.2261029  71.6413410  37.4038701  28.5237097
  71.8830209  37.6534596  29.9971993  76.1493779  38.1747425  26.5805393
  75.4644817  38.5546326  26.0302426  76.2337628  38.7842751  27.3137340
  71.4506248  29.2768771  34.5023470  71.2067180  30.0310832  33.9657746
  71.7266178  29.6554119  35.3370718  73.4044711  35.8207384  33.1800736
  73.6161606  36.4639144  32.5035117  73.3574459  34.9869700  32.7122666
  71.0070940  28.4325204  30.0837308  70.1455419  28.7306458  30.3754046
  71.0333374  28.6495603  29.1518341  67.8232509  36.9767395  26.4911114
  68.2870855  37.2555098  25.7015736  67.5589307  36.0750839  26.3084205
  64.7156590  36.5238876  29.4290877  65.2857947  36.9526145  28.7908362
  65.3064702  36.2421461  30.1275063  66.7601395  33.0990547  23.3000679
  67.4625438  33.5511591  23.7674605  66.4282024  32.4574366  23.9280572
  65.2081757  31.6902304  37.6751888  64.5780417  32.3718585  37.9087285
  65.1017844  31.5785385  36.7305027  60.5026729  31.3574100  28.6017813
  59.7125783  31.6131628  28.1257923  60.9937976  32.1722438  28.7069853
  74.5190539  38.6979339  31.3523093  75.3407982  38.2959526  31.0705775
  74.5152941  38.5947573  32.3039209  62.4541474  31.7218679  25.5601289
  61.6572638  31.8337373  26.0784785  62.2267067  32.0605331  24.6942180
  68.2847142  38.2463382  33.5083804  68.3491575  38.7083790  34.3441976
  67.5758066  37.6160747  33.6366114  58.7864432  31.6104590  31.0332803
  59.0372470  32.4951600  31.2990379  59.3223980  31.4309192  30.2607895
  82.6096532  35.0418088  27.7008065  81.8560240  34.4725486  27.5452069
  82.7444073  35.0080752  28.6478700  67.9995160  39.9131490  23.3762784
  67.8640834  40.7583026  23.8047632  68.5404972  40.1150767  22.6128718
  61.4524557  37.4306928  23.9490709  61.9649078  38.2250178  24.0996274
  62.1047270  36.7333218  23.8824311  63.2619442  40.5472684  26.0313462
  63.4386070  41.4690649  25.8434446  64.0576275  40.2331103  26.4607842
  67.4030460  27.4080949  37.6297396  68.1440174  28.0088102  37.5501858
  67.6348383  26.6658587  37.0715439  62.5471798  32.5937316  35.9075626
  62.4325313  31.6922573  36.2082725  61.6916316  32.8401013  35.5560442
  69.6263636  40.5355056  37.5063126  69.1827490  39.7491435  37.1884031
  70.2880850  40.7234207  36.8407017  64.3850757  42.0650858  32.0323805
  64.9358182  41.9367921  31.2600799  63.5462233  42.3645747  31.6818698
  71.7244874  40.8157856  35.5344528  71.7063349  41.6366737  35.0424797
  72.6464794  40.6911931  35.7594669  68.1817928  38.3301986  36.3768036
  68.7146265  37.5690274  36.1467344  67.6532009  38.0375638  37.1192190
  71.3487623  23.4362052  31.9061678  71.0051893  24.3263693  31.8300788
  71.7166586  23.2463709  31.0431263  59.4173474  35.7595582  24.7250280
  60.2548696  36.1692591  24.5083988  59.5951742  34.8195024  24.6950474
  71.3137906  33.4270663  20.4134113  70.7984529  34.1975267  20.6522500
  71.0415214  32.7535799  21.0367174  68.8985017  28.2720364  25.4719351
  68.0426613  27.8827214  25.2924990  69.3111969  28.3512324  24.6119137
  70.4284164  25.8066707  29.8710911  69.9248959  25.7696842  29.0578716
  70.7214770  26.7159450  29.9307568  66.6727049  25.8905437  28.8777093
  67.5380046  25.6948245  28.5182982  66.7404558  25.6615788  29.8046449
  76.2872180  36.1803017  22.3487286  75.5101623  35.8414177  21.9042448
  76.9663661  36.1855641  21.6742251  71.1024209  31.2997755  22.2393894
  70.7974345  31.6143904  23.0904037  72.0554651  31.3779175  22.2821227
  69.5470641  37.4587978  23.8886848  69.0192003  36.7240738  23.5760085
  69.0458144  38.2362655  23.6426816  74.5263487  35.6536999  29.0053894
  73.8687161  36.3436260  29.0934023  75.3303886  36.0433431  29.3487881
  64.2789369  28.1207645  26.2493459  64.8533120  27.8982826  25.5166652
  64.8660351  28.1896339  27.0022061  73.3368946  34.0081371  27.0557836
  73.8500828  34.6411363  27.5579546  73.9870170  33.4082567  26.6901196
  64.6058956  30.1512106  20.2689345  63.7696268  30.4886792  20.5898619
  64.4663725  30.0161085  19.3316482  66.5812036  24.9948893  24.9768529
  65.9276449  24.6797911  24.3525144  66.5392510  24.3724634  25.7028352
  67.6923241  35.2768188  16.8921821  66.7850303  35.0457442  17.0912970
  68.1894273  34.4805808  17.0795803  70.5991320  43.9865696  19.8118507
  69.9253019  44.2897392  20.4203465  70.9857142  44.7894776  19.4623964
  69.8149777  31.4830827  29.3016177  68.8972338  31.7045774  29.1437865
  70.2309920  31.5577137  28.4427884  70.5984824  32.8822243  24.4318857
  71.3456643  33.3943640  24.1225979  70.8676414  32.5606295  25.2923250
  68.8711475  35.3780783  21.4145811  67.9622694  35.0939816  21.5118281
  68.9006558  35.7979862  20.5549118  74.1030742  38.9887373  25.1836979
  73.6493069  38.1478283  25.2402169  73.4724709  39.6248771  25.5211759
  73.0463662  29.9179359  26.4137646  72.3086418  29.4056745  26.7447889
  73.2990435  29.4779740  25.6020923  72.5463681  40.8263870  26.1186797
  72.8386656  41.3868927  25.3999162  73.0562302  41.1192431  26.8739956
  73.1475289  22.6955611  27.0079415  73.4534166  21.8352974  26.7205330
  73.8727894  23.2873231  26.8078409  59.4399645  33.0986297  25.3961013
  59.2424045  32.5055658  24.6712080  58.8846309  32.7938508  26.1136952
  67.4196369  32.9909404  27.5155606  67.4744978  32.0383240  27.4398083
  66.6087571  33.1468843  27.9996905  68.5687562  36.9189527  18.7533890
  68.1306992  36.2025386  18.2939527  69.3098003  37.1465642  18.1918981
  65.3588729  31.6086464  25.2745985  64.5456594  31.9080634  25.6811177
  65.8547723  31.2142152  25.9920468  67.5097306  41.6044221  27.2080250
  67.4673485  41.8305067  26.2788782  68.4260005  41.3707595  27.3566051
  70.9562940  32.0728288  34.1060879  71.3112328  32.2999761  34.9655345
  71.6035071  32.4046665  33.4838134  76.6860677  35.1946724  24.8110208
  76.5478576  35.3848320  23.8831397  76.3296896  35.9566107  25.2678259
  64.8502803  29.1804819  30.8907220  65.4902183  29.0393578  30.1930184
  64.0180334  28.8939333  30.5145822  76.7130057  37.2623251  29.8221480
  77.1466563  37.1698540  30.6704534  77.4261637  37.2380752  29.1841496
  65.6263107  38.4807250  27.0042213  66.4203706  37.9857570  26.8024788
  64.9154800  37.9525113  26.6409918  70.4457952  40.8625345  31.3554580
  70.4994974  41.4316281  32.1232296  69.5772733  41.0327230  30.9908617
  61.9345871  32.6250331  23.0801965  61.0043459  32.5634787  23.2971928
  62.0303343  32.1026284  22.2838607  61.8531420  29.1505144  25.6680207
  62.1138237  30.0650477  25.5589368  62.6748592  28.6829587  25.8176820
  63.3256345  30.5642901  32.8379032  63.9979398  30.3560264  32.1891680
  62.4986132  30.3664987  32.3984264  77.5745606  37.3046952  32.3554365
  77.7681496  38.2092762  32.6013640  77.4746224  36.8454371  33.1892950
  69.2281917  27.1904842  34.8544692  68.5809832  27.8894792  34.7609169
  69.9982932  27.6240986  35.2220941  72.6360715  37.4553694  37.9295246
  72.4846221  37.2264246  37.0125329  72.6265394  38.4124296  37.9426591
  69.4046051  35.0285607  32.9141512  70.3338111  35.1796767  32.7410479
  68.9837081  35.1169628  32.0590159  68.2034383  39.0536272  30.6840050
  68.0645469  38.6855056  31.5565988  67.4148979  39.5683911  30.5124008
  68.7982535  44.1545368  22.0265586  68.9734291  43.6833411  22.8411209
  68.1115323  44.7811134  22.2546847  69.7539598  38.4317874  28.0728888
  69.4189431  38.3918644  28.9686537  69.2543544  37.7662590  27.5999298
  63.7283842  33.8385504  33.5981469  63.5903640  33.1065743  34.1993008
  64.6388766  33.7494404  33.3165656  72.6898790  35.7773909  18.3465947
  72.0727961  35.0520737  18.2499000  72.2215278  36.5383269  18.0033021
  66.3566143  33.5505464  33.0865148  67.0665762  32.9098656  33.0451767
  66.3135451  33.8018359  34.0091329  74.3452922  40.4872817  36.0071728
  74.2865468  39.8032037  35.3402311  74.7472440  41.2291807  35.5552354
  65.0695077  30.5370682  34.9060788  64.5332434  30.0861420  35.5582384
  64.4811785  30.6716590  34.1631252  63.3643620  47.3034731  28.8005446
  63.6040219  47.9353255  29.4784465  62.5212817  46.9522771  29.0870806
  64.4797336  29.9959333  17.4687252  63.6026802  29.8748134  17.1049498
  64.9555089  29.2045411  17.2166140  74.3470329  38.4512401  34.2385707
  73.4597108  38.1138323  34.3612106  74.9168880  37.7195432  34.4754473
  55.9999476  34.7836493  27.5628759  56.6870516  34.4698223  26.9749774
  55.8447605  35.6877857  27.2896010  60.8034198  29.6726689  31.9913782
  60.7192387  29.0652359  31.2564192  59.9816905  30.1635708  31.9923279
  67.8771482  43.1113853  31.2046950  67.8041654  43.9168825  31.7166255
  67.4348875  43.3105819  30.3794972  67.6661262  42.3485623  24.7149772
  66.8828784  42.8907304  24.8087997  68.3654007  42.8659603  25.1144013
  70.9757912  28.1580253  27.3583977  71.4726612  27.4050215  27.0385048
  70.2044894  28.1944569  26.7927187  78.8287669  33.8620618  29.0002269
  78.8177546  34.7445334  28.6296202  77.9605049  33.5092169  28.8056806
  70.3370166  43.0100687  33.3605109  71.0498138  43.6448152  33.2881011
  69.8460194  43.1064553  32.5445111  72.0587693  36.9151940  24.9322401
  71.1243971  37.0353402  24.7627105  72.2364361  36.0124407  24.6682411
  67.5592881  30.2997636  27.0855662  67.1890668  29.7468676  27.7736568
  68.0551973  29.6955769  26.5330662  75.4460244  32.7569259  25.4672435
  75.9120696  33.5897251  25.3932738  75.8967745  32.2914241  26.1717693
  65.3882079  40.7595131  34.1810680  66.0891539  41.3931614  34.3340074
  64.9177194  41.1009862  33.4206319  73.5136475  39.1013081  22.4658587
  73.7896319  38.9869675  23.3752461  72.6440974  38.7030565  22.4270760
  73.4176907  25.1249846  29.5063336  72.5039987  25.3554073  29.6745543
  73.8470008  25.2088290  30.3577369  73.1883365  33.3139738  32.0063230
  72.5354816  33.5615646  31.3515683  73.5663745  32.5003876  31.6725708
  70.1490539  43.3499431  26.1091401  70.3312934  42.5321087  26.5719153
  70.9723525  43.5667124  25.6716291  70.4832705  42.2767617  23.3706449
  71.0120471  41.7660071  22.7576611  70.7460924  41.9610147  24.2351982
  69.2370938  34.0559549  38.4929267  68.5611575  33.9553679  39.1631643
  70.0598572  33.8998763  38.9565265  60.9849797  40.2931486  31.1141783
  61.5703234  39.5475174  31.2469687  60.7874636  40.6035443  31.9978447
  63.8388453  43.3282733  26.1304225  63.1698828  43.8128861  25.6468265
  63.7001322  43.5751954  27.0447604  55.5767452  32.8637086  29.8346226
  55.6151552  32.3300677  30.6283344  55.0707745  32.3372292  29.2157203
  67.9793721  45.3626477  32.7286883  68.5312029  45.5258098  33.4935969
  68.3199915  45.9530915  32.0566908  62.9558214  27.7101627  33.3308768
  63.0199541  28.5716457  32.9186166  62.8925335  27.0975628  32.5981127
  72.8304596  40.1887734  38.5835538  73.3744500  40.8017693  38.0890493
  72.2491440  40.7467313  39.1002551  59.2076030  31.5901188  22.9100157
  59.5029471  30.6811867  22.8567211  58.3064066  31.5688928  22.5881160
  71.1162109  43.3108452  29.7150566  70.9913248  42.5098192  29.2061511
  71.7741200  43.8054646  29.2264536  62.7370277  29.6657185  28.8927706
  62.0156863  30.2793152  28.7535179  63.5263533  30.2014950  28.8144352
  73.1797017  41.1117472  31.3430116  72.2327352  40.9922824  31.2708442
  73.5279790  40.2239970  31.4256377  65.5396590  27.0011611  35.1668358
  66.0630992  27.2473908  35.9294667  65.3208924  27.8331646  34.7471495
  60.9363871  29.2715286  23.0339482  60.6076577  28.3912665  22.8514588
  61.2903242  29.2162955  23.9215872  70.1843450  40.9070189  27.5434468
  70.0368413  39.9786896  27.7242038  71.0096944  40.9290279  27.0591543
  64.0505694  29.5588256  23.4014960  64.3901767  30.0874177  22.6793568
  64.4977815  29.8968662  24.1773527  73.7877572  41.7298747  28.6299341
  74.7124120  41.5241609  28.4923792  73.6192875  41.4815148  29.5388682
  66.7449135  27.9425306  32.8518028  66.4045956  27.1433119  33.2538708
  66.0388142  28.2427017  32.2794861  67.3965607  25.0274619  31.3045351
  68.2191676  24.5535097  31.1824241  67.6403671  25.8065103  31.8044037
  66.0373842  28.0562877  21.6008253  66.7582204  28.4344130  21.0971970
  65.4139146  28.7751754  21.7043231  70.1804965  28.7608026  22.5366585
  70.3968579  29.6432664  22.2355413  69.6999032  28.3694240  21.8072227
  64.9204186  31.7193739  29.1137330  64.7748767  32.0334043  30.0061611
  64.4429390  32.3378640  28.5608228  66.7800569  28.7096287  29.1618219
  66.7662138  27.8137381  28.8250517  67.4972997  28.7166951  29.7956505
  68.6326700  29.1433628  31.2071347  68.3744477  30.0650698  31.2055677
  68.1011740  28.7464062  31.8971811  73.5772888  42.2484415  23.9861432
  73.7509766  41.6830837  23.2335285  74.0701779  43.0485310  23.8040922
  59.3949848  34.2599084  32.0524991  58.8503316  35.0358892  32.1845265
  60.2729198  34.6069888  31.8944112  66.1837465  27.5910668  24.4305789
  66.3053376  26.6627314  24.6296677  65.8939507  27.6049354  23.5184105
  69.0528655  25.2765578  27.5672509  69.0750352  25.3404911  26.6124489
  69.4696714  24.4370087  27.7613015  79.4312279  35.0120838  25.6051732
  79.8743425  34.2628163  25.2070855  78.5538790  35.0030974  25.2225464
  74.5648061  41.5651179  21.0858330  75.2598965  42.1857872  21.3045645
  74.9071211  40.7146530  21.3610708  60.1815870  33.3868980  34.9455148
  59.4397606  33.5351615  35.5319778  59.8608614  33.6477246  34.0821897
  76.4639484  39.0150885  22.6145661  76.9890808  39.3538157  21.8894981
  76.3761836  38.0797900  22.4308796  68.1259533  42.9284958  34.7435538
  68.4346659  42.6834105  35.6158237  68.9235015  43.1331597  34.2554408
  68.1480145  45.0822868  26.9740914  67.7085135  44.5899247  27.6673771
  68.8988262  44.5395836  26.7332990  60.6272484  41.2734409  26.9765542
  61.4530504  40.9738181  26.5964186  60.2766536  40.5042031  27.4255331
  65.5954017  40.6260877  29.0463216  64.9734026  39.9631582  28.7465444
  66.2658884  40.6522009  28.3636864  58.8281089  39.1920735  27.9354476
  57.9912997  38.7642910  27.7538477  58.8004734  39.3853179  28.8725267
  76.1533390  39.6483788  37.9196859  75.3628934  39.6307927  37.3801358
  75.9166745  40.1872082  38.6745896  76.2731265  36.4976255  35.2329588
  76.3229270  36.3326262  36.1745110  76.1645188  35.6303514  34.8427468
  65.1567524  39.1764800  22.5221677  65.3055644  39.8600265  21.8688349
  65.9633967  39.1569890  23.0371132  73.5635027  32.4807183  36.5488894
  74.4644890  32.3413648  36.2572892  73.6383002  32.6461638  37.4887072
  67.8977833  29.8574037  35.3942081  67.0281142  30.1507604  35.1224669
  68.1337313  30.4414482  36.1149344  77.7749462  38.9173196  35.4771609
  77.4834270  39.2803177  36.3135070  77.1621593  38.2040205  35.2984941
  78.9745144  36.4826076  27.9974179  79.8092036  36.9215880  28.1611740
  79.1104273  36.0064729  27.1782425  76.0236650  34.0405811  33.9451667
  76.4990772  34.2333457  33.1370519  75.1002215  34.0964997  33.6995051
  62.9120157  35.2029978  23.5282745  62.6666199  34.2992308  23.7262956
  63.0816071  35.2047128  22.5862223  70.6016867  26.0753654  32.9107501
  71.1198810  26.8114681  32.5853990  70.2471999  26.3817648  33.7454260
  62.1815804  30.9358336  21.0268907  61.4885049  31.0102691  20.3708943
  61.9367556  30.1718679  21.5490424  70.8529461  22.4953937  28.4308398
  71.1331214  21.8277126  29.0568824  71.6380068  22.6883033  27.9183061
  68.6562929  41.6712931  19.9933424  68.0836896  42.2903118  19.5403896
  69.2295723  42.2212293  20.5273346  74.7238319  30.9171571  32.1779973
  75.6755742  31.0169669  32.1992197  74.5541769  30.1249839  32.6878057
  72.7452699  28.0027154  32.3639374  72.1502631  28.2832167  31.6685862
  72.4602395  28.4921055  33.1356115  71.8760189  41.9550081  21.1242006
  72.8090862  41.8895643  21.3274882  71.7883402  42.7906348  20.6656539
  74.5048206  41.2715951  18.0845954  74.4261837  40.9375815  18.9781712
  75.3257872  41.7637719  18.0837426  77.2026397  34.1377691  31.2922272
  77.1702717  33.1993691  31.4781956  77.8127020  34.2161727  30.5588097
  69.0409728  33.0073744  17.3349476  69.9868832  32.8779952  17.4037894
  68.6623973  32.2688406  17.8118905  77.3520885  30.9288734  31.3380556
  76.8359934  30.1447191  31.1510484  78.2360834  30.6007451  31.5027075
  75.0131612  24.6729750  27.2976368  74.8156433  24.3644838  28.1819700
  75.6231318  25.3991389  27.4274298  81.1018244  33.3401560  31.0302760
  80.3751407  33.2057525  30.4219252  80.6865531  33.6478389  31.8359478
  68.9248420  37.0591490  38.7950133  69.8451430  37.2370089  38.9890180
  68.8898003  36.1147535  38.6429833  67.2252645  30.9323720  17.2704362
  66.3184100  30.6356833  17.3467075  67.5028626  30.6353538  16.4038648
  58.1430585  32.2530083  27.7203408  57.8233370  31.3995392  27.4277782
  57.5964013  32.4678662  28.4761375  61.9210493  34.9692524  31.4372915
  62.1396503  35.9009632  31.4560948  62.3336267  34.6100499  32.2227718
  68.8414711  25.4760610  23.4248603  68.0315439  25.1307695  23.8003849
  69.5299128  25.1668153  24.0136215  70.7705259  24.5538657  25.0472900
  71.3236297  24.9734110  25.7062923  71.0075345  23.6274405  25.0895856
  66.7938358  30.5425730  40.8275664  66.6935085  31.4920087  40.7587755
  66.5759900  30.2143969  39.9551734  65.9951429  27.7910655  17.4116341
  66.8570593  28.1165554  17.6712158  66.1801774  27.0042151  16.8989407
  58.0118845  35.8732995  29.6896530  57.3182317  35.4586948  29.1766484
  58.7591836  35.9153531  29.0929949  74.1484066  26.6639182  24.5551564
  73.5682735  27.3223986  24.1729616  73.8819999  25.8416526  24.1438981
  72.5987632  26.0644239  26.7572884  73.0987411  26.1760774  25.9487203
  73.2423240  25.7605292  27.3973693  66.6569628  33.9722869  39.6440725
  66.1736710  34.7723229  39.8504614  66.7430567  33.9830814  38.6908169
  59.9255588  35.8051249  27.5662545  59.9026276  35.9038936  26.6144428
  60.2356224  36.6516399  27.8879711  62.5842966  37.8627404  31.6809159
  63.5386219  37.8311346  31.6139091  62.3855489  37.4018027  32.4959385
  63.1742348  36.4328520  34.2479957  63.9935237  36.9272598  34.2714794
  63.4479155  35.5160488  34.2197524  72.9308944  28.8239272  23.6107912
  72.0434799  29.1088923  23.3928107  73.3462933  28.6633035  22.7635189
  76.2823480  28.8485793  27.3262251  77.0583870  29.3382245  27.5986868
  75.5571614  29.2743847  27.7834121  78.7196039  29.5613412  28.3836192
  79.3140530  29.3209148  27.6729500  78.7922622  28.8420543  29.0109728
  60.9393194  43.4047023  28.6979357  60.8047662  42.6447424  28.1317355
  60.5225257  44.1287923  28.2308146  72.0752157  38.5883947  17.7055932
  72.7788008  38.7933949  18.3213588  71.3514806  39.1560709  17.9705016
  72.9049968  34.3393808  23.8258202  72.8485169  34.7962359  22.9865835
  73.4578310  33.5784493  23.6481045  76.7154774  30.1283540  24.6508322
  76.4591708  29.7280176  25.4816529  76.0907642  30.8427334  24.5258461
  81.0267111  32.8679613  27.1579613  80.4666669  32.9372802  27.9311175
  80.4210615  32.6920598  26.4379109  64.0962320  44.3016340  28.9097799
  63.9794704  45.2461773  28.8076490  63.2754767  43.9989902  29.2983599
  73.9838855  39.0266476  19.7554392  74.8184459  38.5947674  19.5731867
  73.8223198  38.8548490  20.6831287  73.6384747  35.5298589  21.1210731
  73.5833551  35.3642861  20.1799176  73.0130802  36.2374622  21.2772921
  58.4277262  30.7666654  34.9472154  59.0736126  30.2565608  35.4359379
  58.2194413  31.5035335  35.5215579  70.9530654  37.8347501  40.4464294
  71.8221814  38.0088153  40.0850929  70.4737406  38.6541918  40.3240024
  66.9480872  25.0306698  20.6996050  66.9359542  25.9748538  20.8564321
  67.8404294  24.8476844  20.4055511  65.1216834  44.9544602  32.1253728
  66.0244081  44.9868212  32.4420223  64.8954204  44.0245053  32.1400064
  66.8770436  43.7075589  28.7863807  65.9266067  43.7077450  28.6728179
  67.1802923  42.9608323  28.2699841  70.7632992  21.6249475  24.9541987
  69.9965388  21.0707962  25.0998669  71.1743697  21.6971344  25.8156138
  79.4212836  49.4963555  29.7871094  79.0831348  49.3804620  28.8991628
  80.2902604  49.0954720  29.7672100  75.2799652  51.3499032  25.7767985
  74.7164517  51.2588968  25.0084272  75.1652047  50.5298936  26.2570477
  79.9032619  50.6498407  35.7457299  79.8921260  50.2551205  34.8737803
  80.0653259  49.9164479  36.3391071  72.8264084  52.8450223  28.6152205
  73.6185376  52.5041048  28.1998504  73.0660734  52.9545198  29.5354358
  80.8599211  55.0169999  21.0882449  80.2087190  55.6024080  20.7016463
  81.6543573  55.5476194  21.1477487  74.7854838  52.1059136  21.4869584
  75.5585714  51.5588123  21.3482460  75.1380237  52.9703386  21.6984045
  76.6239880  53.4335519  34.6936483  76.3329746  54.3381150  34.5783149
  77.2596865  53.4752046  35.4080553  77.5496087  50.8112367  31.2837843
  78.1459659  50.5868390  30.5694806  77.6071059  50.0697113  31.8863291
  77.1221116  48.2651803  19.1188034  77.3746636  47.7433324  18.3571497
  76.1845675  48.1017948  19.2214717  82.1664398  47.2687581  26.9262777
  82.9527488  46.8507004  26.5753194  82.4303103  48.1733673  27.0944425
  82.3374476  52.7060431  21.6251434  81.7020309  52.7795058  22.3372338
  82.0071882  53.2954030  20.9470513  76.8417404  50.1679908  21.3212409
  76.7253662  49.4924812  21.9893493  76.9519664  49.6812282  20.5044562
  79.1848945  49.6290056  25.0259098  78.8207153  49.1020677  25.7372019
  80.0416061  49.2388525  24.8525583  78.8254432  44.6579955  20.0220446
  78.9928835  45.5260192  20.3890917  78.6351601  44.8207237  19.0981736
  81.5829765  53.1196934  31.6886277  81.2830489  54.0221973  31.5802084
  81.2380825  52.8529117  32.5407430  75.0342247  49.5710731  27.7222981
  74.1092743  49.4386945  27.9300673  75.2826660  50.3504950  28.2192924
  78.8043653  47.1137613  21.0067113  78.6843278  47.5594664  21.8452594
  78.1096242  47.4622930  20.4480651  72.3951058  49.2144005  28.5566770
  72.5243439  49.4678484  29.4706182  71.7148509  49.8071713  28.2371425
  76.5650545  59.8841255  24.6557244  76.4874575  60.8349080  24.7345725
  75.9612189  59.5387127  25.3132171  79.0567775  47.0569120  37.3118611
  78.2801109  47.6163040  37.3021476  79.6958338  47.5425903  37.8333481
  77.3114147  49.8654573  36.8736578  78.0528832  50.4039617  36.5971402
  76.6051133  50.4920862  37.0308130  82.7869487  52.0083714  35.4708740
  83.1952843  51.5666124  34.7263372  82.0646748  51.4336341  35.7242933
  79.1400557  46.9456321  32.8442297  79.9861752  47.3695734  32.9876946
  79.0799195  46.2889945  33.5380860  83.1098302  52.5684904  29.2261029
  82.4807164  52.7330619  28.5237097  82.7223964  52.9826514  29.9971993
  82.2900002  44.6060689  34.5023470  82.0460934  45.3602749  33.9657746
  82.5659933  44.9846037  35.3370718  81.8464694  43.7617122  30.0837308
  80.9849173  44.0598376  30.3754046  81.8727129  43.9787521  29.1518341
  78.6626263  52.3059313  26.4911114  79.1264609  52.5847015  25.7015736
  78.3983062  51.4042757  26.3084205  75.5550345  51.8530794  29.4290877
  76.1251702  52.2818062  28.7908362  76.1458456  51.5713379  30.1275063
  77.5995150  48.4282465  23.3000679  78.3019193  48.8803509  23.7674605
  77.2675778  47.7866284  23.9280572  76.0475511  47.0194221  37.6751888
  75.4174172  47.7010502  37.9087285  75.9411599  46.9077303  36.7305027
  71.3420483  46.6866018  28.6017813  70.5519537  46.9423546  28.1257923
  71.8331731  47.5014355  28.7069853  73.2935229  47.0510597  25.5601289
  72.4966392  47.1629291  26.0784785  73.0660821  47.3897249  24.6942180
  79.1240896  53.5755300  33.5083804  79.1885329  54.0375707  34.3441976
  78.4151820  52.9452665  33.6366114  69.6258186  46.9396508  31.0332803
  69.8766225  47.8243518  31.2990379  70.1617735  46.7601110  30.2607895
  78.8388914  55.2423407  23.3762784  78.7034589  56.0874943  23.8047632
  79.3798727  55.4442685  22.6128718  75.3256254  41.3214987  40.0377139
  74.9323199  40.7681186  40.7124784  76.1422394  41.6325566  40.4283657
  72.2918312  52.7598846  23.9490709  72.8042832  53.5542096  24.0996274
  72.9441024  52.0625136  23.8824311  74.1013196  55.8764602  26.0313462
  74.2779825  56.7982567  25.8434446  74.8970030  55.5623021  26.4607842
  78.2424215  42.7372866  37.6297396  78.9833928  43.3380020  37.5501858
  78.4742138  41.9950504  37.0715439  73.3865553  47.9229234  35.9075626
  73.2719068  47.0214491  36.2082725  72.5310071  48.1692930  35.5560442
  80.4657391  55.8646974  37.5063126  80.0221245  55.0783353  37.1884031
  81.1274604  56.0526125  36.8407017  75.2244512  57.3942776  32.0323805
  75.7751937  57.2659839  31.2600799  74.3855988  57.6937665  31.6818698
  79.0211683  53.6593903  36.3768036  79.5540020  52.8982192  36.1467344
  78.4925764  53.3667555  37.1192190  82.1881378  38.7653969  31.9061678
  81.8445647  39.6555611  31.8300788  82.5560340  38.5755627  31.0431263
  70.2567228  51.0887500  24.7250280  71.0942450  51.4984508  24.5083988
  70.4345496  50.1486942  24.6950474  82.1531660  48.7562580  20.4134113
  81.6378284  49.5267185  20.6522500  81.8808969  48.0827717  21.0367174
  79.7378771  43.6012281  25.4719351  78.8820368  43.2119132  25.2924990
  80.1505723  43.6804242  24.6119137  81.2677918  41.1358625  29.8710911
  80.7642714  41.0988760  29.0578716  81.5608525  42.0451367  29.9307568
  77.5120804  41.2197354  28.8777093  78.3773801  41.0240163  28.5182982
  77.5798313  40.9907706  29.8046449  81.9417964  46.6289673  22.2393894
  81.6368099  46.9435822  23.0904037  82.8948406  46.7071092  22.2821227
  80.3864395  52.7879896  23.8886848  79.8585757  52.0532655  23.5760085
  79.8851898  53.5654572  23.6426816  75.1183123  43.4499562  26.2493459
  75.6926875  43.2274744  25.5166652  75.7054106  43.5188257  27.0022061
  75.4452710  45.4804023  20.2689345  74.6090022  45.8178710  20.5898619
  75.3057480  45.3453003  19.3316482  77.4205791  40.3240811  24.9768529
  76.7670203  40.0089828  24.3525144  77.3786265  39.7016552  25.7028352
  78.5316996  50.6060106  16.8921821  77.6244057  50.3749360  17.0912970
  79.0288028  49.8097725  17.0795803  81.4385075  59.3157613  19.8118507
  80.7646773  59.6189310  20.4203465  81.8250896  60.1186694  19.4623964
  80.6543531  46.8122745  29.3016177  79.7366093  47.0337692  29.1437865
  81.0703675  46.8869055  28.4427884  81.4378579  48.2114160  24.4318857
  82.1850398  48.7235558  24.1225979  81.7070168  47.8898213  25.2923250
  79.7105229  50.7072701  21.4145811  78.8016448  50.4231734  21.5118281
  79.7400313  51.1271780  20.5549118  70.2793399  48.4278215  25.3961013
  70.0817799  47.8347576  24.6712080  69.7240063  48.1230425  26.1136952
  78.2590123  48.3201322  27.5155606  78.3138733  47.3675158  27.4398083
  77.4481325  48.4760761  27.9996905  79.4081317  52.2481445  18.7533890
  78.9700747  51.5317304  18.2939527  80.1491758  52.4757560  18.1918981
  76.1982483  46.9378381  25.2745985  75.3850349  47.2372552  25.6811177
  76.6941477  46.5434070  25.9920468  78.3491061  56.9336138  27.2080250
  78.3067240  57.1596985  26.2788782  79.2653760  56.6999513  27.3566051
  81.7956695  47.4020206  34.1060879  82.1506082  47.6291679  34.9655345
  82.4428826  47.7338583  33.4838134  75.6896558  44.5096737  30.8907220
  76.3295937  44.3685496  30.1930184  74.8574088  44.2231250  30.5145822
  76.4656862  53.8099167  27.0042213  77.2597460  53.3149487  26.8024788
  75.7548554  53.2817030  26.6409918  81.2851706  56.1917263  31.3554580
  81.3388728  56.7608199  32.1232296  80.4166488  56.3619148  30.9908617
  72.7739625  47.9542249  23.0801965  71.8437213  47.8926705  23.2971928
  72.8697097  47.4318202  22.2838607  72.6925174  44.4797062  25.6680207
  72.9531992  45.3942395  25.5589368  73.5142347  44.0121504  25.8176820
  74.1650100  45.8934819  32.8379032  74.8373153  45.6852181  32.1891680
  73.3379886  45.6956905  32.3984264  80.0675672  42.5196760  34.8544692
  79.4203587  43.2186710  34.7609169  80.8376687  42.9532904  35.2220941
  80.2439806  50.3577525  32.9141512  81.1731866  50.5088684  32.7410479
  79.8230836  50.4461546  32.0590159  79.0428138  54.3828189  30.6840050
  78.9039223  54.0146974  31.5565988  78.2542734  54.8975829  30.5124008
  79.6376290  59.4837286  22.0265586  79.8128045  59.0125329  22.8411209
  78.9509078  60.1103052  22.2546847  80.5933353  53.7609792  28.0728888
  80.2583185  53.7210562  28.9686537  80.0937299  53.0954508  27.5999298
  74.5677597  49.1677422  33.5981469  74.4297395  48.4357661  34.1993008
  75.4782520  49.0786322  33.3165656  77.1959897  48.8797381  33.0865148
  77.9059516  48.2390574  33.0451767  77.1529206  49.1310276  34.0091329
  75.9088831  45.8662599  34.9060788  75.3726188  45.4153338  35.5582384
  75.3205540  46.0008508  34.1631252  74.2037375  62.6326649  28.8005446
  74.4433973  63.2645173  29.4784465  73.3606571  62.2814689  29.0870806
  75.3191090  45.3251251  17.4687252  74.4420557  45.2040051  17.1049498
  75.7948843  44.5337329  17.2166140  66.8393231  50.1128410  27.5628759
  67.5264270  49.7990140  26.9749774  66.6841359  51.0169775  27.2896010
  71.6427953  45.0018607  31.9913782  71.5586141  44.3944276  31.2564192
  70.8210659  45.4927625  31.9923279  78.7165237  58.4405771  31.2046950
  78.6435408  59.2460742  31.7166255  78.2742630  58.6397737  30.3794972
  78.5055016  57.6777541  24.7149772  77.7222538  58.2199221  24.8087997
  79.2047762  58.1951521  25.1144013  81.8151667  43.4872170  27.3583977
  82.3120366  42.7342133  27.0385048  81.0438648  43.5236487  26.7927187
  81.1763920  58.3392605  33.3605109  81.8891893  58.9740070  33.2881011
  80.6853949  58.4356471  32.5445111  82.8981447  52.2443858  24.9322401
  81.9637726  52.3645320  24.7627105  83.0758116  51.3416324  24.6682411
  78.3986635  45.6289553  27.0855662  78.0284423  45.0760594  27.7736568
  78.8945728  45.0247687  26.5330662  76.2275834  56.0887048  34.1810680
  76.9285293  56.7223531  34.3340074  75.7570949  56.4301780  33.4206319
  80.9884294  58.6791349  26.1091401  81.1706688  57.8613005  26.5719153
  81.8117280  58.8959041  25.6716291  81.3226459  57.6059534  23.3706449
  81.8514226  57.0951989  22.7576611  81.5854679  57.2902064  24.2351982
  80.0764693  49.3851467  38.4929267  79.4005330  49.2845596  39.1631643
  80.8992327  49.2290681  38.9565265  71.8243552  55.6223404  31.1141783
  72.4096989  54.8767091  31.2469687  71.6268390  55.9327360  31.9978447
  74.6782207  58.6574651  26.1304225  74.0092582  59.1420779  25.6468265
  74.5395077  58.9043871  27.0447604  66.4161207  48.1929004  29.8346226
  66.4545306  47.6592594  30.6283344  65.9101499  47.6664209  29.2157203
  78.8187476  60.6918394  32.7286883  79.3705784  60.8550016  33.4935969
  79.1593669  61.2822832  32.0566908  73.7951969  43.0393544  33.3308768
  73.8593295  43.9008375  32.9186166  73.7319089  42.4267546  32.5981127
  73.2704241  45.1116677  36.9781802  73.8976280  44.7293754  37.5919327
  72.4132160  44.8930879  37.3437495  70.0469784  46.9193106  22.9100157
  70.3423225  46.0103784  22.8567211  69.1457820  46.8980845  22.5881160
  81.9555863  58.6400370  29.7150566  81.8307002  57.8390110  29.2061511
  82.6134954  59.1346563  29.2264536  73.5764031  44.9949102  28.8927706
  72.8550617  45.6085070  28.7535179  74.3657287  45.5306867  28.8144352
  76.3790345  42.3303529  35.1668358  76.9024747  42.5765826  35.9294667
  76.1602678  43.1623564  34.7471495  71.7757626  44.6007204  23.0339482
  71.4470332  43.7204582  22.8514588  72.1296997  44.5454872  23.9215872
  81.0237205  56.2362106  27.5434468  80.8762167  55.3078814  27.7242038
  81.8490698  56.2582197  27.0591543  74.8899449  44.8880173  23.4014960
  75.2295521  45.4166095  22.6793568  75.3371569  45.2260579  24.1773527
  77.5842890  43.2717224  32.8518028  77.2439710  42.4725037  33.2538708
  76.8781896  43.5718935  32.2794861  78.2359362  40.3566536  31.3045351
  79.0585431  39.8827015  31.1824241  78.4797425  41.1357020  31.8044037
  76.8767596  43.3854795  21.6008253  77.5975959  43.7636048  21.0971970
  76.2532900  44.1043672  21.7043231  81.0198719  44.0899944  22.5366585
  81.2362333  44.9724582  22.2355413  80.5392786  43.6986157  21.8072227
  75.7597940  47.0485657  29.1137330  75.6142521  47.3625960  30.0061611
  75.2823144  47.6670557  28.5608228  77.6194323  44.0388205  29.1618219
  77.6055892  43.1429298  28.8250517  78.3366751  44.0458869  29.7956505
  79.4720454  44.4725545  31.2071347  79.2138232  45.3942616  31.2055677
  78.9405494  44.0755980  31.8971811  70.2343603  49.5891002  32.0524991
  69.6897071  50.3650809  32.1845265  71.1122952  49.9361806  31.8944112
  77.0231219  42.9202585  24.4305789  77.1447130  41.9919232  24.6296677
  76.7333262  42.9341271  23.5184105  79.8922410  40.6057496  27.5672509
  79.9144106  40.6696829  26.6124489  80.3090469  39.7662004  27.7613015
  71.0209624  48.7160898  34.9455148  70.2791360  48.8643533  35.5319778
  70.7002369  48.9769163  34.0821897  78.9653287  58.2576876  34.7435538
  79.2740414  58.0126023  35.6158237  79.7628769  58.4623514  34.2554408
  78.9873899  60.4114786  26.9740914  78.5478889  59.9191164  27.6673771
  79.7382016  59.8687753  26.7332990  71.4666238  56.6026327  26.9765542
  72.2924258  56.3030098  26.5964186  71.1160290  55.8333949  27.4255331
  76.4347771  55.9552795  29.0463216  75.8127781  55.2923500  28.7465444
  77.1052638  55.9813927  28.3636864  69.6674843  54.5212653  27.9354476
  68.8306751  54.0934827  27.7538477  69.6398489  54.7145096  28.8725267
  76.5072299  44.4334583  38.6395722  76.5560454  45.3096706  38.2573492
  77.0494813  43.8911976  38.0667365  75.9961278  54.5056718  22.5221677
  76.1449399  55.1892182  21.8688349  76.8027722  54.4861808  23.0371132
  78.7371587  45.1865955  35.3942081  77.8674897  45.4799521  35.1224669
  78.9731068  45.7706400  36.1149344  73.7513911  50.5321896  23.5282745
  73.5059953  49.6284226  23.7262956  73.9209826  50.5339046  22.5862223
  81.4410621  41.4045572  32.9107501  81.9592565  42.1406599  32.5853990
  81.0865754  41.7109565  33.7454260  73.0209559  46.2650253  21.0268907
  72.3278804  46.3394608  20.3708943  72.7761311  45.5010597  21.5490424
  81.6923215  37.8245855  28.4308398  81.9724969  37.1569044  29.0568824
  82.4773822  38.0174950  27.9183061  79.4956684  57.0004849  19.9933424
  78.9230651  57.6195036  19.5403896  80.0689477  57.5504210  20.5273346
  79.8803482  48.3365661  17.3349476  80.8262587  48.2071869  17.4037894
  79.5017727  47.5980323  17.8118905  79.7642175  52.3883407  38.7950133
  80.6845184  52.5662006  38.9890180  79.7291758  51.4439453  38.6429833
  78.0646399  46.2615638  17.2704362  77.1577855  45.9648750  17.3467075
  78.3422380  45.9645456  16.4038648  68.9824340  47.5822001  27.7203408
  68.6627124  46.7287309  27.4277782  68.4357768  47.7970579  28.4761375
  72.7604247  50.2984442  31.4372915  72.9790257  51.2301550  31.4560948
  73.1730021  49.9392416  32.2227718  79.6808465  40.8052527  23.4248603
  78.8709193  40.4599612  23.8003849  80.3692882  40.4960071  24.0136215
  81.6099013  39.8830574  25.0472900  82.1630052  40.3026028  25.7062923
  81.8469100  38.9566322  25.0895856  77.6332113  45.8717648  40.8275664
  77.5328839  46.8212005  40.7587755  77.4153655  45.5435887  39.9551734
  76.8345184  43.1202573  17.4116341  77.6964348  43.4457471  17.6712158
  77.0195528  42.3334069  16.8989407  68.8512600  51.2024913  29.6896530
  68.1576071  50.7878865  29.1766484  69.5985591  51.2445449  29.0929949
  77.4963383  49.3014787  39.6440725  77.0130464  50.1015147  39.8504614
  77.5824322  49.3122732  38.6908169  70.7649342  51.1343166  27.5662545
  70.7420030  51.2330854  26.6144428  71.0749979  51.9808317  27.8879711
  73.4236720  53.1919321  31.6809159  74.3779974  53.1603264  31.6139091
  73.2249244  52.7309945  32.4959385  74.0136102  51.7620437  34.2479957
  74.8328991  52.2564516  34.2714794  74.2872910  50.8452406  34.2197524
  71.7786949  58.7338941  28.6979357  71.6441417  57.9739342  28.1317355
  71.3619011  59.4579841  28.2308146  74.9356075  59.6308258  28.9097799
  74.8188459  60.5753690  28.8076490  74.1148521  59.3281819  29.2983599
  69.2671017  46.0958571  34.9472154  69.9129880  45.5857525  35.4359379
  69.0588168  46.8327253  35.5215579  81.7924409  53.1639419  40.4464294
  82.6615568  53.3380071  40.0850929  81.3131160  53.9833836  40.3240024
  77.7874627  40.3598616  20.6996050  77.7753297  41.3040456  20.8564321
  78.6798049  40.1768761  20.4055511  75.9610589  60.2836520  32.1253728
  76.8637836  60.3160130  32.4420223  75.7347959  59.3536971  32.1400064
  77.7164191  59.0367506  28.7863807  76.7659822  59.0369368  28.6728179
  78.0196677  58.2900241  28.2699841  81.6026746  36.9541393  24.9541987
  80.8359142  36.3999879  25.0998669  82.0137451  37.0263261  25.8156138
  73.6068507  43.2426188  39.0447168  74.4699969  42.8862993  39.2550492
  73.0333918  42.9040083  39.7322572  82.1814238  62.0157935  28.6017813
  81.3913292  62.2715464  28.1257923  82.6725485  62.8306273  28.7069853
  80.4651941  62.2688426  31.0332803  80.7159979  63.1535436  31.2990379
  81.0011489  62.0893027  30.2607895  81.0960983  66.4179418  24.7250280
  81.9336205  66.8276426  24.5083988  81.2739251  65.4778860  24.6950474
  81.1187154  63.7570133  25.3961013  80.9211554  63.1639494  24.6712080
  80.5633818  63.4522343  26.1136952  77.6786985  65.4420328  27.5628759
  78.3658025  65.1282058  26.9749774  77.5235114  66.3461693  27.2896010
  82.4821707  60.3310525  31.9913782  82.3979896  59.7236194  31.2564192
  81.6604414  60.8219543  31.9923279  77.2554961  63.5220921  29.8346226
  77.2939061  62.9884512  30.6283344  76.7495254  62.9956127  29.2157203
  80.8863539  62.2485024  22.9100157  81.1816980  61.3395702  22.8567211
  79.9851574  62.2272763  22.5881160  82.6151380  59.9299121  23.0339482
  82.2864086  59.0496500  22.8514588  82.9690751  59.8746790  23.9215872
  81.0737357  64.9182919  32.0524991  80.5290825  65.6942727  32.1845265
  81.9516707  65.2653724  31.8944112  81.8603379  64.0452815  34.9455148
  81.1185115  64.1935451  35.5319778  81.5396123  64.3061081  34.0821897
  80.5068598  69.8504571  27.9354476  79.6700506  69.4226745  27.7538477
  80.4792243  70.0437014  28.8725267  79.8218094  62.9113919  27.7203408
  79.5020879  62.0579227  27.4277782  79.2751522  63.1262497  28.4761375
  79.6906354  66.5316830  29.6896530  78.9969826  66.1170783  29.1766484
  80.4379345  66.5737367  29.0929949  81.6043097  66.4635084  27.5662545
  81.5813785  66.5622771  26.6144428  81.9143733  67.3100235  27.8879711
  80.1064771  61.4250489  34.9472154  80.7523635  60.9149443  35.4359379
  79.8981922  62.1619171  35.5215579  54.8863038   6.2319542  11.3802551
  54.8087067   7.1827367  11.4591032  54.2824681   5.8865414  12.0377477
  53.5457004   3.7421063  18.7569111  54.0964429   3.6138126  17.9846105
  52.7068480   4.0415952  18.4064004  57.9588782   5.8315573   8.7510893
  58.1340538   5.3603616   9.5656516  57.2721570   6.4581339   8.9792154
  52.5249867   8.9804936  15.5250753  52.7646465   9.6123460  16.2029772
  51.6819064   8.6292976  15.8116112  57.0377729   4.7884058  17.9292257
  56.9647901   5.5939030  18.4411562  56.5955122   4.9876024  17.1040278
  56.8267509   4.0255828  11.4395079  56.0435031   4.5677508  11.5333303
  57.5260254   4.5429808  11.8389320  59.4976413   4.6870892  20.0850416
  60.2104385   5.3218357  20.0126317  59.0066441   4.7834758  19.2690418
  50.1456044   1.9701691  17.8387089  50.7309481   1.2245379  17.9714993
  49.9480883   2.2805647  18.7223753  52.9994699   5.0052938  12.8549532
  52.3305075   5.4899066  12.3713572  52.8607569   5.2522159  13.7692910
  57.1399968   7.0396682  19.4532190  57.6918276   7.2028303  20.2181275
  57.4806161   7.6301120  18.7812215  57.2865779   4.6055163  21.4680844
  57.5952906   4.3604310  22.3403544  58.0841261   4.8101802  20.9799715
  57.3086391   6.7593073  13.6986221  56.8691382   6.2669452  14.3919078
  58.0594508   6.2166041  13.4578296  49.7878730   2.9504614  13.7010849
  50.6136750   2.6508386  13.3209493  49.4372782   2.1812236  14.1500638
  47.9887335   0.8690940  14.6599783  47.1519244   0.4413115  14.4783784
  47.9610981   1.0623384  15.5970574  50.0999441   5.0817228  15.4224663
  49.9653909   4.3217629  14.8562661  49.6831503   5.8058128  14.9553452
  53.2568567   5.9786545  15.6343106  53.1400951   6.9231978  15.5321796
  52.4361013   5.6760107  16.0228905  54.2823081   6.6314807  18.8499035
  55.1850328   6.6638417  19.1665529  54.0560451   5.7015258  18.8645370
  56.0376683   5.3845794  15.5109113  55.0872314   5.3847655  15.3973485
  56.3409169   4.6378528  14.9945148  68.5819083  11.1733760  16.5116400
  68.2437595  11.0574825  15.6236935  69.4508851  10.7724925  16.4917406
  64.4405899  13.0269236  12.5013291  63.8770764  12.9359173  11.7329579
  64.3258294  12.2069141  12.9815784  69.0638866  12.3268612  22.4702606
  69.0527507  11.9321410  21.5983109  69.2259505  11.5934684  23.0636377
  61.9870331  14.5220428  15.3397512  62.7791623  14.1811253  14.9243811
  62.2266981  14.6315403  16.2599665  65.7846127  15.1105724  21.4181790
  65.4935993  16.0151354  21.3028456  66.4203111  15.1522251  22.1325859
  66.7102334  12.4882572  18.0083149  67.3065906  12.2638595  17.2940112
  66.7677306  11.7467318  18.6108597  70.7436012  14.7967139  18.4131583
  70.4436735  15.6992178  18.3047391  70.3987072  14.5299322  19.2652736
  64.1948494  11.2480936  14.4468288  63.2698990  11.1157150  14.6545980
  64.4432907  12.0275155  14.9438230  61.5557305  10.8914209  15.2812077
  61.6849686  11.1448688  16.1951489  60.8754756  11.4841917  14.9616732
  65.7256792  21.5611459  11.3802551  65.6480822  22.5119285  11.4591032
  65.1218436  21.2157332  12.0377477  68.2174022   8.7339325  24.0363918
  67.4407356   9.2933245  24.0266783  68.8564585   9.2196108  24.5578788
  66.4720394  11.5424778  23.5981885  67.2135078  12.0809822  23.3216709
  65.7657380  12.1691067  23.7553437  71.9475734  13.6853919  22.1954047
  72.3559090  13.2436329  21.4508679  71.2252995  13.1106546  22.4488239
  68.3006804   8.6226525  19.5687603  69.1467999   9.0465939  19.7122252
  68.2405441   7.9660150  20.2626167  72.2704548  14.2455109  15.9506335
  71.6413411  14.4100823  15.2482403  71.8830210  14.6596719  16.7217299
  73.4044712  12.8269506  19.9046043  73.6161607  13.4701266  19.2280424
  73.3574460  11.9931823  19.4367973  67.8232510  13.9829517  13.2156420
  68.2870856  14.2617220  12.4261043  67.5589308  13.0812962  13.0329511
  64.7156591  13.5300999  16.1536184  65.2857948  13.9588267  15.5153668
  65.3064703  13.2483584  16.8520369  65.2081758   8.6964426  24.3997195
  64.5780418   9.3780707  24.6332592  65.1017846   8.5847508  23.4550333
  60.5026730   8.3636222  15.3263119  59.7125784   8.6193751  14.8503230
  60.9937978   9.1784560  15.4315160  74.5190540  15.7041462  18.0768400
  75.3407984  15.3021649  17.7951082  74.5152943  15.6009696  19.0284516
  62.4541476   8.7280802  12.2846596  61.6572639   8.8399496  12.8030092
  62.2267068   9.0667454  11.4187486  68.2847143  15.2525505  20.2329111
  68.3491576  15.7145912  21.0687282  67.5758067  14.6222870  20.3611420
  58.7864433   8.6166713  17.7578110  59.0372472   9.5013723  18.0235686
  59.3223982   8.4371314  16.9853202  61.4524558  14.4369050  10.6736016
  61.9649079  15.2312301  10.8241581  62.1047271  13.7395341  10.6069617
  63.2619443  17.5534807  12.7558769  63.4386071  18.4752771  12.5679753
  64.0576277  17.2393226  13.1853149  62.5471800   9.5999439  22.6320932
  62.4325315   8.6984696  22.9328031  61.6916317   9.8463135  22.2805749
  69.6263637  17.5417179  24.2308433  69.1827491  16.7553557  23.9129337
  70.2880851  17.7296329  23.5652324  64.3850758  19.0712981  18.7569111
  64.9358184  18.9430044  17.9846105  63.5462234  19.3707870  18.4064004
  71.7244875  17.8219979  22.2589834  71.7063351  18.6428860  21.7670103
  72.6464795  17.6974054  22.4839975  68.1817930  15.3364108  23.1013343
  68.7146266  14.5752397  22.8712651  67.6532011  15.0437760  23.8437497
  59.4173475  12.7657705  11.4495586  60.2548697  13.1754713  11.2329294
  59.5951743  11.8257147  11.4195780  59.4399646  10.1048420  12.1206320
  59.2424046   9.5117781  11.3957386  58.8846310   9.8000630  12.8382259
  67.4196370   9.9971527  14.2400913  67.4744980   9.0445363  14.1643390
  66.6087572  10.1530966  14.7242211  67.5097308  18.6106343  13.9325557
  67.4673486  18.8367190  13.0034089  68.4260007  18.3769718  14.0811358
  70.9562941   9.0790411  20.8306186  71.3112329   9.3061884  21.6900652
  71.6035073   9.4108788  20.2083441  65.6263108  15.4869372  13.7287519
  66.4203707  14.9919692  13.5270094  64.9154801  14.9587235  13.3655225
  70.4457953  17.8687468  18.0799887  70.4994975  18.4378404  18.8477603
  69.5772734  18.0389353  17.7153924  61.8531421   6.1567267  12.3925514
  62.1138238   7.0712600  12.2834674  62.6748593   5.6891709  12.5422126
  63.3256346   7.5705024  19.5624338  63.9979400   7.3622386  18.9136987
  62.4986133   7.3727110  19.1229571  72.6360716  14.4615817  24.6540552
  72.4846223  14.2326369  23.7370636  72.6265396  15.4186418  24.6671897
  69.4046053  12.0347730  19.6386819  70.3338113  12.1858889  19.4655786
  68.9837083  12.1231751  18.7835465  68.2034384  16.0598394  17.4085356
  68.0645470  15.6917179  18.2811295  67.4148981  16.5746034  17.2369314
  68.7982536  21.1607491   8.7510893  68.9734292  20.6895534   9.5656516
  68.1115324  21.7873257   8.9792154  69.7539600  15.4379997  14.7974194
  69.4189432  15.3980767  15.6931844  69.2543545  14.7724713  14.3244604
  63.7283844  10.8447627  20.3226775  63.5903642  10.1127866  20.9238314
  64.6388767  10.7556527  20.0410963  66.3566144  10.5567586  19.8110455
  67.0665763   9.9160778  19.7697073  66.3135452  10.8080481  20.7336636
  74.3452923  17.4934940  22.7317034  74.2865469  16.8094160  22.0647617
  74.7472441  18.2353930  22.2797660  65.0695078   7.5432804  21.6306094
  64.5332435   7.0923543  22.2827691  64.4811787   7.6778713  20.8876559
  63.3643622  24.3096853  15.5250753  63.6040220  24.9415378  16.2029772
  62.5212818  23.9584893  15.8116112  74.3470330  15.4574524  20.9631014
  73.4597109  15.1200445  21.0857413  74.9168881  14.7257555  21.1999779
  55.9999477  11.7898615  14.2874065  56.6870517  11.4760345  13.6995081
  55.8447606  12.6939980  14.0141317  60.8034199   6.6788812  18.7159089
  60.7192388   6.0714481  17.9809499  59.9816906   7.1697830  18.7168585
  67.8771484  20.1175976  17.9292257  67.8041655  20.9230947  18.4411562
  67.4348877  20.3167942  17.1040278  67.6661263  19.3547746  11.4395079
  66.8828785  19.8969426  11.5333303  68.3654008  19.8721726  11.8389320
  70.3370167  20.0162810  20.0850416  71.0498139  20.6510275  20.0126317
  69.8460196  20.1126676  19.2690418  65.3882081  17.7657253  20.9055987
  66.0891540  18.3993736  21.0585381  64.9177196  18.1071985  20.1451626
  70.1490540  20.3561554  12.8336707  70.3312935  19.5383210  13.2964460
  70.9723526  20.5729246  12.3961597  69.2370940  11.0621672  25.2174574
  68.5611577  10.9615801  25.8876949  70.0598574  10.9060886  25.6810571
  60.9849799  17.2993608  17.8387089  61.5703236  16.5537296  17.9714993
  60.7874637  17.6097565  18.7223753  63.8388454  20.3344856  12.8549532
  63.1698829  20.8190983  12.3713572  63.7001324  20.5814076  13.7692910
  55.5767453   9.8699209  16.5591532  55.6151553   9.3362799  17.3528651
  55.0707746   9.3434414  15.9402510  67.9793723  22.3688599  19.4532190
  68.5312031  22.5320221  20.2181275  68.3199916  22.9593037  18.7812215
  62.4310488   6.7886882  23.7027109  63.0582527   6.4063959  24.3164633
  61.5738407   6.5701084  24.0682801  72.8304597  17.1949857  25.3080844
  73.3744501  17.8079815  24.8135799  72.2491442  17.7529435  25.8247857
  59.2076031   8.5963311   9.6345464  59.5029472   7.6873989   9.5812518
  58.3064067   8.5751050   9.3126466  71.1162110  20.3170575  16.4395872
  70.9913249  19.5160315  15.9306818  71.7741201  20.8116768  15.9509842
  62.7370278   6.6719307  15.6173012  62.0156864   7.2855275  15.4780486
  63.5263534   7.2077072  15.5389658  73.1797018  18.1179595  18.0675422
  72.2327354  17.9984946  17.9953749  73.5279791  17.2302093  18.1501684
  70.1843451  17.9132311  14.2679774  70.0368414  16.9849019  14.4487345
  71.0096945  17.9352402  13.7836850  73.7877573  18.7360870  15.3544647
  74.7124121  18.5303731  15.2169098  73.6192877  18.4877271  16.2633989
  64.9204187   8.7255862  15.8382636  64.7748768   9.0396165  16.7306918
  64.4429391   9.3440762  15.2853535  59.3949849  11.2661206  18.7770298
  58.8503317  12.0421014  18.9090572  60.2729199  11.6132011  18.6189419
  60.1815871  10.3931103  21.6700454  59.4397607  10.5413738  22.2565085
  59.8608615  10.6539368  20.8067204  68.1259534  19.9347081  21.4680844
  68.4346660  19.6896228  22.3403544  68.9235016  20.1393719  20.9799715
  68.1480146  22.0884991  13.6986221  67.7085136  21.5961369  14.3919078
  68.8988263  21.5457958  13.4578296  60.6272485  18.2796531  13.7010849
  61.4530505  17.9800303  13.3209493  60.2766537  17.5104154  14.1500638
  65.5954018  17.6323000  15.7708523  64.9734027  16.9693705  15.4710750
  66.2658885  17.6584132  15.0882170  58.8281090  16.1982858  14.6599783
  57.9912998  15.7705032  14.4783784  58.8004735  16.3915301  15.5970574
  76.1533391  16.6545911  24.6442166  75.3628935  16.6370050  24.1046665
  75.9166746  17.1934205  25.3991202  76.2731266  13.5038377  21.9574894
  76.3229271  13.3388385  22.8990417  76.1645190  12.6365636  21.5672775
  65.1567525  16.1826923   9.2466983  65.3055645  16.8662387   8.5933656
  65.9633968  16.1632013   9.7616439  77.7749463  15.9235319  22.2016916
  77.4834271  16.2865299  23.0380377  77.1621594  15.2102327  22.0230248
  62.9120158  12.2092101  10.2528052  62.6666200  11.3054431  10.4508262
  63.0816072  12.2109251   9.3107530  68.9248421  14.0653612  25.5195440
  69.8451431  14.2432211  25.7135487  68.8898005  13.1209658  25.3675139
  58.1430586   9.2592206  14.4448715  57.8233371   8.4057514  14.1523089
  57.5964015   9.4740784  15.2006682  61.9210494  11.9754647  18.1618221
  62.1396504  12.9071755  18.1806255  62.3336268  11.6162621  18.9473025
  66.7938359   7.5487853  27.5520970  66.6935086   8.4982210  27.4833061
  66.5759901   7.2206092  26.6797040  58.0118846  12.8795117  16.4141836
  57.3182318  12.4649070  15.9011791  58.7591837  12.9215654  15.8175255
  66.6569629  10.9784992  26.3686032  66.1736711  11.7785352  26.5749921
  66.7430568  10.9892936  25.4153476  59.9255589  12.8113371  14.2907851
  59.9026277  12.9101059  13.3389734  60.2356226  13.6578522  14.6125017
  62.5842967  14.8689526  18.4054466  63.5386220  14.8373469  18.3384397
  62.3855490  14.4080150  19.2204691  63.1742349  13.4390642  20.9725263
  63.9935238  13.9334721  20.9960101  63.4479157  12.5222610  20.9442831
  60.9393196  20.4109146  15.4224663  60.8047664  19.6509547  14.8562661
  60.5225258  21.1350046  14.9553452  64.0962322  21.3078463  15.6343106
  63.9794706  22.2523895  15.5321796  63.2754768  21.0052024  16.0228905
  58.4277263   7.7728776  21.6717460  59.0736127   7.2627730  22.1604685
  58.2194414   8.5097458  22.2460886  70.9530655  14.8409624  27.1709601
  71.8221815  15.0150276  26.8096236  70.4737407  15.6604041  27.0485330
  65.1216836  21.9606725  18.8499035  66.0244082  21.9930335  19.1665529
  64.8954206  21.0307176  18.8645370  66.8770438  20.7137711  15.5109113
  65.9266069  20.7139573  15.3973485  67.1802924  19.9670446  14.9945148
  79.4212837  26.5025678  16.5116400  79.0831349  26.3866742  15.6236935
  80.2902606  26.1016843  16.4917406  75.2799653  28.3561154  12.5013291
  74.7164518  28.2651091  11.7329579  75.1652048  27.5361059  12.9815784
  79.9032620  27.6560529  22.4702606  79.8921261  27.2613328  21.5983109
  80.0653260  26.9226602  23.0636377  72.8264085  29.8512346  15.3397512
  73.6185377  29.5103170  14.9243811  73.0660735  29.9607321  16.2599665
  76.6239882  30.4397641  21.4181790  76.3329748  31.3443272  21.3028456
  77.2596866  30.4814169  22.1325859  77.5496088  27.8174490  18.0083149
  78.1459661  27.5930512  17.2940112  77.6071060  27.0759235  18.6108597
  81.5829767  30.1259057  18.4131583  81.2830490  31.0284096  18.3047391
  81.2380826  29.8591240  19.2652736  75.0342248  26.5772854  14.4468288
  74.1092745  26.4449068  14.6545980  75.2826661  27.3567073  14.9438230
  72.3951059  26.2206127  15.2812077  72.5243440  26.4740606  16.1951489
  71.7148511  26.8133835  14.9616732  76.5650546  36.8903377  11.3802551
  76.4874576  37.8411202  11.4591032  75.9612190  36.5449250  12.0377477
  79.0567776  24.0631243  24.0363918  78.2801110  24.6225163  24.0266783
  79.6958339  24.5488026  24.5578788  77.3114149  26.8716696  23.5981885
  78.0528833  27.4101740  23.3216709  76.6051134  27.4982985  23.7553437
  82.7869488  29.0145836  22.1954047  83.1952844  28.5728247  21.4508679
  82.0646750  28.4398464  22.4488239  79.1400558  23.9518443  19.5687603
  79.9861753  24.3757857  19.7122252  79.0799196  23.2952067  20.2626167
  83.1098303  29.5747027  15.9506335  82.4807165  29.7392741  15.2482403
  82.7223965  29.9888637  16.7217299  82.2900004  21.6122812  21.2268777
  82.0460935  22.3664872  20.6903053  82.5659934  21.9908159  22.0616024
  78.6626265  29.3121435  13.2156420  79.1264610  29.5909138  12.4261043
  78.3983063  28.4104880  13.0329511  75.5550346  28.8592917  16.1536184
  76.1251703  29.2880185  15.5153668  76.1458458  28.5775501  16.8520369
  76.0475512  24.0256344  24.3997195  75.4174173  24.7072625  24.6332592
  75.9411600  23.9139426  23.4550333  71.3420485  23.6928140  15.3263119
  70.5519539  23.9485669  14.8503230  71.8331732  24.5076478  15.4315160
  73.2935230  24.0572719  12.2846596  72.4966393  24.1691414  12.8030092
  73.0660822  24.3959372  11.4187486  79.1240898  30.5817423  20.2329111
  79.1885330  31.0437830  21.0687282  78.4151822  29.9514788  20.3611420
  69.6258188  23.9458631  17.7578110  69.8766226  24.8305640  18.0235686
  70.1617736  23.7663232  16.9853202  75.3256255  18.3277110  26.7622446
  74.9323201  17.7743308  27.4370090  76.1422395  18.6387688  27.1528964
  72.2918313  29.7660968  10.6736016  72.8042833  30.5604218  10.8241581
  72.9441026  29.0687259  10.6069617  74.1013198  32.8826724  12.7558769
  74.2779826  33.8044689  12.5679753  74.8970031  32.5685144  13.1853149
  78.2424216  19.7434989  24.3542703  78.9833929  20.3442142  24.2747165
  78.4742139  19.0012627  23.7960745  73.3865554  24.9291356  22.6320932
  73.2719069  24.0276614  22.9328031  72.5310072  25.1755053  22.2805749
  80.4657392  32.8709097  24.2308433  80.0221246  32.0845475  23.9129337
  81.1274605  33.0588247  23.5652324  75.2244513  34.4004898  18.7569111
  75.7751938  34.2721962  17.9846105  74.3855989  34.6999787  18.4064004
  79.0211684  30.6656026  23.1013343  79.5540021  29.9044314  22.8712651
  78.4925765  30.3729678  23.8437497  70.2567230  28.0949622  11.4495586
  71.0942452  28.5046631  11.2329294  70.4345497  27.1549065  11.4195780
  70.2793401  25.4340338  12.1206320  70.0817801  24.8409698  11.3957386
  69.7240065  25.1292548  12.8382259  78.2590124  25.3263444  14.2400913
  78.3138734  24.3737281  14.1643390  77.4481326  25.4822883  14.7242211
  78.3491062  33.9398261  13.9325557  78.3067241  34.1659107  13.0034089
  79.2653761  33.7061635  14.0811358  81.7956696  24.4082328  20.8306186
  82.1506084  24.6353802  21.6900652  82.4428827  24.7400705  20.2083441
  75.6896559  21.5158859  17.6152527  76.3295938  21.3747619  16.9175490
  74.8574090  21.2293373  17.2391129  76.4656863  30.8161290  13.7287519
  77.2597461  30.3211610  13.5270094  75.7548555  30.2879153  13.3655225
  81.2851707  33.1979385  18.0799887  81.3388730  33.7670322  18.8477603
  80.4166489  33.3681270  17.7153924  72.6925175  21.4859184  12.3925514
  72.9531993  22.4004518  12.2834674  73.5142348  21.0183627  12.5422126
  74.1650101  22.8996942  19.5624338  74.8373154  22.6914304  18.9136987
  73.3379887  22.7019028  19.1229571  80.0675673  19.5258883  21.5789999
  79.4203588  20.2248832  21.4854475  80.8376688  19.9595026  21.9466247
  80.2439807  27.3639647  19.6386819  81.1731867  27.5150807  19.4655786
  79.8230837  27.4523668  18.7835465  79.0428139  31.3890312  17.4085356
  78.9039225  31.0209096  18.2811295  78.2542735  31.9037951  17.2369314
  79.6376291  36.4899408   8.7510893  79.8128047  36.0187452   9.5656516
  78.9509079  37.1165175   8.9792154  80.5933354  30.7671915  14.7974194
  80.2583187  30.7272685  15.6931844  80.0937300  30.1016631  14.3244604
  74.5677598  26.1739545  20.3226775  74.4297396  25.4419783  20.9238314
  75.4782522  26.0848445  20.0410963  77.1959899  25.8859504  19.8110455
  77.9059517  25.2452696  19.7697073  77.1529207  26.1372399  20.7336636
  75.9088833  22.8724722  21.6306094  75.3726190  22.4215460  22.2827691
  75.3205541  23.0070631  20.8876559  74.2037376  39.6388771  15.5250753
  74.4433974  40.2707295  16.2029772  73.3606573  39.2876811  15.8116112
  66.8393232  27.1190533  14.2874065  67.5264272  26.8052263  13.6995081
  66.6841360  28.0231898  14.0141317  71.6427954  22.0080730  18.7159089
  71.5586143  21.4006399  17.9809499  70.8210660  22.4989748  18.7168585
  78.7165238  35.4467894  17.9292257  78.6435410  36.2522865  18.4411562
  78.2742631  35.6459859  17.1040278  78.5055018  34.6839664  11.4395079
  77.7222540  35.2261344  11.5333303  79.2047763  35.2013643  11.8389320
  81.1763922  35.3454728  20.0850416  81.8891894  35.9802192  20.0126317
  80.6853950  35.4418594  19.2690418  76.2275835  33.0949171  20.9055987
  76.9285295  33.7285654  21.0585381  75.7570950  33.4363903  20.1451626
  80.9884295  35.6853472  12.8336707  81.1706690  34.8675128  13.2964460
  81.8117281  35.9021164  12.3961597  80.0764694  26.3913590  25.2174574
  79.4005331  26.2907719  25.8876949  80.8992328  26.2352803  25.6810571
  71.8243553  32.6285526  17.8387089  72.4096990  31.8829214  17.9714993
  71.6268392  32.9389483  18.7223753  74.6782208  35.6636774  12.8549532
  74.0092584  36.1482901  12.3713572  74.5395078  35.9105994  13.7692910
  66.4161208  25.1991126  16.5591532  66.4545307  24.6654717  17.3528651
  65.9101501  24.6726332  15.9402510  78.8187477  37.6980517  19.4532190
  79.3705785  37.8612139  20.2181275  79.1593670  38.2884955  18.7812215
  73.7951970  20.0455667  20.0554075  73.8593297  20.9070498  19.6431472
  73.7319090  19.4329668  19.3226433  73.2704243  22.1178799  23.7027109
  73.8976282  21.7355877  24.3164633  72.4132162  21.8993001  24.0682801
  70.0469786  23.9255228   9.6345464  70.3423227  23.0165907   9.5812518
  69.1457821  23.9042968   9.3126466  81.9555864  35.6462493  16.4395872
  81.8307004  34.8452232  15.9306818  82.6134955  36.1408686  15.9509842
  73.5764033  22.0011225  15.6173012  72.8550618  22.6147193  15.4780486
  74.3657288  22.5368990  15.5389658  76.3790346  19.3365652  21.8913664
  76.9024748  19.5827948  22.6539973  76.1602679  20.1685686  21.4716801
  81.0237206  33.2424229  14.2679774  80.8762168  32.3140936  14.4487345
  81.8490699  33.2644320  13.7836850  77.5842891  20.2779347  19.5763335
  77.2439711  19.4787160  19.9784015  76.8781897  20.5781058  19.0040168
  75.7597942  24.0547780  15.8382636  75.6142522  24.3688083  16.7306918
  75.2823145  24.6732680  15.2853535  79.4720455  21.4787668  17.9316653
  79.2138233  22.4004739  17.9300984  78.9405496  21.0818102  18.6217117
  70.2343604  26.5953124  18.7770298  69.6897072  27.3712932  18.9090572
  71.1122954  26.9423929  18.6189419  71.0209626  25.7223020  21.6700454
  70.2791362  25.8705656  22.2565085  70.7002370  25.9831286  20.8067204
  78.9653288  35.2638999  21.4680844  79.2740415  35.0188145  22.3403544
  79.7628770  35.4685637  20.9799715  78.9873900  37.4176908  13.6986221
  78.5478891  36.9253287  14.3919078  79.7382017  36.8749876  13.4578296
  71.4666239  33.6088449  13.7010849  72.2924259  33.3092221  13.3209493
  71.1160291  32.8396072  14.1500638  76.4347773  32.9614917  15.7708523
  75.8127782  32.2985622  15.4710750  77.1052639  32.9876049  15.0882170
  69.6674844  31.5274776  14.6599783  68.8306753  31.0996950  14.4783784
  69.6398490  31.7207219  15.5970574  76.5072300  21.4396705  25.3641029
  76.5560455  22.3158828  24.9818798  77.0494814  20.8974098  24.7912672
  75.9961279  31.5118841   9.2466983  76.1449400  32.1954305   8.5933656
  76.8027723  31.4923931   9.7616439  78.7371588  22.1928078  22.1187387
  77.8674898  22.4861644  21.8469976  78.9731069  22.7768523  22.8394651
  73.7513912  27.5384018  10.2528052  73.5059954  26.6346348  10.4508262
  73.9209827  27.5401169   9.3107530  79.7642176  29.3945530  25.5195440
  80.6845185  29.5724129  25.7135487  79.7291759  28.4501575  25.3675139
  68.9824341  24.5884124  14.4448715  68.6627125  23.7349432  14.1523089
  68.4357769  24.8032702  15.2006682  72.7604249  27.3046565  18.1618221
  72.9790258  28.2363672  18.1806255  73.1730022  26.9454539  18.9473025
  77.6332114  22.8779770  27.5520970  77.5328841  23.8274127  27.4833061
  77.4153656  22.5498009  26.6797040  68.8512601  28.2087035  16.4141836
  68.1576072  27.7940988  15.9011791  69.5985592  28.2507572  15.8175255
  77.4963384  26.3076909  26.3686032  77.0130466  27.1077269  26.5749921
  77.5824323  26.3184854  25.4153476  70.7649344  28.1405289  14.2907851
  70.7420032  28.2392976  13.3389734  71.0749980  28.9870440  14.6125017
  73.4236721  30.1981444  18.4054466  74.3779975  30.1665386  18.3384397
  73.2249245  29.7372068  19.2204691  74.0136104  28.7682560  20.9725263
  74.8328993  29.2626639  20.9960101  74.2872911  27.8514528  20.9442831
  71.7786950  35.7401063  15.4224663  71.6441418  34.9801464  14.8562661
  71.3619012  36.4641963  14.9553452  74.9356076  36.6370380  15.6343106
  74.8188460  37.5815813  15.5321796  74.1148522  36.3343942  16.0228905
  69.2671018  23.1020694  21.6717460  69.9129881  22.5919648  22.1604685
  69.0588169  23.8389376  22.2460886  81.7924410  30.1701541  27.1709601
  82.6615570  30.3442194  26.8096236  81.3131161  30.9895958  27.0485330
  75.9610590  37.2898642  18.8499035  76.8637837  37.3222253  19.1665529
  75.7347960  36.3599093  18.8645370  77.7164192  36.0429629  15.5109113
  76.7659823  36.0431491  15.3973485  78.0196678  35.2962363  14.9945148
  73.6068509  20.2488311  25.7692475  74.4699970  19.8925116  25.9795799
  73.0333919  19.9102206  26.4567879  82.1814239  39.0220058  15.3263119
  81.3913293  39.2777586  14.8503230  82.6725487  39.8368396  15.4315160
  80.4651942  39.2750548  17.7578110  80.7159981  40.1597558  18.0235686
  81.0011491  39.0955150  16.9853202  81.0960984  43.4241540  11.4495586
  81.9336206  43.8338548  11.2329294  81.2739252  42.4840982  11.4195780
  81.1187155  40.7632255  12.1206320  80.9211555  40.1701616  11.3957386
  80.5633819  40.4584466  12.8382259  77.6786986  42.4482451  14.2874065
  78.3658026  42.1344181  13.6995081  77.5235115  43.3523815  14.0141317
  82.4821708  37.3372647  18.7159089  82.3979897  36.7298317  17.9809499
  81.6604415  37.8281666  18.7168585  77.2554962  40.5283044  16.5591532
  77.2939062  39.9946635  17.3528651  76.7495255  40.0018250  15.9402510
  80.8863540  39.2547146   9.6345464  81.1816981  38.3457825   9.5812518
  79.9851576  39.2334886   9.3126466  81.0737358  41.9245042  18.7770298
  80.5290826  42.7004850  18.9090572  81.9516708  42.2715846  18.6189419
  81.8603380  41.0514938  21.6700454  81.1185116  41.1997573  22.2565085
  81.5396124  41.3123204  20.8067204  82.3059994  48.9380367  13.7010849
  83.1318014  48.6384139  13.3209493  81.9554046  48.1687989  14.1500638
  80.5068599  46.8566693  14.6599783  79.6700507  46.4288868  14.4783784
  80.4792244  47.0499137  15.5970574  79.8218095  39.9176041  14.4448715
  79.5020880  39.0641350  14.1523089  79.2751524  40.1324619  15.2006682
  79.6906355  43.5378953  16.4141836  78.9969827  43.1232906  15.9011791
  80.4379346  43.5799489  15.8175255  81.6043098  43.4697207  14.2907851
  81.5813786  43.5684894  13.3389734  81.9143734  44.3162357  14.6125017
  82.6180705  51.0692981  15.4224663  82.4835173  50.3093382  14.8562661
  82.2012767  51.7933881  14.9553452  80.1064772  38.4312612  21.6717460
  80.7523636  37.9211566  22.1604685  79.8981923  39.1681293  22.2460886
   6.7340246  42.7064049  67.5272142   5.9803955  42.1371447  67.3716146
   6.8687788  42.6726714  68.4742777   0.8104392  42.8592686  64.6374285
   0.6722291  43.0494282  63.7095474   0.4540611  43.6212068  65.0942336
   0.8373772  44.9269213  69.6485557   1.2710278  44.8344502  70.4968611
   1.5505352  44.9026713  69.0105573   1.6989321  44.9692913  72.1818442
   1.8925211  45.8738724  72.4277717   1.5989939  44.5100332  73.0157027
   2.9531384  41.5266580  68.8266346   2.9421261  42.4091295  68.4560279
   2.0848764  41.1738131  68.6320883   3.5555994  42.6766799  65.4315809
   3.9987140  41.9274124  65.0334932   2.6782505  42.6676936  65.0489541
   0.5883199  46.6796846  62.4409738   1.1134523  47.0184119  61.7159058
   0.5005551  45.7443862  62.2572873   3.0988859  44.1472038  67.8238256
   3.9335750  44.5861842  67.9875817   3.2347988  43.6710691  67.0046502
   1.3270112  41.8023652  71.1186349   1.2946432  40.8639653  71.3046033
   1.9370735  41.8807689  70.3852174   1.4764600  38.5934696  71.1644633
   0.9603649  37.8093152  70.9774561   2.3604549  38.2653412  71.3291152
   7.1446661  42.8639659  70.2592386   7.8750050  42.6024947  70.8200090
   6.5353607  42.1268381  70.2994454   5.2261959  41.0047522  70.8566837
   4.4995122  40.8703487  70.2483329   4.8109245  41.3124350  71.6623555
   2.8439754  37.2259374  68.2100269   3.4384244  36.9855110  67.4993577
   2.9166337  36.5066504  68.8373805   0.8398488  37.7929501  64.4772399
   0.5835423  37.3926137  65.3080606   0.2151356  38.5073295  64.3522538
   5.1510826  40.5325575  66.9843690   4.5910384  40.6018764  67.7575252
   4.5454330  40.3566559  66.2643186   6.7366845  57.2082089  69.6773646
   7.3745255  57.0888836  68.9736986   6.6187688  58.1562932  69.7361598
   4.9842925  62.6815961  60.9146526   4.3330905  63.2670041  60.5280540
   5.7787288  63.2122156  60.9741564   1.2464830  55.9297764  58.9452111
   1.4990351  55.4079285  58.1835574   0.3089389  55.7663909  59.0478794
   6.2908113  54.9333542  66.7526854   7.0771202  54.5152966  66.4017271
   6.5546818  55.8379635  66.9208502   6.4618191  60.3706393  61.4515511
   5.8264024  60.4441019  62.1636415   6.1315597  60.9599992  60.7734590
  11.6916540  54.8708776  67.6559832  12.4241712  54.3007992  67.8897662
  10.9355896  54.4830376  68.0966338   0.9661119  57.8325870  61.1476486
   0.8497377  57.1570773  61.8157570   1.0763379  57.3458244  60.3308639
   3.3092660  57.2936017  64.8523175   2.9450867  56.7666638  65.5636096
   4.1659776  56.9034486  64.6789660   9.2141961  48.5830350  72.1154441
   8.8825285  49.4525761  71.8915656   8.6187574  48.2666634  72.7948471
   2.9498147  52.3225917  59.8484523   3.1172549  53.1906153  60.2154994
   2.7595316  52.4853198  58.9245813   9.1070624  53.3025436  69.1947791
   8.1987501  53.2340844  68.9006552   9.0558220  53.7797381  70.0229617
   2.9287368  54.7783574  60.8331190   2.8086993  55.2240625  61.6716671
   2.2339956  55.1268892  60.2744728  10.9732270  51.5041874  70.9725665
  10.3306651  51.7974407  70.3265460  10.4687199  51.3894795  71.7778862
   8.6272434  55.2505047  61.6611524   9.5390290  55.4832434  61.4859222
   8.1182081  55.8342092  61.0986603   7.2342016  60.2330866  69.0525106
   6.6050879  60.3976580  68.3501174   6.8467678  60.6472475  69.8236070
  11.1131248  61.1685304  66.4069470  10.4282286  61.5484205  65.8566503
  11.1975098  61.7780630  67.1401417   5.9708409  51.4263083  69.9101385
   5.1092888  51.7244337  70.2018123   5.9970844  51.6433482  68.9782418
   2.7869978  59.9705274  66.3175191   3.2508324  60.2492977  65.5279813
   2.5226776  59.0688719  66.1348282   1.7238864  56.0928426  63.1264756
   2.4262908  56.5449470  63.5938682   1.3919493  55.4512245  63.7544649
  17.5734001  58.0355967  67.5272142  16.8197709  57.4663365  67.3716146
  17.7081542  58.0018631  68.4742777   2.9632629  62.9069369  63.2026861
   2.8278304  63.7520905  63.6311709   3.5042441  63.1088647  62.4392795
   6.3125093  46.4299931  71.7325755   5.9689362  47.3201573  71.6564865
   6.6804055  46.2401589  70.8695340   6.2775375  56.4208542  60.2398190
   5.7621999  57.1913147  60.4786577   6.0052684  55.7473678  60.8631251
   3.8622486  51.2658243  65.2983428   3.0064083  50.8765093  65.1189067
   4.2749438  51.3450204  64.4383214   5.3921633  48.8004586  69.6974988
   4.8886428  48.7634721  68.8842793   5.6852240  49.7097329  69.7571645
   1.6364519  48.8843316  68.7041170   2.5017516  48.6886124  68.3447059
   1.7042028  48.6553668  69.6310526  11.2509649  59.1740897  62.1751363
  10.4739092  58.8352056  61.7306525  11.9301130  59.1793520  61.5006328
   6.0661678  54.2935634  62.0657971   5.7611814  54.6081783  62.9168114
   7.0192121  54.3717054  62.1085304   4.5108110  60.4525857  63.7150925
   3.9829472  59.7178617  63.4024162   4.0095613  61.2300534  63.4690893
   9.4900956  58.6474878  68.8317971   8.8324631  59.3374139  68.9198100
  10.2941355  59.0371310  69.1751958   8.3006415  57.0019251  66.8821913
   8.8138297  57.6349242  67.3843623   8.9507639  56.4020446  66.5165273
   1.5449506  47.9886773  64.8032606   0.8913918  47.6735790  64.1789221
   1.5029980  47.3662513  65.5292429   2.6560710  58.2706068  56.7185898
   1.7487772  58.0395321  56.9177047   3.1531742  57.4743687  56.9059880
   5.5628789  66.9803575  59.6382584   4.8890488  67.2835272  60.2467542
   5.9494611  67.7832655  59.2888041   4.7787246  54.4768706  69.1280254
   3.8609807  54.6983653  68.9701942   5.1947390  54.5515017  68.2691961
   5.5622294  55.8760122  64.2582934   6.3094113  56.3881519  63.9490056
   5.8313883  55.5544175  65.1187327   3.8348944  58.3718663  61.2409888
   2.9260163  58.0877695  61.3382358   3.8644028  58.7917741  60.3813195
   9.0668211  61.9825252  65.0101056   8.6130538  61.1416162  65.0666246
   8.4362178  62.6186650  65.3475836   8.0101131  52.9117238  66.2401723
   7.2723888  52.3994624  66.5711966   8.2627904  52.4717620  65.4285000
   7.5101151  63.8201749  65.9450874   7.8024125  64.3806806  65.2263239
   8.0199771  64.1130310  66.7004033   8.1112758  45.6893490  66.8343492
   8.4171635  44.8290853  66.5469407   8.8365363  46.2811110  66.6342486
   2.3833838  55.9847283  67.3419683   2.4382448  55.0321120  67.2662160
   1.5725040  56.1406722  67.8260982   3.5325032  59.9127406  58.5797967
   3.0944462  59.1963265  58.1203604   4.2735473  60.1403521  58.0183058
  11.6498146  58.1884603  64.6374285  11.5116045  58.3786199  63.7095474
  11.2934365  58.9503986  65.0942336  11.6767526  60.2561130  69.6485557
  12.1104033  60.1636419  70.4968611  12.3899107  60.2318631  69.0105573
  12.5383076  60.2984831  72.1818442  12.7318966  61.2030641  72.4277717
  12.4383694  59.8392250  73.0157027   3.7620004  67.1483247  61.8529663
   3.9371760  66.6771290  62.6675286   3.0752792  67.7749013  62.0810924
   7.6536259  58.7711788  58.1730024   7.0365430  58.0458616  58.0763077
   7.1852748  59.5321148  57.8297098   5.9395381  51.1518132  67.1848054
   6.4364081  50.3988094  66.8649125   5.1682363  51.1882449  66.6191264
  13.7925139  56.8558497  68.8266346  13.7815015  57.7383213  68.4560279
  12.9242518  56.5030048  68.6320883   7.0225162  59.9089819  64.7586478
   6.0881441  60.0291282  64.5891182   7.2001831  59.0062286  64.4946488
   2.5230350  53.2935515  66.9119739   2.1528138  52.7406555  67.6000645
   3.0189443  52.6893648  66.3594739  10.4097713  55.7507138  65.2936512
  10.8758166  56.5835130  65.2196815  10.8605214  55.2852120  65.9981770
   8.4773944  62.0950960  62.2922664   8.7533788  61.9807554  63.2016538
   7.6078443  61.6968445  62.2534837   8.3814376  48.1187725  69.3327413
   7.4677456  48.3491952  69.5009620   8.8107478  48.2026170  70.1841446
   8.1520835  56.3077617  71.8327307   7.4992285  56.5553525  71.1779760
   8.5301215  55.4941756  71.4989785   5.4470174  65.2705496  63.1970526
   5.9757940  64.7597950  62.5840688   5.7098394  64.9548026  64.0616059
   8.7515041  64.7236626  68.4563418   9.6761589  64.5179488  68.3187869
   8.5830345  64.4753028  69.3652759   2.3603076  48.0212498  71.1309428
   3.1829146  47.5472976  71.0088318   2.6041140  48.8002982  71.6308114
   1.0011311  51.0500756  61.4272330   1.7219673  51.4282009  60.9236047
   0.3776615  51.7689633  61.5307308   5.1442434  51.7545905  62.3630662
   5.3606048  52.6370543  62.0619490   4.6636501  51.3632119  61.6336304
   1.7438038  51.7034167  68.9882296   1.7299607  50.8075260  68.6514594
   2.4610466  51.7104830  69.6220582   3.5964169  52.1371507  71.0335424
   3.3381947  53.0588577  71.0319754   3.0649209  51.7401941  71.7235888
   8.5410358  65.2422294  63.8125509   8.7147235  64.6768716  63.0599362
   9.0339249  66.0423189  63.6304999   1.1474934  50.5848547  64.2569866
   1.2690845  49.6565193  64.4560754   0.8576976  50.5987233  63.3448182
   4.0166124  48.2703457  67.3936586   4.0387821  48.3342790  66.4388566
   4.4334183  47.4307966  67.5877092  14.3949749  58.0058717  65.4315809
  14.8380895  57.2566042  65.0334932  13.5176259  57.9968853  65.0489541
   9.5285530  64.5589058  60.9122407  10.2236435  65.1795751  61.1309722
   9.8708680  63.7084410  61.1874785  11.4276953  62.0088764  62.4409738
  11.9528277  62.3476037  61.7159058  11.3399306  61.0735779  62.2572873
  13.9382613  59.4763955  67.8238256  14.7729505  59.9153759  67.9875817
  14.0741742  59.0002608  67.0046502  10.9874119  57.0343690  73.7715744
  11.4628241  57.2271336  72.9634596  10.0639685  57.0902876  73.5259128
   5.5654336  49.0691534  72.7371578   6.0836280  49.8052561  72.4118067
   5.2109469  49.3755527  73.5718337   5.8166930  45.4891816  68.2572475
   6.0968684  44.8215005  68.8832901   6.6017537  45.6820912  67.7447138
   3.6200398  64.6650810  59.8197501   3.0474366  65.2840997  59.3667973
   4.1933192  65.2150172  60.3537423   9.6875788  53.9109450  72.0044050
  10.6393211  54.0107548  72.0256274   9.5179239  53.1187719  72.5142134
   7.7090168  50.9965033  72.1903451   7.1140100  51.2770046  71.4949939
   7.4239865  51.4858934  72.9620192   6.8397658  64.9487960  60.9506083
   7.7728331  64.8833522  61.1538959   6.7520871  65.7844227  60.4920616
   9.4685675  64.2653831  57.9110031   9.3899306  63.9313694  58.8045789
  10.2895342  64.7575598  57.9101503  12.1663866  57.1315570  71.1186349
  12.1340186  56.1931571  71.3046033  12.7764490  57.2099607  70.3852174
   4.0047197  56.0011623  57.1613553   4.9506302  55.8717831  57.2301971
   3.6261442  55.2626285  57.6382982  12.3158355  53.9226613  71.1644633
  11.7997403  53.1385070  70.9774561  13.1998303  53.5945330  71.3291152
   9.9769082  47.6667629  67.1240445   9.7793903  47.3582717  68.0083777
  10.5868787  48.3929268  67.2538375  17.9840416  58.1931577  70.2592386
  18.7143804  57.9316865  70.8200090  17.3747361  57.4560299  70.2994454
  16.0655713  56.3339439  70.8566837  15.3388877  56.1995404  70.2483329
  15.6503000  56.6416268  71.6623555   2.1890114  53.9261599  57.0968439
   1.2821570  53.6294712  57.1731152   2.4666095  53.6291417  56.2302725
   3.8052180  48.4698489  63.2512680   2.9952908  48.1245574  63.6267926
   4.4936597  48.1606033  63.8400292   5.7342728  47.5476536  64.8736977
   6.2873767  47.9671989  65.5327000   5.9712815  46.6212284  64.9159933
   0.9588899  50.7848534  57.2380418   1.8208063  51.1103433  57.4976235
   1.1439243  49.9980030  56.7253484   9.1121535  49.6577061  64.3815641
   8.5320204  50.3161865  63.9993693   8.8457468  48.8354405  63.9703058
   7.5625102  49.0582119  66.5836961   8.0624880  49.1698653  65.7751280
   8.2060710  48.7543171  67.2237770   7.8946413  51.8177151  63.4371989
   7.0072268  52.1026802  63.2192184   8.3100402  51.6570915  62.5899266
  11.2460949  51.8423672  67.1526328  12.0221340  52.3320125  67.4250945
  10.5209084  52.2681726  67.6098198  13.6833508  52.5551291  68.2100269
  14.2777999  52.3147027  67.4993577  13.7560092  51.8358422  68.8373805
   7.0389627  61.5821826  57.5320009   7.7425477  61.7871828  58.1477665
   6.3152275  62.1498588  57.7969093   7.8687437  57.3331687  63.6522279
   7.8122638  57.7900239  62.8129912   8.4215779  56.5722372  63.4745122
  11.6792243  53.1221419  64.4772399  11.4229177  52.7218055  65.3080606
  11.0545111  53.8365213  64.3522538  15.9904581  55.8617492  66.9843690
  15.4304139  55.9310682  67.7575252  15.3848084  55.6858477  66.2643186
   8.9476324  62.0204355  59.5818469   9.7821928  61.5885554  59.3995944
   8.7860667  61.8486369  60.5095364   8.6022216  58.5236468  60.9474808
   8.5471020  58.3580740  60.0063253   7.9768272  59.2312501  61.1036998
   1.9118342  48.0244577  60.5260127   1.8997012  48.9686417  60.6828398
   2.8041764  47.8414723  60.2319588   5.7270461  44.6187354  64.7806064
   4.9602857  44.0645841  64.9262746   6.1381166  44.6909223  65.6420215
  17.5760599  72.5374006  69.6773646  18.2139009  72.4180754  68.9736986
  17.4581442  73.4854850  69.7361598  12.0858585  71.2589682  58.9452111
  12.3384106  70.7371203  58.1835574  11.1483144  71.0955827  59.0478794
  17.1301868  70.2625460  66.7526854  17.9164957  69.8444883  66.4017271
  17.3940572  71.1671552  66.9208502  17.3011945  75.6998310  61.4515511
  16.6657778  75.7732937  62.1636415  16.9709351  76.2891909  60.7734590
  22.5310295  70.2000693  67.6559832  23.2635467  69.6299910  67.8897662
  21.7749651  69.8122294  68.0966338  11.8054874  73.1617788  61.1476486
  11.6891132  72.4862691  61.8157570  11.9157134  72.6750162  60.3308639
  14.1486415  72.6227935  64.8523175  13.7844622  72.0958556  65.5636096
  15.0053530  72.2326404  64.6789660  20.0535715  63.9122267  72.1154441
  19.7219040  64.7817678  71.8915656  19.4581329  63.5958551  72.7948471
  13.7891902  67.6517834  59.8484523  13.9566304  68.5198071  60.2154994
  13.5989071  67.8145116  58.9245813  19.9464379  68.6317354  69.1947791
  19.0381256  68.5632762  68.9006552  19.8951974  69.1089298  70.0229617
  13.7681122  70.1075492  60.8331190  13.6480748  70.5532543  61.6716671
  13.0733711  70.4560810  60.2744728  21.8126025  66.8333792  70.9725665
  21.1700405  67.1266325  70.3265460  21.3080953  66.7186712  71.7778862
  19.4666189  70.5796965  61.6611524  20.3784045  70.8124352  61.4859222
  18.9575836  71.1634009  61.0986603  18.0735771  75.5622784  69.0525106
  17.4444633  75.7268498  68.3501174  17.6861433  75.9764393  69.8236070
  21.9525003  76.4977221  66.4069470  21.2676041  76.8776123  65.8566503
  22.0368852  77.1072548  67.1401417  16.8102163  66.7555001  69.9101385
  15.9486642  67.0536255  70.2018123  16.8364598  66.9725400  68.9782418
  13.6263733  75.2997192  66.3175191  14.0902078  75.5784895  65.5279813
  13.3620531  74.3980636  66.1348282  12.5632619  71.4220344  63.1264756
  13.2656662  71.8741388  63.5938682  12.2313247  70.7804163  63.7544649
  28.4127755  73.3647884  67.5272142  27.6591464  72.7955282  67.3716146
  28.5475297  73.3310549  68.4742777  17.1518847  61.7591849  71.7325755
  16.8083116  62.6493490  71.6564865  17.5197810  61.5693506  70.8695340
  17.1169130  71.7500460  60.2398190  16.6015753  72.5205064  60.4786577
  16.8446438  71.0765596  60.8631251  14.7016241  66.5950160  65.2983428
  13.8457837  66.2057011  65.1189067  15.1143193  66.6742121  64.4383214
  16.2315387  64.1296504  69.6974988  15.7280183  64.0926639  68.8842793
  16.5245994  65.0389246  69.7571645  12.4758273  64.2135233  68.7041170
  13.3411270  64.0178042  68.3447059  12.5435782  63.9845585  69.6310526
  22.0903404  74.5032814  62.1751363  21.3132847  74.1643974  61.7306525
  22.7694885  74.5085437  61.5006328  16.9055433  69.6227552  62.0657971
  16.6005568  69.9373701  62.9168114  17.8585875  69.7008972  62.1085304
  20.3294711  73.9766796  68.8317971  19.6718385  74.6666057  68.9198100
  21.1335110  74.3663228  69.1751958  10.0820592  66.4437441  66.0757536
  10.6564344  66.2212623  65.3430729  10.6691575  66.5126136  66.8286138
  19.1400170  72.3311168  66.8821913  19.6532051  72.9641160  67.3843623
  19.7901393  71.7312364  66.5165273  10.4090179  68.4741902  60.0953422
   9.5727492  68.8116589  60.4162696  10.2694949  68.3390882  59.1580559
  12.3843260  63.3178690  64.8032606  11.7307672  63.0027707  64.1789221
  12.3423734  62.6954431  65.5292429  13.4954465  73.5997985  56.7185898
  12.5881527  73.3687239  56.9177047  13.9925497  72.8035605  56.9059880
  15.6181000  69.8060624  69.1280254  14.7003562  70.0275571  68.9701942
  16.0341144  69.8806934  68.2691961  16.4016048  71.2052039  64.2582934
  17.1487867  71.7173437  63.9490056  16.6707638  70.8836092  65.1187327
  14.6742698  73.7010580  61.2409888  13.7653918  73.4169613  61.3382358
  14.7037782  74.1209659  60.3813195  19.9061966  77.3117170  65.0101056
  19.4524293  76.4708080  65.0666246  19.2755932  77.9478568  65.3475836
  18.8494885  68.2409156  66.2401723  18.1117642  67.7286542  66.5711966
  19.1021659  67.8009537  65.4285000  18.9506513  61.0185408  66.8343492
  19.2565389  60.1582771  66.5469407  19.6759117  61.6103028  66.6342486
  13.2227592  71.3139201  67.3419683  13.2776202  70.3613037  67.2662160
  12.4118794  71.4698640  67.8260982  14.3718786  75.2419324  58.5797967
  13.9338216  74.5255183  58.1203604  15.1129227  75.4695439  58.0183058
  11.1619952  69.9316261  65.1010062  10.3487818  70.2310431  65.5075254
  11.6578947  69.5371949  65.8184545  22.4891901  73.5176521  64.6374285
  22.3509800  73.7078117  63.7095474  22.1328120  74.2795904  65.0942336
  22.5161281  75.5853048  69.6485557  22.9497787  75.4928337  70.4968611
  23.2292861  75.5610548  69.0105573   7.7377094  70.9480128  62.9066042
   6.8074683  70.8864584  63.1236005   7.8334566  70.4256081  62.1102684
   7.6562643  67.4734941  65.4944284   7.9169461  68.3880274  65.3853445
   8.4779816  67.0059384  65.6440897  23.3776830  75.6276749  72.1818442
  23.5712720  76.5322559  72.4277717  23.2777448  75.1684168  73.0157027
  18.4930014  74.1003706  58.1730024  17.8759184  73.3750534  58.0763077
  18.0246502  74.8613066  57.8297098  10.2828560  68.3189130  57.2951329
   9.4058026  68.1977931  56.9313575  10.7586313  67.5275208  57.0430217
  16.7789136  66.4810050  67.1848054  17.2757835  65.7280012  66.8649125
  16.0076117  66.5174366  66.6191264  24.6318893  72.1850415  68.8266346
  24.6208769  73.0675131  68.4560279  23.7636273  71.8321966  68.6320883
  17.8618917  75.2381737  64.7586478  16.9275195  75.3583199  64.5891182
  18.0395585  74.3354204  64.4946488  13.3624105  68.6227433  66.9119739
  12.9921892  68.0698473  67.6000645  13.8583197  68.0185566  66.3594739
  21.2491468  71.0799056  65.2936512  21.7151920  71.9127048  65.2196815
  21.6998968  70.6144038  65.9981770  19.3167699  77.4242877  62.2922664
  19.5927543  77.3099472  63.2016538  18.4472198  77.0260362  62.2534837
  19.2208131  63.4479643  69.3327413  18.3071210  63.6783870  69.5009620
  19.6501232  63.5318087  70.1841446  18.9914589  71.6369535  71.8327307
  18.3386039  71.8845443  71.1779760  19.3694969  70.8233673  71.4989785
   5.0107254  69.9130985  62.7364234   5.3060695  69.0041663  62.6831288
   4.1095289  69.8918725  62.4145237   6.7395095  67.5945083  62.8603559
   6.4107801  66.7142462  62.6778665   7.0934466  67.5392751  63.7479949
   9.8536918  67.8818053  63.2279037  10.1932991  68.4103974  62.5057645
  10.3009039  68.2198459  64.0037604  13.1996831  63.3504416  71.1309428
  14.0222900  62.8764894  71.0088318  13.4434894  64.1294899  71.6308114
  11.8405065  66.3792674  61.4272330  12.5613428  66.7573927  60.9236047
  11.2170370  67.0981551  61.5307308  15.9836188  67.0837823  62.3630662
  16.1999803  67.9662461  62.0619490  15.5030255  66.6924036  61.6336304
  12.5831793  67.0326084  68.9882296  12.5693361  66.1367178  68.6514594
  13.3004221  67.0396748  69.6220582  14.4357923  67.4663425  71.0335424
  14.1775701  68.3880495  71.0319754  13.9042964  67.0693859  71.7235888
  11.9868688  65.9140465  64.2569866  12.1084600  64.9857111  64.4560754
  11.6970731  65.9279151  63.3448182  14.8559879  63.5995375  67.3936586
  14.8781576  63.6634708  66.4388566  15.2727938  62.7599884  67.5877092
  25.2343503  73.3350635  65.4315809  25.6774649  72.5857960  65.0334932
  24.3570013  73.3260771  65.0489541  22.2670708  77.3380682  62.4409738
  22.7922032  77.6767954  61.7159058  22.1793060  76.4027697  62.2572873
  24.7776368  74.8055873  67.8238256  25.6123259  75.2445677  67.9875817
  24.9135497  74.3294526  67.0046502  21.8267874  72.3635608  73.7715744
  22.3021995  72.5563254  72.9634596  20.9033439  72.4194794  73.5259128
   8.7151380  73.5259775  63.3546822   8.4697422  72.6222105  63.5527033
   8.8847295  73.5276925  62.4126300  16.4048090  64.3983451  72.7371578
  16.9230034  65.1344478  72.4118067  16.0503223  64.7047445  73.5718337
   7.9847028  69.2588132  60.8532984   7.2916273  69.3332487  60.1973020
   7.7398780  68.4948476  61.3754501  16.6560684  60.8183734  68.2572475
  16.9362438  60.1506923  68.8832901  17.4411291  61.0112829  67.7447138
  20.5269543  69.2401368  72.0044050  21.4786966  69.3399465  72.0256274
  20.3572993  68.4479636  72.5142134  18.5483922  66.3256951  72.1903451
  17.9533854  66.6061964  71.4949939  18.2633619  66.8150852  72.9620192
  23.0057621  72.4607487  71.1186349  22.9733941  71.5223488  71.3046033
  23.6158244  72.5391524  70.3852174  14.8440951  71.3303540  57.1613553
  15.7900056  71.2009749  57.2301971  14.4655196  70.5918202  57.6382982
  23.1552109  69.2518531  71.1644633  22.6391158  68.4676988  70.9774561
  24.0392058  68.9237248  71.3291152  28.8234170  73.5223494  70.2592386
  29.5537559  73.2608782  70.8200090  28.2141116  72.7852216  70.2994454
  26.9049468  71.6631357  70.8566837  26.1782631  71.5287322  70.2483329
  26.4896754  71.9708186  71.6623555  13.0283869  69.2553517  57.0968439
  12.1215324  68.9586630  57.1731152  13.3059850  68.9583335  56.2302725
  14.6445934  63.7990407  63.2512680  13.8346663  63.4537492  63.6267926
  15.3330351  63.4897950  63.8400292  16.5736483  62.8768453  64.8736977
  17.1267521  63.2963907  65.5327000  16.8106569  61.9504201  64.9159933
  11.7982653  66.1140452  57.2380418  12.6601817  66.4395350  57.4976235
  11.9832997  65.3271948  56.7253484  19.9515290  64.9868979  64.3815641
  19.3713959  65.6453783  63.9993693  19.6851222  64.1646323  63.9703058
  18.4018856  64.3874036  66.5836961  18.9018634  64.4990571  65.7751280
  19.0454464  64.0835089  67.2237770  18.7340168  67.1469069  63.4371989
  17.8466023  67.4318720  63.2192184  19.1494157  66.9862832  62.5899266
  22.0854704  67.1715590  67.1526328  22.8615094  67.6612042  67.4250945
  21.3602838  67.5973644  67.6098198  24.5227263  67.8843209  68.2100269
  25.1171753  67.6438945  67.4993577  24.5953846  67.1650340  68.8373805
  18.7081191  72.6623605  63.6522279  18.6516393  73.1192156  62.8129912
  19.2609534  71.9014289  63.4745122  22.5185997  68.4513337  64.4772399
  22.2622932  68.0509972  65.3080606  21.8938865  69.1657131  64.3522538
  26.8298335  71.1909410  66.9843690  26.2697893  71.2602599  67.7575252
  26.2241839  71.0150395  66.2643186  19.7870079  77.3496273  59.5818469
  20.6215683  76.9177471  59.3995944  19.6254422  77.1778286  60.5095364
  19.4415971  73.8528386  60.9474808  19.3864775  73.6872658  60.0063253
  18.8162026  74.5604419  61.1036998  12.7512096  63.3536495  60.5260127
  12.7390766  64.2978335  60.6828398  13.6435518  63.1706641  60.2319588
  16.5664216  59.9479272  64.7806064  15.7996612  59.3937758  64.9262746
  16.9774921  60.0201141  65.6420215  30.8929470  79.2414185  72.1154441
  30.5612794  80.1109596  71.8915656  30.2975083  78.9250469  72.7948471
  32.6519779  82.1625710  70.9725665  32.0094160  82.4558243  70.3265460
  32.1474708  82.0478630  71.7778862  27.9912601  77.0883766  71.7325755
  27.6476871  77.9785408  71.6564865  28.3591564  76.8985424  70.8695340
  27.0709142  79.4588421  69.6974988  26.5673937  79.4218557  68.8842793
  27.3639749  80.3681164  69.7571645  23.2237015  78.6470608  64.8032606
  22.5701427  78.3319625  64.1789221  23.1817489  78.0246348  65.5292429
  29.7900267  76.3477325  66.8343492  30.0959144  75.4874689  66.5469407
  30.5152872  76.9394946  66.6342486  30.0601885  78.7771561  69.3327413
  29.1464965  79.0075788  69.5009620  30.4894987  78.8610005  70.1841446
  24.0390585  78.6796333  71.1309428  24.8616655  78.2056812  71.0088318
  24.2828649  79.4586817  71.6308114  25.6953633  78.9287293  67.3936586
  25.7175330  78.9926626  66.4388566  26.1121692  78.0891801  67.5877092
  27.2441845  79.7275369  72.7371578  27.7623789  80.4636396  72.4118067
  26.8896978  80.0339362  73.5718337  27.4954439  76.1475651  68.2572475
  27.7756193  75.4798841  68.8832901  28.2805046  76.3404747  67.7447138
  31.6556591  78.3251464  67.1240445  31.4581412  78.0166552  68.0083777
  32.2656296  79.0513103  67.2538375  25.4839689  79.1282324  63.2512680
  24.6740417  78.7829409  63.6267926  26.1724106  78.8189868  63.8400292
  27.4130237  78.2060371  64.8736977  27.9661276  78.6255824  65.5327000
  27.6500323  77.2796119  64.9159933  30.7909044  80.3160896  64.3815641
  30.2107713  80.9745700  63.9993693  30.5244977  79.4938241  63.9703058
  29.2412611  79.7165954  66.5836961  29.7412389  79.8282488  65.7751280
  29.8848219  79.4127007  67.2237770  35.3621017  83.2135127  68.2100269
  35.9565508  82.9730863  67.4993577  35.4347601  82.4942257  68.8373805
  27.4057970  75.2771189  64.7806064  26.6390366  74.7229676  64.9262746
  27.8168675  75.3493058  65.6420215   6.7340248  19.7126172  54.2517448
   5.9803956  19.1433570  54.0961453   6.8687789  19.6788836  55.1988083
   0.8104393  19.8654808  51.3619592   0.6722292  20.0556404  50.4340781
   0.4540612  20.6274191  51.8187643   0.8373773  21.9331335  56.3730863
   1.2710279  21.8406624  57.2213917   1.5505354  21.9088836  55.7350879
   1.6989322  21.9755036  58.9063749   1.8925212  22.8800846  59.1523024
   1.5989941  21.5162455  59.7402334   2.9531386  18.5328702  55.5511653
   2.9421262  19.4153418  55.1805586   2.0848765  18.1800253  55.3566190
   3.5555995  19.6828922  52.1561115   3.9987142  18.9336247  51.7580239
   2.6782506  19.6739058  51.7734847   0.5883200  23.6858969  49.1655045
   1.1134524  24.0246242  48.4404365   0.5005552  22.7505984  48.9818179
   0.3974981  21.1684339  61.7838971   0.4472986  21.0034346  62.7254494
   0.2888904  20.3011598  61.3936852   1.8993178  23.5881280  62.0280993
   1.6077986  23.9511261  62.8644454   1.2865309  22.8748289  61.8494325
   3.0988860  21.1534160  54.5483563   3.9335752  21.5923964  54.7121123
   3.2347989  20.6772813  53.7291809   1.3270113  18.8085775  57.8431656
   1.2946433  17.8701775  58.0291340   1.9370737  18.8869811  57.1097481
   1.4764601  15.5996818  57.8889939   0.9603650  14.8155275  57.7019868
   2.3604550  15.2715535  58.0536459   7.1446663  19.8701782  56.9837693
   7.8750051  19.6087070  57.5445396   6.5353608  19.1330504  57.0239761
   5.2261960  18.0109644  57.5812144   4.4995123  17.8765609  56.9728636
   4.8109247  18.3186473  58.3868862   2.8439755  14.2321496  54.9345576
   3.4384246  13.9917232  54.2238884   2.9166338  13.5128627  55.5619112
   0.8398490  14.7991624  51.2017705   0.5835424  14.3988260  52.0325913
   0.2151358  15.5135418  51.0767845   5.1510828  17.5387697  53.7088997
   4.5910386  17.6080887  54.4820559   4.5454331  17.3628682  52.9888493
   6.7366846  34.2144211  56.4018953   7.3745256  34.0950958  55.6982293
   6.6187689  35.1625055  56.4606905   3.5456552  34.1671639  56.3380477
   3.2075064  34.0512704  55.4501012   4.4146320  33.7662804  56.3181483
   4.0276335  35.3206491  62.2966683   4.0164976  34.9259289  61.4247186
   4.1896975  34.5872564  62.8900454   4.9842927  39.6878083  47.6391833
   4.3330906  40.2732164  47.2525847   5.7787289  40.2184278  47.6986871
   0.7483596  38.1043603  61.2445867   0.4573462  39.0089234  61.1292533
   1.3840581  38.1460130  61.9589936   1.6739803  35.4820451  57.8347226
   2.2703376  35.2576474  57.1204189   1.7314775  34.7405197  58.4372674
   1.2464832  32.9359887  45.6697417   1.4990352  32.4141408  44.9080880
   0.3089391  32.7726032  45.7724101   6.2908114  31.9395665  53.4772161
   7.0771204  31.5215088  53.1262578   6.5546819  32.8441757  53.6453809
   6.4618192  37.3768515  48.1760817   5.8264025  37.4503142  48.8881722
   6.1315598  37.9662114  47.4979897  11.6916542  31.8770898  54.3805139
  12.4241714  31.3070115  54.6142969  10.9355897  31.4892499  54.8211645
   0.9661120  34.8387993  47.8721792   0.8497378  34.1632896  48.5402877
   1.0763380  34.3520367  47.0553945   3.3092661  34.2998140  51.5768482
   2.9450869  33.7728761  52.2881403   4.1659777  33.9096609  51.4034967
   9.2141962  25.5892472  58.8399748   8.8825287  26.4587883  58.6160963
   8.6187575  25.2728756  59.5193778   2.9498148  29.3288039  46.5729830
   3.1172551  30.1968276  46.9400301   2.7595317  29.4915321  45.6491119
   5.7073481  37.7905018  58.2395660   5.4074205  38.6930057  58.1311468
   5.3624541  37.5237202  59.0916813   9.1070625  30.3087558  55.9193098
   8.1987503  30.2402967  55.6251859   9.0558221  30.7859503  56.7474923
   2.9287369  31.7845697  47.5576497   2.8086994  32.2302748  48.3961977
   2.2339958  32.1331015  46.9990035   3.1811491  31.7277204  63.8627995
   2.4044825  32.2871124  63.8530860   3.8202054  32.2133987  64.3842865
  10.9732272  28.5103997  57.6970972  10.3306652  28.8036530  57.0510766
  10.4687200  28.3956917  58.5024168   8.6272435  32.2567170  48.3856831
   9.5390291  32.4894557  48.2104528   8.1182082  32.8404214  47.8231910
   1.4357863  34.5362657  63.4245962   2.1772548  35.0747701  63.1480786
   0.7294849  35.1628946  63.5817514   6.9113203  36.6791798  62.0218124
   7.3196559  36.2374208  61.2772756   6.1890465  36.1044425  62.2752316
   3.2644273  31.6164405  59.3951680   4.1105468  32.0403818  59.5386329
   3.2042911  30.9598029  60.0890244   7.2342018  37.2392989  55.7770412
   6.6050880  37.4038703  55.0746480   6.8467680  37.6534598  56.5481376
  11.1131250  38.1747426  53.1314776  10.4282288  38.5546328  52.5811809
  11.1975099  38.7842753  53.8646724   6.4143718  29.2768773  61.0532854
   6.1704650  30.0310834  60.5167130   6.6903649  29.6554121  61.8880101
   8.3682181  35.8207385  59.7310120   8.5799076  36.4639145  59.0544501
   8.3211929  34.9869702  59.2632050   5.9708410  28.4325206  56.6346692
   5.1092889  28.7306460  56.9263429   5.9970845  28.6495605  55.7027724
   2.7869980  36.9767397  53.0420497   3.2508325  37.2555100  52.2525120
   2.5226778  36.0750841  52.8593588   1.7238866  33.0990549  49.8510063
   2.4262909  33.5511593  50.3183989   1.3919494  32.4574368  50.4789956
   9.4828009  38.6979341  57.9032477  10.3045453  38.2959528  57.6215159
   9.4790412  38.5947575  58.8548593   3.2484613  38.2463384  60.0593188
   3.3129045  38.7083791  60.8951359   2.5395536  37.6160749  60.1875497
   2.9632630  39.9131492  49.9272168   2.8278305  40.7583027  50.3557016
   3.5042443  40.1150769  49.1638102   2.3667931  27.4080951  64.1806780
   3.1077644  28.0088104  64.1011242   2.5985854  26.6658588  63.6224822
   4.5901107  40.5355058  64.0572510   4.1464961  39.7491437  63.7393414
   5.2518320  40.7234209  63.3916401   6.6882345  40.8157858  62.0853911
   6.6700820  41.6366739  61.5934180   7.6102265  40.6911933  62.3104052
   3.1455399  38.3301988  62.9277420   3.6783736  37.5690276  62.6976728
   2.6169480  38.0375639  63.6701574   6.3125094  23.4362053  58.4571061
   5.9689363  24.3263695  58.3810172   6.6804056  23.2463711  57.5940646
   6.2775376  33.4270665  46.9643496   5.7622000  34.1975269  47.2031884
   6.0052685  32.7535801  47.5876558   3.8622488  28.2720365  52.0228735
   3.0064084  27.8827216  51.8434374   4.2749439  28.3512326  51.1628520
   5.3921634  25.8066709  56.4220295   4.8886430  25.7696844  55.6088100
   5.6852241  26.7159451  56.4816951   1.6364520  25.8905438  55.4286476
   2.5017517  25.6948247  55.0692366   1.7042029  25.6615790  56.3555833
  11.2509651  36.1803019  48.8996670  10.4739093  35.8414179  48.4551832
  11.9301132  36.1855642  48.2251635   6.0661680  31.2997757  48.7903278
   5.7611815  31.6143906  49.6413421   7.0192122  31.3779177  48.8330611
   4.5108112  37.4587980  50.4396232   3.9829473  36.7240740  50.1269469
   4.0095614  38.2362656  50.1936200   9.4900958  35.6537000  55.5563278
   8.8324632  36.3436262  55.6443407  10.2941357  36.0433432  55.8997264
   8.3006416  34.0081373  53.6067220   8.8138298  34.6411365  54.1088929
   8.9507640  33.4082569  53.2410580   1.5449507  24.9948895  51.5277913
   0.8913919  24.6797912  50.9034527   1.5029981  24.3724636  52.2537735
   2.6560712  35.2768190  43.4431205   1.7487773  35.0457444  43.6422354
   3.1531744  34.4805810  43.6305186   5.5628791  43.9865697  46.3627891
   4.8890489  44.2897394  46.9712849   5.9494613  44.7894778  46.0133348
   4.7787247  31.4830829  55.8525560   3.8609809  31.7045776  55.6947248
   5.1947391  31.5577139  54.9937268   5.5622295  32.8822244  50.9828240
   6.3094114  33.3943642  50.6735362   5.8313884  32.5606297  51.8432634
   3.8348945  35.3780785  47.9655195   2.9260164  35.0939818  48.0627664
   3.8644029  35.7979864  47.1058502   9.0668213  38.9887375  51.7346362
   8.6130540  38.1478285  51.7911553   8.4362179  39.6248773  52.0721142
   8.0101132  29.9179361  52.9647030   7.2723889  29.4056747  53.2957272
   8.2627906  29.4779742  52.1530307   7.5101152  40.8263871  52.6696180
   7.8024126  41.3868928  51.9508546   8.0199772  41.1192432  53.4249340
   8.1112759  22.6955613  53.5588799   8.4171636  21.8352976  53.2714714
   8.8365364  23.2873233  53.3587793   2.3833839  32.9909406  54.0664990
   2.4382449  32.0383242  53.9907467   1.5725041  33.1468845  54.5506288
   3.5325033  36.9189529  45.3043273   3.0944463  36.2025388  44.8448911
   4.2735474  37.1465644  44.7428365   2.4734777  41.6044222  53.7589634
   2.4310956  41.8305069  52.8298166   3.3897476  41.3707597  53.9075435
   5.9200411  32.0728290  60.6570263   6.2749798  32.2999763  61.5164729
   6.5672542  32.4046667  60.0347518  11.6498148  35.1946726  51.3619592
  11.5116046  35.3848322  50.4340781  11.2934367  35.9566109  51.8187643
  11.6767527  37.2623253  56.3730863  12.1104034  37.1698542  57.2213917
  12.3899108  37.2380753  55.7350879   5.4095422  40.8625347  57.9063964
   5.4632445  41.4316283  58.6741680   4.5410204  41.0327232  57.5418001
  12.5383077  37.3046953  58.9063749  12.7318967  38.2092764  59.1523024
  12.4383695  36.8454373  59.7402334   4.1919388  27.1904844  61.4054076
   3.5447303  27.8894794  61.3118552   4.9620403  27.6240988  61.7730324
   7.5998186  37.4553696  64.4804629   7.4483692  37.2264248  63.5634713
   7.5902865  38.4124298  64.4935974   4.3683522  35.0285609  59.4650896
   5.2975582  35.1796769  59.2919863   3.9474552  35.1169630  58.6099542
   3.1671854  39.0536273  57.2349433   3.0282939  38.6855058  58.1075372
   2.3786450  39.5683913  57.0633391   3.7620006  44.1545370  48.5774970
   3.9371761  43.6833413  49.3920593   3.0752794  44.7811136  48.8056231
   4.7177069  38.4317876  54.6238271   4.3826902  38.3918646  55.5195921
   4.2181015  37.7662592  54.1508681   7.6536261  35.7773910  44.8975331
   7.0365431  35.0520739  44.8008384   7.1852749  36.5383271  44.5542405
   1.3203614  33.5505465  59.6374532   2.0303232  32.9098658  59.5961150
   1.2772922  33.8018360  60.5600713   9.3090392  40.4872819  62.5581111
   9.2502938  39.8032039  61.8911694   9.7109911  41.2291809  62.1061737
   9.3107799  38.4512403  60.7895091   8.4234578  38.1138325  60.9121490
   9.8806351  37.7195434  61.0263856   2.8408953  43.1113855  57.7556334
   2.7679124  43.9168827  58.2675639   2.3986346  43.3105821  56.9304356
   2.6298732  42.3485625  51.2659156   1.8466254  42.8907305  51.3597380
   3.3291478  42.8659605  51.6653397   5.9395383  28.1580255  53.9093361
   6.4364082  27.4050217  53.5894431   5.1682364  28.1944571  53.3436570
  13.7925140  33.8620620  55.5511653  13.7815016  34.7445336  55.1805586
  12.9242519  33.5092171  55.3566190   5.3007636  43.0100689  59.9114493
   6.0135609  43.6448154  59.8390394   4.8097665  43.1064555  59.0954495
   7.0225163  36.9151942  51.4831784   6.0881442  37.0353404  51.3136489
   7.2001832  36.0124409  51.2191794   2.5230351  30.2997638  53.6365046
   2.1528139  29.7468678  54.3245951   3.0189444  29.6955771  53.0840046
  10.4097715  32.7569261  52.0181819  10.8758167  33.5897253  51.9442121
  10.8605215  32.2914243  52.7227077   8.4773946  39.1013082  49.0167971
   8.7533790  38.9869677  49.9261845   7.6078444  38.7030567  48.9780144
   8.3814377  25.1249848  56.0572720   7.4677457  25.3554075  56.2254927
   8.8107479  25.2088292  56.9086752   8.1520836  33.3139740  58.5572614
   7.4992286  33.5615647  57.9025067   8.5301216  32.5003878  58.2235091
   5.1128010  43.3499433  52.6600784   5.2950404  42.5321089  53.1228537
   5.9360996  43.5667125  52.2225674   5.4470175  42.2767618  49.9215833
   5.9757942  41.7660073  49.3085995   5.7098395  41.9610149  50.7861366
   4.2008409  34.0559551  65.0438651   3.5249046  33.9553680  65.7141026
   5.0236043  33.8998765  65.5074648   2.9431192  45.3626479  59.2796267
   3.4949500  45.5258100  60.0445352   3.2837385  45.9530916  58.6076292
   7.7942066  40.1887736  65.1344921   8.3381970  40.8017694  64.6399876
   7.2128911  40.7467314  65.6511934   6.0799579  43.3108454  56.2659949
   5.9550719  42.5098194  55.7570895   6.7378670  43.8054647  55.7773919
   8.1434487  41.1117474  57.8939499   7.1964823  40.9922825  57.8217826
   8.4917261  40.2239972  57.9765761   0.5034061  27.0011613  61.7177741
   1.0268463  27.2473910  62.4804050   0.2846394  27.8331648  61.2980879
   5.1480921  40.9070190  54.0943851   5.0005883  39.9786898  54.2751422
   5.9734414  40.9290281  53.6100927   8.7515043  41.7298749  55.1808724
   9.6761590  41.5241610  55.0433175   8.5830346  41.4815150  56.0898066
   1.7086606  27.9425308  59.4027412   1.3683426  27.1433121  59.8048092
   1.0025612  28.2427019  58.8304245   2.3603078  25.0274621  57.8554735
   3.1829147  24.5535099  57.7333625   2.6041141  25.8065104  58.3553421
   1.0011312  28.0562879  48.1517636   1.7219675  28.4344132  47.6481353
   0.3776616  28.7751756  48.2552614   5.1442435  28.7608028  49.0875969
   5.3606049  29.6432666  48.7864797   4.6636502  28.3694241  48.3581611
   1.7438039  28.7096289  55.7127603   1.7299608  27.8137383  55.3759901
   2.4610467  28.7166953  56.3465889   3.5964170  29.1433629  57.7580730
   3.3381948  30.0650700  57.7565061   3.0649210  28.7464064  58.4481194
   8.5410359  42.2484417  50.5370816   8.7147236  41.6830839  49.7844668
   9.0339250  43.0485311  50.3550306   1.1474935  27.5910669  50.9815173
   1.2690846  26.6627316  51.1806061   0.8576978  27.6049355  50.0693488
   4.0166126  25.2765580  54.1181893   4.0387822  25.3404913  53.1633872
   4.4334185  24.4370089  54.3122399  14.3949750  35.0120839  52.1561115
  14.8380896  34.2628165  51.7580239  13.5176260  35.0030976  51.7734847
   9.5285531  41.5651181  47.6367714  10.2236436  42.1857874  47.8555029
   9.8708681  40.7146532  47.9120092  11.4276954  39.0150886  49.1655045
  11.9528278  39.3538159  48.4404365  11.3399307  38.0797902  48.9818179
   3.0897003  42.9284960  61.2944921   3.3984130  42.6834107  62.1667621
   3.8872485  43.1331599  60.8063792   3.1117615  45.0822870  53.5250298
   2.6722605  44.5899248  54.2183155   3.8625732  44.5395837  53.2842373
   0.6316015  29.1042667  65.1905106   0.6804170  29.9804790  64.8082875
   1.1738529  28.5620060  64.6176749  11.1170860  39.6483790  64.4706243
  10.3266404  39.6307929  63.9310742  10.8804215  40.1872084  65.2255279
  11.2368736  36.4976256  61.7838971  11.2866740  36.3326264  62.7254494
  11.1282659  35.6303516  61.3936852   8.5272498  32.4807185  63.0998278
   9.4282361  32.3413649  62.8082276   8.6020472  32.6461639  64.0396455
   2.8615303  29.8574039  61.9451464   1.9918613  30.1507605  61.6734053
   3.0974784  30.4414484  62.6658728  12.7386932  38.9173198  62.0280993
  12.4471741  39.2803179  62.8644454  12.1259064  38.2040206  61.8494325
  13.9382615  36.4826078  54.5483563  14.7729506  36.9215882  54.7121123
  14.0741743  36.0064731  53.7291809  10.9874121  34.0405813  60.4961051
  11.4628242  34.2333459  59.6879902  10.0639686  34.0964998  60.2504434
   5.5654337  26.0753656  59.4616885   6.0836281  26.8114683  59.1363373
   5.2109470  26.3817649  60.2963644   5.8166931  22.4953939  54.9817781
   6.0968685  21.8277128  55.6078208   6.6017538  22.6883034  54.4692445
   3.6200400  41.6712933  46.5442808   3.0474367  42.2903120  46.0913279
   4.1933193  42.2212294  47.0782730   9.6875790  30.9171573  58.7289356
  10.6393212  31.0169670  58.7501580   9.5179240  30.1249841  59.2387441
   7.7090169  28.0027156  58.9148757   7.1140101  28.2832169  58.2195246
   7.4239866  28.4921057  59.6865498   6.8397660  41.9550083  47.6751390
   7.7728333  41.8895644  47.8784265   6.7520872  42.7906350  47.2165923
   9.4685676  41.2715953  44.6355337   9.3899308  40.9375817  45.5291095
  10.2895343  41.7637721  44.6346810  12.1663867  34.1377692  57.8431656
  12.1340187  33.1993693  58.0291340  12.7764491  34.2161729  57.1097481
   4.0047198  33.0073745  43.8858860   4.9506303  32.8779953  43.9547278
   3.6261443  32.2688407  44.3628288  12.3158356  30.9288736  57.8889939
  11.7997405  30.1447192  57.7019868  13.1998304  30.6007452  58.0536459
   9.9769083  24.6729751  53.8485752   9.7793904  24.3644840  54.7329084
  10.5868788  25.3991390  53.9783682  16.0655714  33.3401562  57.5812144
  15.3388878  33.2057527  56.9728636  15.6503001  33.6478390  58.3868862
   3.8885891  37.0591492  65.3459517   4.8088900  37.2370091  65.5399564
   3.8535474  36.1147537  65.1939216   2.1890115  30.9323722  43.8213745
   1.2821571  30.6356834  43.8976459   2.4666096  30.6353540  42.9548032
   3.8052181  25.4760611  49.9757987   2.9952909  25.1307696  50.3513233
   4.4936598  25.1668155  50.5645598   5.7342729  24.5538658  51.5982283
   6.2873768  24.9734112  52.2572306   5.9712816  23.6274406  51.6405239
   1.7575829  30.5425732  67.3785047   1.6572556  31.4920089  67.3097138
   1.5397371  30.2143971  66.5061117   0.9588900  27.7910657  43.9625724
   1.8208064  28.1165555  44.2221542   1.1439244  27.0042153  43.4498790
   9.1121536  26.6639183  51.1060947   8.5320206  27.3223987  50.7239000
   8.8457469  25.8416528  50.6948365   7.5625103  26.0644241  53.3082268
   8.0624881  26.1760776  52.4996587   8.2060711  25.7605294  53.9483076
   1.6207099  33.9722871  66.1950109   1.1374180  34.7723231  66.4013998
   1.7068038  33.9830816  65.2417553   7.8946415  28.8239274  50.1617296
   7.0072270  29.1088924  49.9437491   8.3100404  28.6633037  49.3144573
  11.2460951  28.8485795  53.8771635  12.0221341  29.3382247  54.1496252
  10.5209085  29.2743849  54.3343504  13.6833509  29.5613414  54.9345576
  14.2778000  29.3209150  54.2238884  13.7560093  28.8420545  55.5619112
   7.0389628  38.5883949  44.2565316   7.7425478  38.7933951  44.8722971
   6.3152277  39.1560710  44.5214399   7.8687438  34.3393810  50.3767586
   7.8122640  34.7962361  49.5375218   8.4215781  33.5784494  50.1990429
  11.6792244  30.1283542  51.2017705  11.4229178  29.7280177  52.0325913
  11.0545112  30.8427336  51.0767845  15.9904582  32.8679615  53.7088997
  15.4304140  32.9372804  54.4820559  15.3848085  32.6920600  52.9888493
   8.9476325  39.0266478  46.3063776   9.7821929  38.5947676  46.1241251
   8.7860668  38.8548491  47.2340670   8.6022218  35.5298591  47.6720115
   8.5471021  35.3642862  46.7308559   7.9768273  36.2374624  47.8282305
   5.9168125  37.8347503  66.9973678   6.7859284  38.0088155  66.6360313
   5.4374876  38.6541920  66.8749407   1.9118343  25.0306700  47.2505433
   1.8997013  25.9748540  47.4073704   2.8041765  24.8476845  46.9564895
   1.8407907  43.7075590  55.3373190   0.8903538  43.7077452  55.2237562
   2.1440393  42.9608325  54.8209225   5.7270462  21.6249477  51.5051370
   4.9602858  21.0707963  51.6508053   6.1381167  21.6971345  52.3665522
  17.5760600  49.5436129  56.4018953  18.2139010  49.4242876  55.6982293
  17.4581443  50.4916973  56.4606905  14.3850307  49.4963557  56.3380477
  14.0468818  49.3804622  55.4501012  15.2540075  49.0954722  56.3181483
  10.2437122  51.3499033  52.3277368   9.6801988  51.2588970  51.5593656
  10.1289517  50.5298938  52.8079861  14.8670090  50.6498409  62.2966683
  14.8558731  50.2551207  61.4247186  15.0290729  49.9164481  62.8900454
   7.7901554  52.8450225  55.1661589   8.5822846  52.5041050  54.7507888
   8.0298205  52.9545200  56.0863742  15.8236681  55.0170001  47.6391833
  15.1724661  55.6024081  47.2525847  16.6181044  55.5476196  47.6986871
   9.7492308  52.1059138  48.0378967  10.5223184  51.5588125  47.8991843
  10.1017707  52.9703388  48.2493429  11.5877351  53.4335520  61.2445867
  11.2967217  54.3381151  61.1292533  12.2234335  53.4752048  61.9589936
  12.5133558  50.8112369  57.8347226  13.1097130  50.5868391  57.1204189
  12.5708529  50.0697114  58.4372674  12.0858586  48.2651804  45.6697417
  12.3384107  47.7433326  44.9080880  11.1483145  48.1017950  45.7724101
  17.1301869  47.2687583  53.4772161  17.9164958  46.8507006  53.1262578
  17.3940573  48.1733675  53.6453809  17.3011946  52.7060433  48.1760817
  16.6657779  52.7795059  48.8881722  16.9709353  53.2954032  47.4979897
  22.5310296  47.2062816  54.3805139  23.2635468  46.6362033  54.6142969
  21.7749652  46.8184416  54.8211645  11.8054875  50.1679910  47.8721792
  11.6891133  49.4924814  48.5402877  11.9157135  49.6812284  47.0553945
  14.1486416  49.6290057  51.5768482  13.7844623  49.1020678  52.2881403
  15.0053532  49.2388526  51.4034967  20.0535716  40.9184390  58.8399748
  19.7219041  41.7879801  58.6160963  19.4581330  40.6020674  59.5193778
  13.7891903  44.6579957  46.5729830  13.9566305  45.5260193  46.9400301
  13.5989072  44.8207239  45.6491119  16.5467236  53.1196936  58.2395660
  16.2467959  54.0221975  58.1311468  16.2018295  52.8529119  59.0916813
   9.9979717  49.5710733  54.2732365   9.0730214  49.4386947  54.4810057
  10.2464131  50.3504952  54.7702307  19.9464380  45.6379476  55.9193098
  19.0381257  45.5694885  55.6251859  19.8951976  46.1151421  56.7474923
  13.7681124  47.1137615  47.5576497  13.6480749  47.5594665  48.3961977
  13.0733712  47.4622932  46.9990035   7.3588528  49.2144006  55.1076154
   7.4880910  49.4678485  56.0215566   6.6785980  49.8071714  54.7880809
  11.5288016  59.8841256  51.2066628  11.4512045  60.8349081  51.2855109
  10.9249659  59.5387129  51.8641554  14.0205246  47.0569122  63.8627995
  13.2438580  47.6163042  63.8530860  14.6595809  47.5425905  64.3842865
  21.8126026  43.8395915  57.6970972  21.1700406  44.1328448  57.0510766
  21.3080955  43.7248835  58.5024168  19.4666190  47.5859088  48.3856831
  20.3784046  47.8186474  48.2104528  18.9575837  48.1696132  47.8231910
  12.2751618  49.8654575  63.4245962  13.0166302  50.4039619  63.1480786
  11.5688603  50.4920864  63.5817514  17.7506957  52.0083716  62.0218124
  18.1590314  51.5666126  61.2772756  17.0284219  51.4336343  62.2752316
  14.1038028  46.9456322  59.3951680  14.9499223  47.3695736  59.5386329
  14.0436665  46.2889947  60.0890244  18.0735772  52.5684906  55.7770412
  17.4444635  52.7330620  55.0746480  17.6861434  52.9826516  56.5481376
  21.9525004  53.5039344  53.1314776  21.2676042  53.8838245  52.5811809
  22.0368853  54.1134671  53.8646724  17.2537473  44.6060691  61.0532854
  17.0098405  45.3602751  60.5167130  17.5297403  44.9846038  61.8880101
  19.2075936  51.1499303  59.7310120  19.4192831  51.7931063  59.0544501
  19.1605684  50.3161620  59.2632050  16.8102165  43.7617124  56.6346692
  15.9486644  44.0598377  56.9263429  16.8364599  43.9787523  55.7027724
  13.6263734  52.3059314  53.0420497  14.0902080  52.5847017  52.2525120
  13.3620532  51.4042759  52.8593588  10.5187815  51.8530796  55.9800261
  11.0889172  52.2818064  55.3417745  11.1095927  51.5713381  56.6784446
  12.5632620  48.4282467  49.8510063  13.2656663  48.8803510  50.3183989
  12.2313249  47.7866286  50.4789956  11.0112982  47.0194223  64.2261272
  10.3811642  47.7010504  64.4596669  10.9049069  46.9077305  63.2814410
   6.3057954  46.6866019  55.1527196   5.5157008  46.9423548  54.6767307
   6.7969201  47.5014357  55.2579237  20.3221764  54.0271258  57.9032477
  21.1439207  53.6251446  57.6215159  20.3184166  53.9239493  58.8548593
   8.2572699  47.0510599  52.1110673   7.4603863  47.1629293  52.6294169
   8.0298292  47.3897251  51.2451563  14.0878367  53.5755302  60.0593188
  14.1522800  54.0375709  60.8951359  13.3789291  52.9452667  60.1875497
   4.5895657  46.9396510  57.5842187   4.8403695  47.8243520  57.8499763
   5.1255205  46.7601111  56.8117279  28.4127757  50.3710007  54.2517448
  27.6591465  49.8017405  54.0961453  28.5475298  50.3372671  55.1988083
  13.8026385  55.2423409  49.9272168  13.6672059  56.0874945  50.3557016
  14.3436197  55.4442687  49.1638102  10.2893724  41.3214989  66.5886523
   9.8960670  40.7681188  67.2634167  11.1059865  41.6325568  66.9793041
   7.2555782  52.7598847  50.5000093   7.7680303  53.5542098  50.6505658
   7.9078495  52.0625138  50.4333694   9.0650667  55.8764604  52.5822846
   9.2417295  56.7982568  52.3943830   9.8607500  55.5623023  53.0117226
  13.2061685  42.7372868  64.1806780  13.9471399  43.3380021  64.1011242
  13.4379608  41.9950506  63.6224822   8.3503023  47.9229235  62.4585009
   8.2356538  47.0214493  62.7592108   7.4947541  48.1692932  62.1069826
  15.4294861  55.8646976  64.0572510  14.9858715  55.0783354  63.7393414
  16.0912075  56.0526126  63.3916401  10.1881982  57.3942777  58.5833188
  10.7389407  57.2659841  57.8110182   9.3493458  57.6937666  58.2328081
  17.5276099  56.1449776  62.0853911  17.5094574  56.9658657  61.5934180
  18.4496019  56.0203851  62.3104052  13.9849153  53.6593905  62.9277420
  14.5177490  52.8982193  62.6976728  13.4563234  53.3667557  63.6701574
  17.1518848  38.7653971  58.4571061  16.8083118  39.6555613  58.3810172
  17.5197811  38.5755629  57.5940646   5.2204699  51.0887502  51.2759663
   6.0579921  51.4984510  51.0593371   5.3982967  50.1486944  51.2459857
  17.1169131  48.7562582  46.9643496  16.6015754  49.5267187  47.2031884
  16.8446439  48.0827718  47.5876558  14.7016242  43.6012283  52.0228735
  13.8457838  43.2119133  51.8434374  15.1143194  43.6804244  51.1628520
  16.2315389  41.1358626  56.4220295  15.7280184  41.0988761  55.6088100
  16.5245996  42.0451369  56.4816951  12.4758275  41.2197356  55.4286476
  13.3411271  41.0240165  55.0692366  12.5435783  40.9907708  56.3555833
  22.0903405  51.5094937  48.8996670  21.3132848  51.1706096  48.4551832
  22.7694886  51.5147560  48.2251635  16.9055434  46.6289674  48.7903278
  16.6005570  46.9435824  49.6413421  17.8585876  46.7071094  48.8330611
  15.3501866  52.7879898  50.4396232  14.8223228  52.0532657  50.1269469
  14.8489369  53.5654574  50.1936200  20.3294712  50.9828918  55.5563278
  19.6718386  51.6728180  55.6443407  21.1335111  51.3725350  55.8997264
  10.0820594  43.4499564  52.8002843  10.6564346  43.2274745  52.0676036
  10.6691576  43.5188258  53.5531444  19.1400171  49.3373291  53.6067220
  19.6532053  49.9703283  54.1088929  19.7901395  48.7374486  53.2410580
  10.4090181  45.4804025  46.8198728   9.5727493  45.8178712  47.1408003
  10.2694950  45.3453005  45.8825865  12.3843261  40.3240813  51.5277913
  11.7307674  40.0089830  50.9034527  12.3423735  39.7016553  52.2537735
  13.4954466  50.6060108  43.4431205  12.5881528  50.3749361  43.6422354
  13.9925498  49.8097727  43.6305186  16.4022545  59.3157615  46.3627891
  15.7284244  59.6189312  46.9712849  16.7888367  60.1186695  46.0133348
  15.6181002  46.8122746  55.8525560  14.7003563  47.0337693  55.6947248
  16.0341145  46.8869057  54.9937268  16.4016049  48.2114162  50.9828240
  17.1487868  48.7235559  50.6735362  16.6707639  47.8898215  51.8432634
  14.6742700  50.7072703  47.9655195  13.7653919  50.4231736  48.0627664
  14.7037783  51.1271781  47.1058502  19.9061967  54.3179292  51.7346362
  19.4524294  53.4770202  51.7911553  19.2755934  54.9540691  52.0721142
  18.8494887  45.2471278  52.9647030  18.1117643  44.7348665  53.2957272
  19.1021660  44.8071660  52.1530307  18.3494906  56.1555789  52.6696180
  18.6417881  56.7160846  51.9508546  18.8593527  56.4484350  53.4249340
   5.2430870  48.4278217  51.9470397   5.0455270  47.8347578  51.2221463
   4.6877534  48.1230427  52.6646336  13.2227594  48.3201323  54.0664990
  13.2776203  47.3675160  53.9907467  12.4118796  48.4760763  54.5506288
  14.3718787  52.2481446  45.3043273  13.9338217  51.5317305  44.8448911
  15.1129228  52.4757561  44.7428365  11.1619954  46.9378383  51.8255369
  10.3487819  47.2372554  52.2320561  11.6578948  46.5434072  52.5429851
  13.3128531  56.9336140  53.7589634  13.2704710  57.1596986  52.8298166
  14.2291230  56.6999515  53.9075435  16.7594165  47.4020208  60.6570263
  17.1143553  47.6291681  61.5164729  17.4066296  47.7338584  60.0347518
  22.4891902  50.5238644  51.3619592  22.3509801  50.7140239  50.4340781
  22.1328121  51.2858026  51.8187643  10.6534028  44.5096739  57.4416604
  11.2933408  44.3685498  56.7439567   9.8211559  44.2231252  57.0655206
  22.5161282  52.5915171  56.3730863  22.9497788  52.4990460  57.2213917
  23.2292863  52.5672671  55.7350879  11.4294332  53.8099169  53.5551596
  12.2234931  53.3149489  53.3534171  10.7186025  53.2817032  53.1919302
  16.2489177  56.1917265  57.9063964  16.3026199  56.7608201  58.6741680
  15.3803958  56.3619150  57.5418001   7.7377096  47.9542251  49.6311349
   6.8074684  47.8926706  49.8481311   7.8334568  47.4318204  48.8347990
   7.6562645  44.4797064  52.2189591   7.9169462  45.3942397  52.1098751
   8.4779817  44.0121506  52.3686204   9.1287570  45.8934821  59.3888415
   9.8010624  45.6852183  58.7401064   8.3017357  45.6956907  58.9493648
  23.3776831  52.6338871  58.9063749  23.5712721  53.5384682  59.1523024
  23.2777450  52.1746290  59.7402334  15.0313142  42.5196762  61.4054076
  14.3841057  43.2186711  61.3118552  15.8014158  42.9532906  61.7730324
  18.4391940  52.7845614  64.4804629  18.2877446  52.5556166  63.5634713
  18.4296620  53.7416215  64.4935974  15.2077276  50.3577527  59.4650896
  16.1369336  50.5088686  59.2919863  14.7868306  50.4461547  58.6099542
  14.0065608  54.3828191  57.2349433  13.8676694  54.0146975  58.1075372
  13.2180204  54.8975831  57.0633391  14.6013760  59.4837288  48.5774970
  14.7765516  59.0125331  49.3920593  13.9146548  60.1103054  48.8056231
  15.5570823  53.7609794  54.6238271  15.2220656  53.7210564  55.5195921
  15.0574769  53.0954510  54.1508681   9.5315067  49.1677424  60.1490852
   9.3934865  48.4357663  60.7502391  10.4419991  49.0786324  59.8675040
  18.4930015  51.1065828  44.8975331  17.8759186  50.3812656  44.8008384
  18.0246503  51.8675188  44.5542405  12.1597368  48.8797383  59.6374532
  12.8696987  48.2390575  59.5961150  12.1166676  49.1310278  60.5600713
  20.1484147  55.8164736  62.5581111  20.0896693  55.1323957  61.8911694
  20.5503665  56.5583726  62.1061737  10.8726302  45.8662601  61.4570172
  10.3363659  45.4153339  62.1091768  10.2843010  46.0008510  60.7140636
   9.1674845  62.6326650  55.3514830   9.4071444  63.2645174  56.0293849
   8.3244042  62.2814690  55.6380189  10.2828561  45.3251252  44.0196635
   9.4058027  45.2040053  43.6558882  10.7586314  44.5337331  43.7675524
  20.1501554  53.7804320  60.7895091  19.2628333  53.4430242  60.9121490
  20.7200105  53.0487352  61.0263856   1.8030701  50.1128412  54.1138142
   2.4901741  49.7990142  53.5259158   1.6478830  51.0169777  53.8405394
   6.6065423  45.0018609  58.5423166   6.5223612  44.3944278  57.8073576
   5.7848130  45.4927627  58.5432662  13.6802707  58.4405773  57.7556334
  13.6072879  59.2460744  58.2675639  13.2380100  58.6397739  56.9304356
  13.4692487  57.6777543  51.2659156  12.6860009  58.2199223  51.3597380
  14.1685232  58.1951522  51.6653397  16.7789137  43.4872172  53.9093361
  17.2757837  42.7342135  53.5894431  16.0076119  43.5236489  53.3436570
  24.6318894  49.1912538  55.5511653  24.6208771  50.0737253  55.1805586
  23.7636274  48.8384089  55.3566190  16.1401391  58.3392607  59.9114493
  16.8529363  58.9740072  59.8390394  15.6491420  58.4356473  59.0954495
  17.8618918  52.2443859  51.4831784  16.9275197  52.3645322  51.3136489
  18.0395586  51.3416326  51.2191794  13.3624106  45.6289555  53.6365046
  12.9921893  45.0760596  54.3245951  13.8583198  45.0247689  53.0840046
  21.2491469  48.0861179  52.0181819  21.7151921  48.9189170  51.9442121
  21.6998970  47.6206160  52.7227077  11.1913304  56.0887050  60.7320064
  11.8922764  56.7223533  60.8849458  10.7208419  56.4301782  59.9715703
  19.3167700  54.4305000  49.0167971  19.5927544  54.3161595  49.9261845
  18.4472199  54.0322485  48.9780144  18.9914590  48.6431658  58.5572614
  18.3386041  48.8907565  57.9025067  19.3694970  47.8295796  58.2235091
  15.9521764  58.6791351  52.6600784  16.1344159  57.8613007  53.1228537
  16.7754750  58.8959043  52.2225674  16.2863930  57.6059536  49.9215833
  16.8151696  57.0951991  49.3085995  16.5492149  57.2902066  50.7861366
  15.0402163  49.3851469  65.0438651  14.3642800  49.2845598  65.7141026
  15.8629797  49.2290682  65.5074648   6.7881022  55.6223405  57.6651166
   7.3734459  54.8767093  57.7979070   6.5905861  55.9327362  58.5487830
   9.6419678  58.6574653  52.6813609   8.9730053  59.1420780  52.1977649
   9.5032547  58.9043873  53.5956987   1.3798677  48.1929006  56.3855609
   1.4182777  47.6592596  57.1792728   0.8738970  47.6664211  55.7666587
  13.7824946  60.6918396  59.2796267  14.3343254  60.8550018  60.0445352
  14.1231140  61.2822834  58.6076292   8.7589440  43.0393546  59.8818152
   8.8230766  43.9008377  59.4695549   8.6956560  42.4267548  59.1490510
   8.2341712  45.1116679  63.5291186   8.8613751  44.7293756  64.1428710
   7.3769631  44.8930880  63.8946878  18.6335821  55.5179654  65.1344921
  19.1775725  56.1309612  64.6399876  18.0522665  56.0759232  65.6511934
   5.0107255  46.9193108  49.4609541   5.3060696  46.0103786  49.4076595
   4.1095291  46.8980847  49.1390543  16.9193334  58.6400372  56.2659949
  16.7944473  57.8390112  55.7570895  17.5772425  59.1346565  55.7773919
   8.5401502  44.9949104  55.4437089   7.8188088  45.6085072  55.3044563
   9.3294758  45.5306869  55.3653735  18.9828242  56.4409392  57.8939499
  18.0358577  56.3214743  57.8217826  19.3311015  55.5531890  57.9765761
  11.3427815  42.3303531  61.7177741  11.8662217  42.5765827  62.4804050
  11.1240149  43.1623566  61.2980879   6.7395096  44.6007205  49.5848866
   6.4107803  43.7204584  49.4023972   7.0934467  44.5454874  50.4725255
  15.9874675  56.2362108  54.0943851  15.8399638  55.3078815  54.2751422
  16.8128169  56.2582199  53.6100927   9.8536920  44.8880175  49.9524344
  10.1932992  45.4166096  49.2302952  10.3009040  45.2260581  50.7282910
  19.5908797  57.0590667  55.1808724  20.5155345  56.8533528  55.0433175
  19.4224100  56.8107068  56.0898066  12.5480360  43.2717226  59.4027412
  12.2077181  42.4725039  59.8048092  11.8419367  43.5718937  58.8304245
  13.1996832  40.3566538  57.8554735  14.0222901  39.8827016  57.7333625
  13.4434896  41.1357022  58.3553421  11.8405067  43.3854797  48.1517636
  12.5613429  43.7636049  47.6481353  11.2170371  44.1043674  48.2552614
  15.9836190  44.0899946  49.0875969  16.1999804  44.9724584  48.7864797
  15.5030257  43.6986159  48.3581611  10.7235411  47.0485659  55.6646713
  10.5779992  47.3625962  56.5570995  10.2460615  47.6670559  55.1117612
  12.5831794  44.0388207  55.7127603  12.5693363  43.1429300  55.3759901
  13.3004222  44.0458871  56.3465889  14.4357925  44.4725547  57.7580730
  14.1775702  45.3942618  57.7565061  13.9042965  44.0755982  58.4481194
  19.3804113  57.5776334  50.5370816  19.5540991  57.0122757  49.7844668
  19.8733005  58.3777229  50.3550306   5.1981073  49.5891003  58.6034375
   4.6534541  50.3650811  58.7354649   6.0760423  49.9361808  58.4453496
  11.9868690  42.9202587  50.9815173  12.1084601  41.9919233  51.1806061
  11.6970732  42.9341273  50.0693488  14.8559880  40.6057498  54.1181893
  14.8781577  40.6696831  53.1633872  15.2727939  39.7662006  54.3122399
  25.2343504  50.3412757  52.1561115  25.6774650  49.5920082  51.7580239
  24.3570015  50.3322894  51.7734847  20.3679286  56.8943099  47.6367714
  21.0630190  57.5149791  47.8555029  20.7102436  56.0438450  47.9120092
   5.9847095  48.7160900  61.4964531   5.2428831  48.8643535  62.0829162
   5.6639839  48.9769165  60.6331281  22.2670709  54.3442804  49.1655045
  22.7922033  54.6830077  48.4404365  22.1793061  53.4089819  48.9818179
  13.9290758  58.2576878  61.2944921  14.2377884  58.0126025  62.1667621
  14.7266240  58.4623516  60.8063792  13.9511370  60.4114787  53.5250298
  13.5116360  59.9191166  54.2183155  14.7019487  59.8687755  53.2842373
   6.4303709  56.6026328  53.5274926   7.2561729  56.3030100  53.1473570
   6.0797761  55.8333951  53.9764715  11.3985242  55.9552797  55.5972600
  10.7765251  55.2923502  55.2974827  12.0690109  55.9813928  54.9146247
   4.6312314  54.5212655  54.4863860   3.7944222  54.0934829  54.3047861
   4.6035959  54.7145098  55.4234651  11.4709769  44.4334585  65.1905106
  11.5197925  45.3096707  64.8082875  12.0132283  43.8911978  64.6176749
  21.9564615  54.9775708  64.4706243  21.1660159  54.9599847  63.9310742
  21.7197970  55.5164001  65.2255279  22.0762490  51.8268174  61.7838971
  22.1260495  51.6618182  62.7254494  21.9676413  50.9595433  61.3936852
  10.9598749  54.5056720  49.0731060  11.1086869  55.1892184  48.4197733
  11.7665192  54.4861810  49.5880516  19.3666252  47.8099102  63.0998278
  20.2676115  47.6705567  62.8082276  19.4414227  47.9753557  64.0396455
  13.7009058  45.1865957  61.9451464  12.8312367  45.4799523  61.6734053
  13.9368538  45.7706402  62.6658728  23.5780687  54.2465116  62.0280993
  23.2865495  54.6095096  62.8644454  22.9652818  53.5332124  61.8494325
  24.7776369  51.8117995  54.5483563  25.6123261  52.2507800  54.7121123
  24.9135498  51.3356649  53.7291809  21.8267875  49.3697730  60.4961051
  22.3021997  49.5625377  59.6879902  20.9033440  49.4256916  60.2504434
   8.7151382  50.5321897  50.0792129   8.4697424  49.6284227  50.2772339
   8.8847296  50.5339048  49.1371607  16.4048092  41.4045574  59.4616885
  16.9230035  42.1406601  59.1363373  16.0503224  41.7109567  60.2963644
   7.9847029  46.2650255  47.5778291   7.2916274  46.3394610  46.9218326
   7.7398781  45.5010599  48.0999807  14.4594154  57.0004850  46.5442808
  13.8868121  57.6195037  46.0913279  15.0326948  57.5504212  47.0782730
  20.5269544  46.2463490  58.7289356  21.4786967  46.3461588  58.7501580
  20.3572995  45.4541759  59.2387441  18.5483924  43.3319074  58.9148757
  17.9533856  43.6124086  58.2195246  18.2633620  43.8212975  59.6865498
  17.6791414  57.2842000  47.6751390  18.6122087  57.2187562  47.8784265
  17.5914627  58.1198267  47.2165923  20.3079431  56.6007871  44.6355337
  20.2293062  56.2667734  45.5291095  21.1289097  57.0929639  44.6346810
  23.0057622  49.4669610  57.8431656  22.9733942  48.5285611  58.0291340
  23.6158246  49.5453647  57.1097481  14.8440953  48.3365663  43.8858860
  15.7900057  48.2071871  43.9547278  14.4655198  47.5980325  44.3628288
  23.1552110  46.2580654  57.8889939  22.6391159  45.4739110  57.7019868
  24.0392059  45.9299370  58.0536459  28.8234172  50.5285617  56.9837693
  29.5537560  50.2670905  57.5445396  28.2141117  49.7914339  57.0239761
  26.9049469  48.6693480  57.5812144  26.1782632  48.5349444  56.9728636
  26.4896756  48.9770308  58.3868862  14.7279645  52.3883409  65.3459517
  15.6482655  52.5662008  65.5399564  14.6929228  51.4439455  65.1939216
  13.0283870  46.2615639  43.8213745  12.1215325  45.9648752  43.8976459
  13.3059851  45.9645458  42.9548032   3.9461810  47.5822003  54.2712792
   3.6264595  46.7287311  53.9787166   3.3995238  47.7970581  55.0270759
   7.7241718  50.2984444  57.9882298   7.9427728  51.2301552  58.0070332
   8.1367492  49.9392418  58.7737102  14.6445936  40.8052529  49.9757987
  13.8346664  40.4599614  50.3513233  15.3330353  40.4960073  50.5645598
  16.5736484  39.8830576  51.5982283  17.1267523  40.3026029  52.2572306
  16.8106570  38.9566324  51.6405239  12.5969583  45.8717650  67.3785047
  12.4966310  46.8212007  67.3097138  12.3791125  45.5435889  66.5061117
  11.7982655  43.1202575  43.9625724  12.6601819  43.4457473  44.2221542
  11.9832999  42.3334071  43.4498790   3.8150070  51.2024914  56.2405913
   3.1213542  50.7878867  55.7275868   4.5623061  51.2445451  55.6439332
  19.9515291  41.9931101  51.1060947  19.3713960  42.6515905  50.7239000
  19.6851224  41.1708446  50.6948365  12.4600853  49.3014788  66.1950109
  11.9767935  50.1015149  66.4013998  12.5461792  49.3122733  65.2417553
   5.7286813  51.1343168  54.1171928   5.7057501  51.2330855  53.1653811
   6.0387449  51.9808319  54.4389094   8.3874191  53.1919323  58.2318543
   9.3417444  53.1603265  58.1648474   8.1886714  52.7309947  59.0468768
   8.9773573  51.7620439  60.7989340   9.7966462  52.2564518  60.8224178
   9.2510381  50.8452407  60.7706908  18.7340169  44.1531192  50.1617296
  17.8466024  44.4380842  49.9437491  19.1494158  43.9924955  49.3144573
  22.0854705  44.1777712  53.8771635  22.8615095  44.6674165  54.1496252
  21.3602839  44.6035767  54.3343504  24.5227264  44.8905332  54.9345576
  25.1171755  44.6501068  54.2238884  24.5953847  44.1712462  55.5619112
   6.7424419  58.7338943  55.2488740   6.6078887  57.9739344  54.6826738
   6.3256482  59.4579843  54.7817529  17.8783382  53.9175866  44.2565316
  18.5819233  54.1225869  44.8722971  17.1546031  54.4852628  44.5214399
  18.7081193  49.6685727  50.3767586  18.6516394  50.1254279  49.5375218
  19.2609535  48.9076412  50.1990429  22.5185999  45.4575459  51.2017705
  22.2622933  45.0572095  52.0325913  21.8938867  46.1719253  51.0767845
  26.8298337  48.1971533  53.7088997  26.2697894  48.2664722  54.4820559
  26.2241840  48.0212517  52.9888493   9.8993545  59.6308260  55.4607183
   9.7825929  60.5753692  55.3585873   9.0785992  59.3281821  55.8492982
  19.7870080  54.3558395  46.3063776  20.6215684  53.9239594  46.1241251
  19.6254423  54.1840409  47.2340670  19.4415972  50.8590509  47.6720115
  19.3864776  50.6934780  46.7308559  18.8162027  51.5666542  47.8282305
   4.2308487  46.0958573  61.4981537   4.8767351  45.5857527  61.9868762
   4.0225638  46.8327255  62.0724963  16.7561879  53.1639421  66.9973678
  17.6253039  53.3380073  66.6360313  16.2768631  53.9833837  66.8749407
  12.7512098  40.3598618  47.2505433  12.7390767  41.3040458  47.4073704
  13.6435519  40.1768763  46.9564895  10.9248059  60.2836522  58.6763112
  11.8275306  60.3160132  58.9929606  10.6985430  59.3536973  58.6909447
  12.6801661  59.0367508  55.3373190  11.7297292  59.0369370  55.2237562
  12.9834148  58.2900243  54.8209225  16.5664217  36.9541394  51.5051370
  15.7996613  36.3999881  51.6508053  16.9774922  37.0263263  52.3665522
   8.5705978  43.2426190  65.5956552   9.4337440  42.8862995  65.8059876
   7.9971389  42.9040085  66.2831956  28.4154355  64.8728046  56.4018953
  29.0532765  64.7534794  55.6982293  28.2975198  65.8208890  56.4606905
  25.2244061  64.8255475  56.3380477  24.8862573  64.7096539  55.4501012
  26.0933829  64.4246640  56.3181483  21.0830877  66.6790951  52.3277368
  20.5195742  66.5880888  51.5593656  20.9683272  65.8590855  52.8079861
  25.7063844  65.9790326  62.2966683  25.6952485  65.5843125  61.4247186
  25.8684484  65.2456399  62.8900454  18.6295309  68.1742143  55.1661589
  19.4216601  67.8332967  54.7507888  18.8691959  68.2837118  56.0863742
  26.6630436  70.3461919  47.6391833  26.0118415  70.9315999  47.2525847
  27.4574798  70.8768114  47.6986871  20.5886063  67.4351056  48.0378967
  21.3616939  66.8880043  47.8991843  20.9411462  68.2995305  48.2493429
  22.4271105  68.7627438  61.2445867  22.1360971  69.6673069  61.1292533
  23.0628090  68.8043966  61.9589936  23.3527312  66.1404287  57.8347226
  23.9490884  65.9160309  57.1204189  23.4102284  65.3989032  58.4372674
  22.9252341  63.5943722  45.6697417  23.1777861  63.0725243  44.9080880
  21.9876900  63.4309867  45.7724101  27.9695623  62.5979500  53.4772161
  28.7558713  62.1798924  53.1262578  28.2334328  63.5025593  53.6453809
  28.1405701  68.0352351  48.1760817  27.5051534  68.1086977  48.8881722
  27.8103107  68.6245949  47.4979897  33.3704051  62.5354734  54.3805139
  34.1029223  61.9653950  54.6142969  32.6143406  62.1476334  54.8211645
  22.6448629  65.4971828  47.8721792  22.5284887  64.8216731  48.5402877
  22.7550889  65.0104202  47.0553945  24.9880170  64.9581975  51.5768482
  24.6238378  64.4312596  52.2881403  25.8447286  64.5680444  51.4034967
  30.8929471  56.2476308  58.8399748  30.5612796  57.1171719  58.6160963
  30.2975084  55.9312592  59.5193778  24.6285657  59.9871875  46.5729830
  24.7960060  60.8552111  46.9400301  24.4382826  60.1499156  45.6491119
  27.3860990  68.4488854  58.2395660  27.0861714  69.3513892  58.1311468
  27.0412050  68.1821037  59.0916813  20.8373472  64.9002650  54.2732365
  19.9123968  64.7678865  54.4810057  21.0857885  65.6796870  54.7702307
  30.7858134  60.9671394  55.9193098  29.8775012  60.8986802  55.6251859
  30.7345730  61.4443339  56.7474923  24.6074878  62.4429532  47.5576497
  24.4874503  62.8886583  48.3961977  23.9127467  62.7914850  46.9990035
  18.1982283  64.5435924  55.1076154  18.3274664  64.7970403  56.0215566
  17.5179734  65.1363632  54.7880809  22.3681770  75.2133174  51.2066628
  22.2905800  76.1640999  51.2855109  21.7643414  74.8679046  51.8641554
  24.8599000  62.3861039  63.8627995  24.0832334  62.9454960  63.8530860
  25.4989563  62.8717822  64.3842865  32.6519781  59.1687832  57.6970972
  32.0094161  59.4620365  57.0510766  32.1474709  59.0540753  58.5024168
  30.3059944  62.9151005  48.3856831  31.2177800  63.1478392  48.2104528
  29.7969591  63.4988050  47.8231910  23.1145372  65.1946493  63.4245962
  23.8560057  65.7331537  63.1480786  22.4082358  65.8212782  63.5817514
  28.5900712  67.3375633  62.0218124  28.9984068  66.8958044  61.2772756
  27.8677973  66.7628261  62.2752316  24.9431782  62.2748240  59.3951680
  25.7892977  62.6987654  59.5386329  24.8830420  61.6181864  60.0890244
  28.9129527  67.8976824  55.7770412  28.2838389  68.0622538  55.0746480
  28.5255189  68.3118433  56.5481376  32.7918759  68.8331262  53.1314776
  32.1069797  69.2130163  52.5811809  32.8762608  69.4426588  53.8646724
  28.0931227  59.9352608  61.0532854  27.8492159  60.6894669  60.5167130
  28.3691158  60.3137956  61.8880101  30.0469690  66.4791221  59.7310120
  30.2586585  67.1222981  59.0544501  29.9999438  65.6453537  59.2632050
  27.6495919  59.0909041  56.6346692  26.7880398  59.3890295  56.9263429
  27.6758354  59.3079440  55.7027724  24.4657489  67.6351232  53.0420497
  24.9295834  67.9138935  52.2525120  24.2014287  66.7334677  52.8593588
  21.3581570  67.1822713  55.9800261  21.9282927  67.6109982  55.3417745
  21.9489681  66.9005298  56.6784446  23.4026375  63.7574384  49.8510063
  24.1050418  64.2095428  50.3183989  23.0707003  63.1158203  50.4789956
  21.8506736  62.3486141  64.2261272  21.2205397  63.0302422  64.4596669
  21.7442824  62.2369223  63.2814410  17.1451709  62.0157937  55.1527196
  16.3550763  62.2715466  54.6767307  17.6362956  62.8306275  55.2579237
  31.1615518  69.3563176  57.9032477  31.9832962  68.9543363  57.6215159
  31.1577921  69.2531410  58.8548593  19.0966454  62.3802516  52.1110673
  18.2997617  62.4921210  52.6294169  18.8692046  62.7189168  51.2451563
  24.9272122  68.9047219  60.0593188  24.9916554  69.3667627  60.8951359
  24.2183045  68.2744584  60.1875497  15.4289412  62.2688427  57.5842187
  15.6797450  63.1535437  57.8499763  15.9648960  62.0893029  56.8117279
  39.2521511  65.7001925  54.2517448  38.4985220  65.1309323  54.0961453
  39.3869052  65.6664589  55.1988083  24.6420139  70.5715327  49.9272168
  24.5065814  71.4166863  50.3557016  25.1829952  70.7734605  49.1638102
  21.1287479  56.6506907  66.5886523  20.7354424  56.0973105  67.2634167
  21.9453619  56.9617485  66.9793041  18.0949537  68.0890765  50.5000093
  18.6074057  68.8834015  50.6505658  18.7472249  67.3917055  50.4333694
  19.9044421  71.2056521  52.5822846  20.0811050  72.1274486  52.3943830
  20.7001255  70.8914940  53.0117226  24.0455440  58.0664786  64.1806780
  24.7865153  58.6671939  64.1011242  24.2773363  57.3242424  63.6224822
  19.1896778  63.2521153  62.4585009  19.0750293  62.3506410  62.7592108
  18.3341296  63.4984850  62.1069826  26.2688616  71.1938893  64.0572510
  25.8252470  70.4075272  63.7393414  26.9305829  71.3818044  63.3916401
  21.0275737  72.7234695  58.5833188  21.5783162  72.5951758  57.8110182
  20.1887213  73.0229584  58.2328081  28.3669854  71.4741693  62.0853911
  28.3488329  72.2950574  61.5934180  29.2889774  71.3495769  62.3104052
  24.8242908  68.9885823  62.9277420  25.3571245  68.2274111  62.6976728
  24.2956989  68.6959475  63.6701574  27.9912603  54.0945889  58.4571061
  27.6476872  54.9847531  58.3810172  28.3591565  53.9047546  57.5940646
  16.0598453  66.4179419  51.2759663  16.8973675  66.8276428  51.0593371
  16.2376721  65.4778861  51.2459857  27.9562885  64.0854500  46.9643496
  27.4409509  64.8559105  47.2031884  27.6840194  63.4119636  47.5876558
  25.5409997  58.9304201  52.0228735  24.6851593  58.5411051  51.8434374
  25.9536948  59.0096162  51.1628520  27.0709143  56.4650544  56.4220295
  26.5673939  56.4280679  55.6088100  27.3639750  57.3743287  56.4816951
  23.3152029  56.5489274  55.4286476  24.1805026  56.3532082  55.0692366
  23.3829538  56.3199625  56.3555833  32.9297160  66.8386855  48.8996670
  32.1526602  66.4998014  48.4551832  33.6088641  66.8439478  48.2251635
  27.7449189  61.9581592  48.7903278  27.4399324  62.2727741  49.6413421
  28.6979631  62.0363012  48.8330611  26.1895620  68.1171815  50.4396232
  25.6616982  67.3824575  50.1269469  25.6883123  68.8946492  50.1936200
  31.1688467  66.3120836  55.5563278  30.5112141  67.0020097  55.6443407
  31.9728866  66.7017268  55.8997264  20.9214348  58.7791482  52.8002843
  21.4958100  58.5566663  52.0676036  21.5085331  58.8480176  53.5531444
  29.9793925  64.6665209  53.6067220  30.4925807  65.2995200  54.1088929
  30.6295149  64.0666404  53.2410580  21.2483935  60.8095943  46.8198728
  20.4121247  61.1470629  47.1408003  21.1088705  60.6744922  45.8825865
  23.2237016  55.6532731  51.5277913  22.5701428  55.3381748  50.9034527
  23.1817490  55.0308471  52.2537735  24.3348221  65.9352026  43.4431205
  23.4275282  65.7041279  43.6422354  24.8319253  65.1389645  43.6305186
  27.2416300  74.6449533  46.3627891  26.5677998  74.9481230  46.9712849
  27.6282122  75.4478613  46.0133348  26.4574756  62.1414664  55.8525560
  25.5397318  62.3629611  55.6947248  26.8734900  62.2160975  54.9937268
  27.2409804  63.5406080  50.9828240  27.9881623  64.0527477  50.6735362
  27.5101393  63.2190132  51.8432634  25.5136454  66.0364620  47.9655195
  24.6047673  65.7523653  48.0627664  25.5431538  66.4563699  47.1058502
  30.7455722  69.6471210  51.7346362  30.2918049  68.8062120  51.7911553
  30.1149688  70.2832608  52.0721142  29.6888641  60.5763196  52.9647030
  28.9511398  60.0640582  53.2957272  29.9415415  60.1363578  52.1530307
  29.1888661  71.4847707  52.6696180  29.4811635  72.0452764  51.9508546
  29.6987281  71.7776268  53.4249340  29.7900268  53.3539448  53.5588799
  30.0959145  52.4936811  53.2714714  30.5152873  53.9457068  53.3587793
  16.0824624  63.7570135  51.9470397  15.8849024  63.1639495  51.2221463
  15.5271288  63.4522345  52.6646336  24.0621348  63.6493241  54.0664990
  24.1169958  62.6967077  53.9907467  23.2512550  63.8052680  54.5506288
  25.2112542  67.5773364  45.3043273  24.7731972  66.8609223  44.8448911
  25.9522983  67.8049479  44.7428365  22.0013708  62.2670301  51.8255369
  21.1881574  62.5664471  52.2320561  22.4972702  61.8725990  52.5429851
  24.1522286  72.2628058  53.7589634  24.1098465  72.4888904  52.8298166
  25.0684985  72.0291432  53.9075435  27.5987920  62.7312125  60.6570263
  27.9537307  62.9583598  61.5164729  28.2460051  63.0630502  60.0347518
  33.3285657  65.8530561  51.3619592  33.1903555  66.0432157  50.4340781
  32.9721876  66.6149944  51.8187643  21.4927783  59.8388656  57.4416604
  22.1327162  59.6977415  56.7439567  20.6605313  59.5523170  57.0655206
  33.3555036  67.9207088  56.3730863  33.7891543  67.8282377  57.2213917
  34.0686617  67.8964589  55.7350879  22.2688087  69.1391087  53.5551596
  23.0628685  68.6441407  53.3534171  21.5579779  68.6108950  53.1919302
  27.0882931  71.5209182  57.9063964  27.1419953  72.0900119  58.6741680
  26.2197713  71.6911067  57.5418001  18.5770850  63.2834169  49.6311349
  17.6468438  63.2218624  49.8481311  18.6728322  62.7610121  48.8347990
  18.4956399  59.8088981  52.2189591  18.7563217  60.7234315  52.1098751
  19.3173572  59.3413424  52.3686204  19.9681325  61.2226739  59.3888415
  20.6404378  61.0144101  58.7401064  19.1411111  61.0248825  58.9493648
  34.2170586  67.9630789  58.9063749  34.4106476  68.8676599  59.1523024
  34.1171204  67.5038208  59.7402334  25.8706897  57.8488679  61.4054076
  25.2234812  58.5478629  61.3118552  26.6407912  58.2824823  61.7730324
  29.2785695  68.1137532  64.4804629  29.1271201  67.8848083  63.5634713
  29.2690374  69.0708133  64.4935974  26.0471031  65.6869444  59.4650896
  26.9763091  65.8380604  59.2919863  25.6262061  65.7753465  58.6099542
  24.8459363  69.7120109  57.2349433  24.7070448  69.3438893  58.1075372
  24.0573959  70.2267748  57.0633391  25.4407515  74.8129205  48.5774970
  25.6159270  74.3417248  49.3920593  24.7540303  75.4394971  48.8056231
  26.3964578  69.0901711  54.6238271  26.0614410  69.0502481  55.5195921
  25.8968524  68.4246427  54.1508681  20.3708822  64.4969341  60.1490852
  20.2328620  63.7649580  60.7502391  21.2813745  64.4078242  59.8675040
  29.3323770  66.4357746  44.8975331  28.7152940  65.7104574  44.8008384
  28.8640258  67.1967106  44.5542405  22.9991123  64.2089301  59.6374532
  23.7090741  63.5682493  59.5961150  22.9560431  64.4602196  60.5600713
  30.9877901  71.1456654  62.5581111  30.9290447  70.4615874  61.8911694
  31.3897420  71.8875644  62.1061737  21.7120056  61.1954519  61.4570172
  21.1757413  60.7445257  62.1091768  21.1236765  61.3300428  60.7140636
  21.1222315  60.6543170  44.0196635  20.2451782  60.5331971  43.6558882
  21.5980069  59.8629248  43.7675524  30.9895308  69.1096238  60.7895091
  30.1022087  68.7722160  60.9121490  31.5593860  68.3779269  61.0263856
  12.6424456  65.4420330  54.1138142  13.3295495  65.1282060  53.5259158
  12.4872584  66.3461694  53.8405394  17.4459178  60.3310526  58.5423166
  17.3617366  59.7236196  57.8073576  16.6241884  60.8219545  58.5432662
  24.5196462  73.7697690  57.7556334  24.4466633  74.5752662  58.2675639
  24.0773855  73.9689656  56.9304356  24.3086241  73.0069460  51.2659156
  23.5253763  73.5491141  51.3597380  25.0078987  73.5243440  51.6653397
  27.6182892  58.8164090  53.9093361  28.1151591  58.0634052  53.5894431
  26.8469873  58.8528407  53.3436570  35.4712649  64.5204455  55.5511653
  35.4602525  65.4029171  55.1805586  34.6030028  64.1676006  55.3566190
  26.9795145  73.6684524  59.9114493  27.6923118  74.3031989  59.8390394
  26.4885174  73.7648390  59.0954495  28.7012672  67.5735777  51.4831784
  27.7668951  67.6937240  51.3136489  28.8789341  66.6708244  51.2191794
  24.2017860  60.9581473  53.6365046  23.8315648  60.4052513  54.3245951
  24.6976953  60.3539606  53.0840046  32.0885224  63.4153096  52.0181819
  32.5545676  64.2481088  51.9442121  32.5392724  62.9498078  52.7227077
  22.0307059  71.4178968  60.7320064  22.7316518  72.0515451  60.8849458
  21.5602174  71.7593699  59.9715703  30.1561455  69.7596918  49.0167971
  30.4321299  69.6453512  49.9261845  29.2865953  69.3614403  48.9780144
  30.0601886  55.7833683  56.0572720  29.1464966  56.0137910  56.2254927
  30.4894988  55.8672127  56.9086752  29.8308345  63.9723575  58.5572614
  29.1779795  64.2199483  57.9025067  30.2088725  63.1587714  58.2235091
  26.7915519  74.0083269  52.6600784  26.9737913  73.1904924  53.1228537
  27.6148505  74.2250961  52.2225674  27.1257684  72.9351454  49.9215833
  27.6545451  72.4243908  49.3085995  27.3885904  72.6193984  50.7861366
  25.8795918  64.7143386  65.0438651  25.2036555  64.6137516  65.7141026
  26.7023552  64.5582600  65.5074648  17.6274777  70.9515323  57.6651166
  18.2128214  70.2059011  57.7979070  17.4299615  71.2619280  58.5487830
  20.4813432  73.9866570  52.6813609  19.8123807  74.4712698  52.1977649
  20.3426302  74.2335791  53.5956987  12.2192432  63.5220923  56.3855609
  12.2576531  62.9884514  57.1792728  11.7132725  62.9956129  55.7666587
  24.6218701  76.0210314  59.2796267  25.1737009  76.1841935  60.0445352
  24.9624894  76.6114752  58.6076292  19.5983194  58.3685464  59.8818152
  19.6624520  59.2300295  59.4695549  19.5350314  57.7559465  59.1490510
  19.0735467  60.4408596  63.5291186  19.7007505  60.0585674  64.1428710
  18.2163385  60.2222798  63.8946878  29.4729575  70.8471571  65.1344921
  30.0169479  71.4601530  64.6399876  28.8916420  71.4051150  65.6511934
  15.8501009  62.2485025  49.4609541  16.1454450  61.3395704  49.4076595
  14.9489045  62.2272765  49.1390543  27.7587088  73.9692289  56.2659949
  27.6338227  73.1682029  55.7570895  28.4166179  74.4638483  55.7773919
  19.3795256  60.3241022  55.4437089  18.6581842  60.9376990  55.3044563
  20.1688512  60.8598787  55.3653735  29.8221996  71.7701309  57.8939499
  28.8752332  71.6506661  57.8217826  30.1704770  70.8823808  57.9765761
  22.1821570  57.6595448  61.7177741  22.7055972  57.9057745  62.4804050
  21.9633903  58.4915483  61.2980879  17.5788851  59.9299123  49.5848866
  17.2501557  59.0496502  49.4023972  17.9328222  59.8746792  50.4725255
  26.8268430  71.5654026  54.0943851  26.6793392  70.6370733  54.2751422
  27.6521923  71.5874116  53.6100927  20.6930674  60.2172093  49.9524344
  21.0326747  60.7458014  49.2302952  21.1402794  60.5552499  50.7282910
  30.4302552  72.3882584  55.1808724  31.3549099  72.1825446  55.0433175
  30.2617855  72.1398986  56.0898066  23.3874115  58.6009144  59.4027412
  23.0470935  57.8016957  59.8048092  22.6813121  58.9010854  58.8304245
  24.0390587  55.6858456  57.8554735  24.8616656  55.2118934  57.7333625
  24.2828650  56.4648940  58.3553421  22.6798821  58.7146714  48.1517636
  23.4007184  59.0927967  47.6481353  22.0564125  59.4335591  48.2552614
  26.8229944  59.4191863  49.0875969  27.0393558  60.3016501  48.7864797
  26.3424011  59.0278077  48.3581611  21.5629165  62.3777577  55.6646713
  21.4173746  62.6917880  56.5570995  21.0854369  62.9962477  55.1117612
  23.4225548  59.3680125  55.7127603  23.4087117  58.4721218  55.3759901
  24.1397976  59.3750788  56.3465889  25.2751679  59.8017465  57.7580730
  25.0169457  60.7234535  57.7565061  24.7436719  59.4047899  58.4481194
  30.2197868  72.9068252  50.5370816  30.3934745  72.3414674  49.7844668
  30.7126759  73.7069147  50.3550306  16.0374828  64.9182921  58.6034375
  15.4928296  65.6942729  58.7354649  16.9154177  65.2653725  58.4453496
  22.8262444  58.2494505  50.9815173  22.9478355  57.3211151  51.1806061
  22.5364487  58.2633191  50.0693488  25.6953635  55.9349415  54.1181893
  25.7175331  55.9988748  53.1633872  26.1121694  55.0953924  54.3122399
  36.0737259  65.6704675  52.1561115  36.5168405  64.9212000  51.7580239
  35.1963769  65.6614811  51.7734847  31.2073040  72.2235016  47.6367714
  31.9023945  72.8441709  47.8555029  31.5496190  71.3730368  47.9120092
  16.8240849  64.0452817  61.4964531  16.0822585  64.1935453  62.0829162
  16.5033594  64.3061083  60.6331281  33.1064463  69.6734722  49.1655045
  33.6315787  70.0121995  48.4404365  33.0186816  68.7381737  48.9818179
  24.7684512  73.5868795  61.2944921  25.0771639  73.3417942  62.1667621
  25.5659994  73.7915434  60.8063792  24.7905124  75.7406705  53.5250298
  24.3510114  75.2483084  54.2183155  25.5413241  75.1979673  53.2842373
  17.2697463  71.9318246  53.5274926  18.0955483  71.6322018  53.1473570
  16.9191515  71.1625868  53.9764715  22.2378996  71.2844714  55.5972600
  21.6159006  70.6215419  55.2974827  22.9083863  71.3105846  54.9146247
  15.4706068  69.8504572  54.4863860  14.6337976  69.4226747  54.3047861
  15.4429714  70.0437016  55.4234651  22.3103524  59.7626502  65.1905106
  22.3591679  60.6388625  64.8082875  22.8526038  59.2203895  64.6176749
  32.7958369  70.3067625  64.4706243  32.0053913  70.2891764  63.9310742
  32.5591724  70.8455919  65.2255279  32.9156245  67.1560092  61.7838971
  32.9654249  66.9910099  62.7254494  32.8070168  66.2887351  61.3936852
  21.7992503  69.8348638  49.0731060  21.9480624  70.5184102  48.4197733
  22.6058947  69.8153728  49.5880516  30.2060007  63.1391020  63.0998278
  31.1069870  62.9997485  62.8082276  30.2807981  63.3045475  64.0396455
  24.5402812  60.5157875  61.9451464  23.6706122  60.8091441  61.6734053
  24.7762293  61.0998320  62.6658728  34.4174441  69.5757033  62.0280993
  34.1259250  69.9387014  62.8644454  33.8046573  68.8624042  61.8494325
  35.6170124  67.1409913  54.5483563  36.4517015  67.5799717  54.7121123
  35.7529252  66.6648566  53.7291809  32.6661630  64.6989648  60.4961051
  33.1415751  64.8917294  59.6879902  31.7427195  64.7548834  60.2504434
  19.5545136  65.8613815  50.0792129  19.3091178  64.9576145  50.2772339
  19.7241051  65.8630966  49.1371607  27.2441846  56.7337492  59.4616885
  27.7623790  57.4698518  59.1363373  26.8896979  57.0401485  60.2963644
  18.8240784  61.5942173  47.5778291  18.1310029  61.6686528  46.9218326
  18.5792536  60.8302516  48.0999807  27.4954440  53.1537774  54.9817781
  27.7756194  52.4860963  55.6078208  28.2805047  53.3466870  54.4692445
  25.2987909  72.3296768  46.5442808  24.7261876  72.9486955  46.0913279
  25.8720702  72.8796130  47.0782730  31.3663299  61.5755408  58.7289356
  32.3180721  61.6753506  58.7501580  31.1966749  60.7833677  59.2387441
  29.3877678  58.6610991  58.9148757  28.7927610  58.9416004  58.2195246
  29.1027375  59.1504892  59.6865498  28.5185169  72.6133918  47.6751390
  29.4515842  72.5479480  47.8784265  28.4308381  73.4490185  47.2165923
  31.1473185  71.9299788  44.6355337  31.0686817  71.5959652  45.5291095
  31.9682852  72.4221556  44.6346810  33.8451376  64.7961528  57.8431656
  33.8127696  63.8577528  58.0291340  34.4552000  64.8745564  57.1097481
  25.6834707  63.6657581  43.8858860  26.6293812  63.5363789  43.9547278
  25.3048952  62.9272243  44.3628288  33.9945865  61.5872571  57.8889939
  33.4784913  60.8031028  57.7019868  34.8785813  61.2591288  58.0536459
  31.6556592  55.3313587  53.8485752  31.4581413  55.0228675  54.7329084
  32.2656297  56.0575226  53.9783682  39.6627926  65.8577535  56.9837693
  40.3931315  65.5962823  57.5445396  39.0534872  65.1206257  57.0239761
  37.7443223  63.9985397  57.5812144  37.0176387  63.8641362  56.9728636
  37.3290510  64.3062226  58.3868862  25.5673400  67.7175327  65.3459517
  26.4876409  67.8953926  65.5399564  25.5322983  66.7731372  65.1939216
  23.8677624  61.5907557  43.8213745  22.9609080  61.2940670  43.8976459
  24.1453605  61.2937375  42.9548032  14.7855565  62.9113921  54.2712792
  14.4658349  62.0579229  53.9787166  14.2388993  63.1262499  55.0270759
  18.5635472  65.6276362  57.9882298  18.7821482  66.5593469  58.0070332
  18.9761246  65.2684336  58.7737102  25.4839690  56.1344447  49.9757987
  24.6740418  55.7891532  50.3513233  26.1724107  55.8251991  50.5645598
  27.4130238  55.2122494  51.5982283  27.9661277  55.6317947  52.2572306
  27.6500325  54.2858242  51.6405239  23.4363338  61.2009567  67.3785047
  23.3360065  62.1503924  67.3097138  23.2184880  60.8727806  66.5061117
  22.6376409  58.4494492  43.9625724  23.4995573  58.7749391  44.2221542
  22.8226753  57.6625988  43.4498790  14.6543825  66.5316832  56.2405913
  13.9607296  66.1170785  55.7275868  15.4016816  66.5737369  55.6439332
  30.7909045  57.3223019  51.1060947  30.2107715  57.9807823  50.7239000
  30.5244978  56.5000363  50.6948365  29.2412612  56.7228077  53.3082268
  29.7412390  56.8344611  52.4996587  29.8848220  56.4189129  53.9483076
  23.2994608  64.6306706  66.1950109  22.8161689  65.4307066  66.4013998
  23.3855547  64.6414651  65.2417553  16.5680567  66.4635086  54.1171928
  16.5451255  66.5622773  53.1653811  16.8781204  67.3100237  54.4389094
  19.2267945  68.5211241  58.2318543  20.1811199  68.4895183  58.1648474
  19.0280469  68.0601865  59.0468768  19.8167327  67.0912357  60.7989340
  20.6360216  67.5856436  60.8224178  20.0904135  66.1744325  60.7706908
  29.5733923  59.4823109  50.1617296  28.6859779  59.7672760  49.9437491
  29.9887913  59.3216873  49.3144573  32.9248460  59.5069630  53.8771635
  33.7008850  59.9966083  54.1496252  32.1996594  59.9327684  54.3343504
  35.3621018  60.2197249  54.9345576  35.9565509  59.9792985  54.2238884
  35.4347602  59.5004380  55.5619112  17.5818174  74.0630860  55.2488740
  17.4472642  73.3031261  54.6826738  17.1650236  74.7871760  54.7817529
  28.7177137  69.2467784  44.2565316  29.4212987  69.4517786  44.8722971
  27.9939786  69.8144546  44.5214399  29.5474947  64.9977645  50.3767586
  29.4910149  65.4546197  49.5375218  30.1003290  64.2368330  50.1990429
  33.3579753  60.7867377  51.2017705  33.1016687  60.3864013  52.0325913
  32.7332621  61.5011171  51.0767845  37.6692091  63.5263450  53.7088997
  37.1091649  63.5956640  54.4820559  37.0635594  63.3504435  52.9888493
  20.7387300  74.9600177  55.4607183  20.6219684  75.9045610  55.3585873
  19.9179746  74.6573739  55.8492982  30.6263834  69.6850313  46.3063776
  31.4609438  69.2531512  46.1241251  30.4648177  69.5132327  47.2340670
  30.2809727  66.1882426  47.6720115  30.2258530  66.0226698  46.7308559
  29.6555782  66.8958459  47.8282305  15.0702242  61.4250491  61.4981537
  15.7161105  60.9149445  61.9868762  14.8619393  62.1619172  62.0724963
  27.5955634  68.4931338  66.9973678  28.4646793  68.6671991  66.6360313
  27.1162385  69.3125755  66.8749407  23.5905852  55.6890535  47.2505433
  23.5784522  56.6332375  47.4073704  24.4829274  55.5060681  46.9564895
  21.7641814  75.6128439  58.6763112  22.6669061  75.6452050  58.9929606
  21.5379184  74.6828890  58.6909447  23.5195416  74.3659426  55.3373190
  22.5691047  74.3661287  55.2237562  23.8227902  73.6192160  54.8209225
  27.4057971  52.2833312  51.5051370  26.6390367  51.7291799  51.6508053
  27.8168676  52.3555181  52.3665522  19.4099733  58.5718108  65.5956552
  20.2731194  58.2154913  65.8059876  18.8365143  58.2332003  66.2831956
  39.2548109  80.2019964  56.4018953  39.8926519  80.0826712  55.6982293
  39.1368952  81.1500808  56.4606905  36.0637816  80.1547392  56.3380477
  35.7256327  80.0388457  55.4501012  36.9327584  79.7538557  56.3181483
  31.9224631  82.0082869  52.3277368  31.3589497  81.9172806  51.5593656
  31.8077026  81.1882773  52.8079861  36.5457599  81.3082244  62.2966683
  36.5346239  80.9135042  61.4247186  36.7078238  80.5748317  62.8900454
  34.1921067  81.4696204  57.8347226  34.7884639  81.2452227  57.1204189
  34.2496038  80.7280950  58.4372674  33.7646095  78.9235640  45.6697417
  34.0171616  78.4017161  44.9080880  32.8270654  78.7601785  45.7724101
  38.8089378  77.9271418  53.4772161  39.5952467  77.5090841  53.1262578
  39.0728082  78.8317510  53.6453809  38.9799455  83.3644268  48.1760817
  38.3445288  83.4378895  48.8881722  38.6496862  83.9537867  47.4979897
  44.2097805  77.8646651  54.3805139  44.9422977  77.2945868  54.6142969
  43.4537161  77.4768252  54.8211645  33.4842384  80.8263746  47.8721792
  33.3678642  80.1508649  48.5402877  33.5944644  80.3396120  47.0553945
  35.8273925  80.2873893  51.5768482  35.4632132  79.7604514  52.2881403
  36.6841041  79.8972362  51.4034967  41.7323225  71.5768225  58.8399748
  41.4006550  72.4463636  58.6160963  41.1368839  71.2604509  59.5193778
  35.4679412  75.3163792  46.5729830  35.6353814  76.1844029  46.9400301
  35.2776581  75.4791074  45.6491119  38.2254745  83.7780771  58.2395660
  37.9255468  84.6805810  58.1311468  37.8805804  83.5112955  59.0916813
  31.6767226  80.2294568  54.2732365  30.7517723  80.0970782  54.4810057
  31.9251640  81.0088787  54.7702307  41.6251889  76.2963312  55.9193098
  40.7168766  76.2278720  55.6251859  41.5739485  76.7735256  56.7474923
  35.4468633  77.7721450  47.5576497  35.3268258  78.2178501  48.3961977
  34.7521221  78.1206768  46.9990035  29.0376037  79.8727842  55.1076154
  29.1668419  80.1262321  56.0215566  28.3573489  80.4655550  54.7880809
  35.6992755  77.7152957  63.8627995  34.9226089  78.2746877  63.8530860
  36.3383318  78.2009740  64.3842865  43.4913535  74.4979750  57.6970972
  42.8487915  74.7912283  57.0510766  42.9868464  74.3832670  58.5024168
  41.1453699  78.2442923  48.3856831  42.0571555  78.4770310  48.2104528
  40.6363346  78.8279967  47.8231910  33.9539127  80.5238410  63.4245962
  34.6953811  81.0623454  63.1480786  33.2476112  81.1504699  63.5817514
  39.4294466  82.6667551  62.0218124  39.8377823  82.2249961  61.2772756
  38.7071728  82.0920178  62.2752316  35.7825537  77.6040158  59.3951680
  36.6286732  78.0279571  59.5386329  35.7224174  76.9473782  60.0890244
  39.7523281  83.2268742  55.7770412  39.1232144  83.3914456  55.0746480
  39.3648943  83.6410351  56.5481376  43.6312513  84.1623179  53.1314776
  42.9463551  84.5422081  52.5811809  43.7156362  84.7718506  53.8646724
  38.9324982  75.2644526  61.0532854  38.6885914  76.0186587  60.5167130
  39.2084912  75.6429874  61.8880101  40.8863445  81.8083138  59.7310120
  41.0980340  82.4514898  59.0544501  40.8393193  80.9745455  59.2632050
  38.4889674  74.4200959  56.6346692  37.6274153  74.7182213  56.9263429
  38.5152108  74.6371358  55.7027724  35.3051243  82.9643150  53.0420497
  35.7689589  83.2430853  52.2525120  35.0408041  82.0626594  52.8593588
  34.2420129  79.0866302  49.8510063  34.9444172  79.5387346  50.3183989
  33.9100758  78.4450121  50.4789956  32.6900491  77.6778059  64.2261272
  32.0599151  78.3594339  64.4596669  32.5836578  77.5661140  63.2814410
  27.9845463  77.3449855  55.1527196  27.1944517  77.6007383  54.6767307
  28.4756710  78.1598193  55.2579237  42.0009273  84.6855094  57.9032477
  42.8226716  84.2835281  57.6215159  41.9971675  84.5823328  58.8548593
  29.9360208  77.7094434  52.1110673  29.1391372  77.8213128  52.6294169
  29.7085801  78.0481086  51.2451563  26.2683166  77.5980345  57.5842187
  26.5191204  78.4827355  57.8499763  26.8042714  77.4184947  56.8117279
  50.0915266  81.0293842  54.2517448  49.3378974  80.4601240  54.0961453
  50.2262807  80.9956507  55.1988083  31.9681233  71.9798824  66.5886523
  31.5748179  71.4265023  67.2634167  32.7847374  72.2909403  66.9793041
  34.8849194  73.3956704  64.1806780  35.6258908  73.9963857  64.1011242
  35.1167117  72.6534341  63.6224822  30.0290532  78.5813071  62.4585009
  29.9144047  77.6798328  62.7592108  29.1735050  78.8276768  62.1069826
  38.8306357  69.4237807  58.4571061  38.4870627  70.3139448  58.3810172
  39.1985320  69.2339464  57.5940646  38.7956640  79.4146418  46.9643496
  38.2803263  80.1851022  47.2031884  38.5233948  78.7411554  47.5876558
  36.3803751  74.2596118  52.0228735  35.5245347  73.8702969  51.8434374
  36.7930703  74.3388079  51.1628520  37.9102898  71.7942462  56.4220295
  37.4067693  71.7572597  55.6088100  38.2033504  72.7035204  56.4816951
  34.1545784  71.8781191  55.4286476  35.0198780  71.6824000  55.0692366
  34.2223292  71.6491543  56.3555833  43.7690914  82.1678772  48.8996670
  42.9920357  81.8289932  48.4551832  44.4482395  82.1731395  48.2251635
  38.5842943  77.2873510  48.7903278  38.2793079  77.6019659  49.6413421
  39.5373385  77.3654930  48.8330611  42.0082221  81.6412754  55.5563278
  41.3505895  82.3312015  55.6443407  42.8122620  82.0309185  55.8997264
  31.7608103  74.1083399  52.8002843  32.3351854  73.8858581  52.0676036
  32.3479085  74.1772094  53.5531444  40.8187680  79.9957126  53.6067220
  41.3319562  80.6287118  54.1088929  41.4688904  79.3958322  53.2410580
  32.0877690  76.1387860  46.8198728  31.2515002  76.4762547  47.1408003
  31.9482459  76.0036840  45.8825865  34.0630770  70.9824648  51.5277913
  33.4095183  70.6673665  50.9034527  34.0211244  70.3600389  52.2537735
  35.1741975  81.2643943  43.4431205  34.2669037  81.0333197  43.6422354
  35.6713007  80.4681563  43.6305186  37.2968511  77.4706582  55.8525560
  36.3791072  77.6921529  55.6947248  37.7128654  77.5452892  54.9937268
  38.0803558  78.8697997  50.9828240  38.8275377  79.3819395  50.6735362
  38.3495148  78.5482050  51.8432634  36.3530209  81.3656538  47.9655195
  35.4441428  81.0815571  48.0627664  36.3825292  81.7855617  47.1058502
  41.5849476  84.9763128  51.7346362  41.1311803  84.1354038  51.7911553
  40.9543443  85.6124526  52.0721142  40.5282396  75.9055114  52.9647030
  39.7905152  75.3932500  53.2957272  40.7809169  75.4655495  52.1530307
  40.6294023  68.6831366  53.5588799  40.9352900  67.8228729  53.2714714
  41.3546628  69.2748986  53.3587793  26.9218379  79.0862052  51.9470397
  26.7242779  78.4931413  51.2221463  26.3665043  78.7814262  52.6646336
  34.9015103  78.9785159  54.0664990  34.9563712  78.0258995  53.9907467
  34.0906305  79.1344598  54.5506288  36.0506296  82.9065282  45.3043273
  35.6125726  82.1901141  44.8448911  36.7916737  83.1341397  44.7428365
  32.8407463  77.5962218  51.8255369  32.0275328  77.8956389  52.2320561
  33.3366457  77.2017907  52.5429851  38.4381674  78.0604043  60.6570263
  38.7931062  78.2875516  61.5164729  39.0853805  78.3922420  60.0347518
  44.1679411  81.1822479  51.3619592  44.0297310  81.3724075  50.4340781
  43.8115630  81.9441862  51.8187643  32.3321537  75.1680574  57.4416604
  32.9720917  75.0269333  56.7439567  31.4999068  74.8815087  57.0655206
  44.1948791  83.2499006  56.3730863  44.6285297  83.1574295  57.2213917
  44.9080371  83.2256506  55.7350879  29.4164605  78.6126086  49.6311349
  28.4862193  78.5510542  49.8481311  29.5122077  78.0902039  48.8347990
  29.3350154  75.1380899  52.2189591  29.5956971  76.0526232  52.1098751
  30.1567326  74.6705342  52.3686204  30.8075079  76.5518656  59.3888415
  31.4798132  76.3436018  58.7401064  29.9804866  76.3540742  58.9493648
  45.0564340  83.2922707  58.9063749  45.2500230  84.1968517  59.1523024
  44.9564959  82.8330126  59.7402334  36.7100651  73.1780597  61.4054076
  36.0628566  73.8770547  61.3118552  37.4801666  73.6116741  61.7730324
  40.1179449  83.4429449  64.4804629  39.9664955  83.2140001  63.5634713
  40.1084128  84.4000051  64.4935974  36.8864785  81.0161362  59.4650896
  37.8156845  81.1672522  59.2919863  36.4655815  81.1045383  58.6099542
  31.2102576  79.8261259  60.1490852  31.0722374  79.0941498  60.7502391
  32.1207500  79.7370159  59.8675040  40.1717524  81.7649663  44.8975331
  39.5546695  81.0396492  44.8008384  39.7034012  82.5259024  44.5542405
  33.8384877  79.5381218  59.6374532  34.5484496  78.8974411  59.5961150
  33.7954185  79.7894113  60.5600713  32.5513811  76.5246436  61.4570172
  32.0151168  76.0737175  62.1091768  31.9630519  76.6592345  60.7140636
  31.9616070  75.9835088  44.0196635  31.0845536  75.8623889  43.6558882
  32.4373823  75.1921166  43.7675524  41.8289063  84.4388156  60.7895091
  40.9415842  84.1014078  60.9121490  42.3987614  83.7071187  61.0263856
  28.2852932  75.6602444  58.5423166  28.2011121  75.0528114  57.8073576
  27.4635639  76.1511462  58.5432662  38.4576646  74.1456008  53.9093361
  38.9545346  73.3925970  53.5894431  37.6863628  74.1820324  53.3436570
  46.3106403  79.8496373  55.5511653  46.2996280  80.7321089  55.1805586
  45.4423783  79.4967924  55.3566190  39.5406427  82.9027695  51.4831784
  38.6062705  83.0229157  51.3136489  39.7183095  82.0000162  51.2191794
  35.0411615  76.2873391  53.6365046  34.6709402  75.7344431  54.3245951
  35.5370707  75.6831524  53.0840046  42.9278978  78.7445014  52.0181819
  43.3939430  79.5773006  51.9442121  43.3786479  78.2789996  52.7227077
  40.9955209  85.0888835  49.0167971  41.2715053  84.9745430  49.9261845
  40.1259708  84.6906320  48.9780144  40.8995641  71.1125601  56.0572720
  39.9858721  71.3429828  56.2254927  41.3288742  71.1964045  56.9086752
  40.6702099  79.3015493  58.5572614  40.0173550  79.5491401  57.9025067
  41.0482479  78.4879631  58.2235091  36.7189672  80.0435304  65.0438651
  36.0430309  79.9429433  65.7141026  37.5417306  79.8874518  65.5074648
  23.0586186  78.8512841  56.3855609  23.0970286  78.3176432  57.1792728
  22.5526479  78.3248046  55.7666587  30.4376948  73.6977381  59.8818152
  30.5018275  74.5592212  59.4695549  30.3744069  73.0851383  59.1490510
  29.9129221  75.7700514  63.5291186  30.5401260  75.3877591  64.1428710
  29.0557140  75.5514716  63.8946878  26.6894764  77.5776943  49.4609541
  26.9848205  76.6687621  49.4076595  25.7882800  77.5564682  49.1390543
  30.2189011  75.6532940  55.4437089  29.4975597  76.2668907  55.3044563
  31.0082267  76.1890704  55.3653735  33.0215324  72.9887366  61.7177741
  33.5449726  73.2349663  62.4804050  32.8027658  73.8207401  61.2980879
  28.4182605  75.2591041  49.5848866  28.0895312  74.3788420  49.4023972
  28.7721976  75.2038709  50.4725255  31.5324429  75.5464010  49.9524344
  31.8720501  76.0749932  49.2302952  31.9796549  75.8844417  50.7282910
  34.2267869  73.9301061  59.4027412  33.8864690  73.1308874  59.8048092
  33.5206876  74.2302772  58.8304245  34.8784341  71.0150374  57.8554735
  35.7010410  70.5410852  57.7333625  35.1222405  71.7940857  58.3553421
  33.5192576  74.0438632  48.1517636  34.2400938  74.4219885  47.6481353
  32.8957880  74.7627509  48.2552614  37.6623699  74.7483781  49.0875969
  37.8787313  75.6308419  48.7864797  37.1817766  74.3569994  48.3581611
  32.4022920  77.7069494  55.6646713  32.2567501  78.0209797  56.5570995
  31.9248124  78.3254395  55.1117612  34.2619303  74.6972042  55.7127603
  34.2480872  73.8013136  55.3759901  34.9791731  74.7042706  56.3465889
  36.1145434  75.1309382  57.7580730  35.8563211  76.0526453  57.7565061
  35.5830474  74.7339817  58.4481194  33.6656199  73.5786423  50.9815173
  33.7872110  72.6503069  51.1806061  33.3758241  73.5925108  50.0693488
  36.5347389  71.2641333  54.1181893  36.5569086  71.3280666  53.1633872
  36.9515448  70.4245842  54.3122399  46.9131013  80.9996593  52.1561115
  47.3562159  80.2503918  51.7580239  46.0357524  80.9906729  51.7734847
  27.6634604  79.3744735  61.4964531  26.9216340  79.5227370  62.0829162
  27.3427348  79.6353001  60.6331281  43.9458218  85.0026640  49.1655045
  44.4709542  85.3413912  48.4404365  43.8580570  84.0673655  48.9818179
  33.1497278  75.0918420  65.1905106  33.1985434  75.9680543  64.8082875
  33.6919792  74.5495813  64.6176749  43.6352124  85.6359543  64.4706243
  42.8447668  85.6183682  63.9310742  43.3985479  86.1747837  65.2255279
  43.7549999  82.4852010  61.7838971  43.8048004  82.3202017  62.7254494
  43.6463922  81.6179269  61.3936852  41.0453761  78.4682938  63.0998278
  41.9463624  78.3289402  62.8082276  41.1201736  78.6337392  64.0396455
  35.3796567  75.8449792  61.9451464  34.5099876  76.1383358  61.6734053
  35.6156047  76.4290237  62.6658728  45.2568196  84.9048951  62.0280993
  44.9653004  85.2678932  62.8644454  44.6440327  84.1915959  61.8494325
  46.4563878  82.4701831  54.5483563  47.2910770  82.9091635  54.7121123
  46.5923007  81.9940484  53.7291809  43.5055384  80.0281566  60.4961051
  43.9809506  80.2209212  59.6879902  42.5820949  80.0840751  60.2504434
  30.3938891  81.1905733  50.0792129  30.1484933  80.2868063  50.2772339
  30.5634805  81.1922883  49.1371607  38.0835601  72.0629409  59.4616885
  38.6017544  72.7990436  59.1363373  37.7290733  72.3693403  60.2963644
  29.6634538  76.9234090  47.5778291  28.9703783  76.9978445  46.9218326
  29.4186290  76.1594434  48.0999807  38.3348195  68.4829692  54.9817781
  38.6149948  67.8152881  55.6078208  39.1198802  68.6758787  54.4692445
  42.2057053  76.9047326  58.7289356  43.1574476  77.0045423  58.7501580
  42.0360503  76.1125594  59.2387441  40.2271433  73.9902909  58.9148757
  39.6321365  74.2707922  58.2195246  39.9421129  74.4796810  59.6865498
  44.6845131  80.1253445  57.8431656  44.6521451  79.1869446  58.0291340
  45.2945755  80.2037482  57.1097481  36.5228462  78.9949498  43.8858860
  37.4687566  78.8655707  43.9547278  36.1442707  78.2564160  44.3628288
  44.8339619  76.9164489  57.8889939  44.3178668  76.1322946  57.7019868
  45.7179568  76.5883205  58.0536459  42.4950346  70.6605504  53.8485752
  42.2975167  70.3520593  54.7329084  43.1050052  71.3867143  53.9783682
  50.5021681  81.1869452  56.9837693  51.2325069  80.9254740  57.5445396
  49.8928626  80.4498174  57.0239761  48.5836978  79.3277315  57.5812144
  47.8570141  79.1933280  56.9728636  48.1684265  79.6354143  58.3868862
  36.4067154  83.0467245  65.3459517  37.3270164  83.2245844  65.5399564
  36.3716737  82.1023290  65.1939216  34.7071379  76.9199475  43.8213745
  33.8002834  76.6232588  43.8976459  34.9847360  76.6229293  42.9548032
  25.6249319  78.2405838  54.2712792  25.3052104  77.3871146  53.9787166
  25.0782747  78.4554416  55.0270759  36.3233445  71.4636365  49.9757987
  35.5134173  71.1183449  50.3513233  37.0117862  71.1543908  50.5645598
  38.2523993  70.5414411  51.5982283  38.8055031  70.9609865  52.2572306
  38.4894079  69.6150159  51.6405239  34.2757092  76.5301485  67.3785047
  34.1753819  77.4795842  67.3097138  34.0578634  76.2019724  66.5061117
  33.4770163  73.7786410  43.9625724  34.3389327  74.1041308  44.2221542
  33.6620508  72.9917906  43.4498790  41.6302800  72.6514936  51.1060947
  41.0501469  73.3099741  50.7239000  41.3638733  71.8292281  50.6948365
  40.0806366  72.0519994  53.3082268  40.5806145  72.1636529  52.4996587
  40.7241974  71.7481047  53.9483076  34.1388362  79.9598624  66.1950109
  33.6555444  80.7598984  66.4013998  34.2249301  79.9706569  65.2417553
  40.4127678  74.8115027  50.1617296  39.5253533  75.0964677  49.9437491
  40.8281667  74.6508790  49.3144573  43.7642214  74.8361548  53.8771635
  44.5402604  75.3258000  54.1496252  43.0390348  75.2619602  54.3343504
  46.2014773  75.5489167  54.9345576  46.7959264  75.3084903  54.2238884
  46.2741356  74.8296298  55.5619112  40.3868702  80.3269563  50.3767586
  40.3303903  80.7838114  49.5375218  40.9397044  79.5660247  50.1990429
  44.1973508  76.1159295  51.2017705  43.9410442  75.7155930  52.0325913
  43.5726376  76.8303089  51.0767845  48.5085845  78.8555368  53.7088997
  47.9485403  78.9248557  54.4820559  47.9029349  78.6796353  52.9888493
  41.4657589  85.0142231  46.3063776  42.3003193  84.5823429  46.1241251
  41.3041932  84.8424244  47.2340670  41.1203481  81.5174344  47.6720115
  41.0652285  81.3518615  46.7308559  40.4949536  82.2250377  47.8282305
  25.9095996  76.7542408  61.4981537  26.5554860  76.2441362  61.9868762
  25.7013147  77.4911090  62.0724963  38.4349388  83.8223256  66.9973678
  39.3040548  83.9963908  66.6360313  37.9556140  84.6417673  66.8749407
  34.4299607  71.0182453  47.2505433  34.4178276  71.9624293  47.4073704
  35.3223028  70.8352598  46.9564895  38.2451726  67.6125230  51.5051370
  37.4784122  67.0583716  51.6508053  38.6562431  67.6847098  52.3665522
  30.2493487  73.9010025  65.5956552  31.1124949  73.5446830  65.8059876
  29.6758898  73.5623920  66.2831956  52.5716980  86.9060143  58.8399748
  52.2400305  87.7755554  58.6160963  51.9762593  86.5896427  59.5193778
  54.3307290  89.8271668  57.6970972  53.6881670  90.1204201  57.0510766
  53.8262218  89.7124588  58.5024168  49.6700112  84.7529724  58.4571061
  49.3264381  85.6431366  58.3810172  50.0379074  84.5631382  57.5940646
  48.7496652  87.1234379  56.4220295  48.2461448  87.0864514  55.6088100
  49.0427259  88.0327122  56.4816951  44.9024525  86.3116566  51.5277913
  44.2488937  85.9965583  50.9034527  44.8604999  85.6892306  52.2537735
  51.4687777  84.0123283  53.5588799  51.7746654  83.1520647  53.2714714
  52.1940382  84.6040904  53.3587793  51.7389395  86.4417519  56.0572720
  50.8252475  86.6721746  56.2254927  52.1682497  86.5255963  56.9086752
  45.7178096  86.3442291  57.8554735  46.5404165  85.8702769  57.7333625
  45.9616159  87.1232775  58.3553421  47.3741144  86.5933251  54.1181893
  47.3962840  86.6572584  53.1633872  47.7909203  85.7537759  54.3122399
  48.9229355  87.3921327  59.4616885  49.4411299  88.1282354  59.1363373
  48.5684488  87.6985320  60.2963644  49.1741949  83.8121609  54.9817781
  49.4543703  83.1444799  55.6078208  49.9592556  84.0050705  54.4692445
  53.3344101  85.9897422  53.8485752  53.1368922  85.6812510  54.7329084
  53.9443806  86.7159061  53.9783682  47.1627199  86.7928282  49.9757987
  46.3527927  86.4475367  50.3513233  47.8511616  86.4835826  50.5645598
  49.0917747  85.8706329  51.5982283  49.6448786  86.2901782  52.2572306
  49.3287834  84.9442077  51.6405239  52.4696554  87.9806854  51.1060947
  51.8895224  88.6391658  50.7239000  52.2032487  87.1584199  50.6948365
  50.9200121  87.3811912  53.3082268  51.4199899  87.4928446  52.4996587
  51.5635729  87.0772965  53.9483076  49.0845480  82.9417147  51.5051370
  48.3177876  82.3875634  51.6508053  49.4956185  83.0139016  52.3665522
   6.7366847  11.2206334  43.1264259   7.3745257  11.1013081  42.4227599
   6.6187690  12.1687178  43.1852211   3.5456554  11.1733762  43.0625784
   3.2075065  11.0574827  42.1746319   4.4146322  10.7724927  43.0426790
   4.0276337  12.3268614  49.0211989   4.0164977  11.9321412  48.1492493
   4.1896976  11.5934686  49.6145761   4.9842928  16.6940206  34.3637140
   4.3330908  17.2794286  33.9771154   5.7787291  17.2246401  34.4232177
   0.7483598  15.1105725  47.9691173   0.4573464  16.0151356  47.8537840
   1.3840582  15.1522253  48.6835243   1.6739805  12.4882574  44.5592533
   2.2703377  12.2638596  43.8449496   1.7314776  11.7467319  45.1617981
   6.2908116   8.9457788  40.2017467   7.0771205   8.5277211  39.8507884
   6.5546820   9.8503880  40.3699116   6.4618193  14.3830638  34.9006124
   5.8264026  14.4565264  35.6127029   6.1315600  14.9724237  34.2225203
  11.6916543   8.8833021  41.1050446  12.4241715   8.3132238  41.3388275
  10.9355899   8.4954621  41.5456951   3.3092663  11.3060262  38.3013788
   2.9450870  10.7790883  39.0126710   4.1659778  10.9158731  38.1280274
   5.7073483  14.7967141  44.9640967   5.4074206  15.6992180  44.8556774
   5.3624542  14.5299324  45.8162120   9.1070627   7.3149681  42.6438404
   8.1987504   7.2465090  42.3497165   9.0558222   7.7921626  43.4720230
   8.6272437   9.2629293  35.1102138   9.5390293   9.4956679  34.9349835
   8.1182084   9.8466337  34.5477216   6.9113204  13.6853920  48.7463430
   7.3196560  13.2436331  48.0018063   6.1890466  13.1106548  48.9997623
   7.2342019  14.2455111  42.5015719   6.6050881  14.4100825  41.7991787
   6.8467681  14.6596721  43.2726683  11.1131251  15.1809549  39.8560083
  10.4282289  15.5608450  39.3057116  11.1975100  15.7904876  40.5892031
   8.3682182  12.8269508  46.4555426   8.5799078  13.4701268  45.7789807
   8.3211931  11.9931825  45.9877356   2.7869981  13.9829519  39.7665804
   3.2508326  14.2617222  38.9770427   2.5226779  13.0812964  39.5838895
   9.4828010  15.7041463  44.6277784  10.3045454  15.3021651  44.3460465
   9.4790413  15.6009698  45.5793899   3.2484614  15.2525507  46.7838494
   3.3129046  15.7145914  47.6196666   2.5395538  14.6222872  46.9120804
   2.9632631  16.9193614  36.6517474   2.8278306  17.7645150  37.0802322
   3.5042444  17.1212892  35.8883408   4.5901108  17.5417181  50.7817817
   4.1464962  16.7553559  50.4638721   5.2518321  17.7296331  50.1161707
   6.6882346  17.8219981  48.8099218   6.6700821  18.6428862  48.3179487
   7.6102266  17.6974056  49.0349359   3.1455400  15.3364110  49.6522726
   3.6783737  14.5752398  49.4222034   2.6169481  15.0437762  50.3946881
   6.2775378  10.4332787  33.6888803   5.7622001  11.2037392  33.9277190
   6.0052686   9.7597923  34.3121865  11.2509652  13.1865142  35.6241977
  10.4739095  12.8476301  35.1797139  11.9301133  13.1917765  34.9496942
   4.5108113  14.4650103  37.1641538   3.9829474  13.7302862  36.8514776
   4.0095615  15.2424779  36.9181507   9.4900959  12.6599123  42.2808585
   8.8324633  13.3498384  42.3688713  10.2941358  13.0495555  42.6242571
   8.3006418  11.0143496  40.3312526   8.8138299  11.6473488  40.8334236
   8.9507641  10.4144691  39.9655886   2.6560713  12.2830313  30.1676511
   1.7487775  12.0519566  30.3667660   3.1531745  11.4867932  30.3550493
   5.5628792  20.9927820  33.0873197   4.8890491  21.2959517  33.6958155
   5.9494614  21.7956900  32.7378654   5.5622296   9.8884367  37.7073547
   6.3094115  10.4005764  37.3980669   5.8313886   9.5668420  38.5677941
   3.8348946  12.3842908  34.6900501   2.9260166  12.1001941  34.7872971
   3.8644030  12.8041986  33.8303808   9.0668214  15.9949497  38.4591669
   8.6130541  15.1540407  38.5156859   8.4362181  16.6310896  38.7966449
   7.5101153  17.8325994  39.3941487   7.8024127  18.3931051  38.6753853
   8.0199774  18.1254555  40.1494646   3.5325034  13.9251651  32.0288580
   3.0944464  13.2087510  31.5694217   4.2735475  14.1527766  31.4673671
   2.4734778  18.6106345  40.4834940   2.4310957  18.8367191  39.5543472
   3.3897477  18.3769720  40.6320741   5.9200412   9.0790413  47.3815569
   6.2749800   9.3061886  48.2410035   6.5672543   9.4108789  46.7592825
  11.6498149  12.2008848  38.0864898  11.5116048  12.3910444  37.1586088
  11.2934368  12.9628231  38.5432950  11.6767529  14.2685375  43.0976170
  12.1104035  14.1760665  43.9459224  12.3899109  14.2442876  42.4596186
   5.4095423  17.8687470  44.6309271   5.4632446  18.4378406  45.3986986
   4.5410205  18.0389355  44.2663308  12.5383078  14.3109076  45.6309055
  12.7318968  15.2154887  45.8768330  12.4383696  13.8516495  46.4647640
   7.5998187  14.4615819  51.2049936   7.4483693  14.2326371  50.2880020
   7.5902866  15.4186420  51.2181281   4.3683523  12.0347732  46.1896202
   5.2975583  12.1858891  46.0165170   3.9474553  12.1231752  45.3344849
   3.1671855  16.0598396  43.9594740   3.0282941  15.6917180  44.8320678
   2.3786451  16.5746035  43.7878698   3.7620007  21.1607492  35.3020277
   3.9371763  20.6895536  36.1165899   3.0752795  21.7873259  35.5301537
   4.7177070  15.4379999  41.3483578   4.3826903  15.3980769  42.2441228
   4.2181016  14.7724715  40.8753988   7.6536262  12.7836033  31.6220638
   7.0365432  12.0582861  31.5253690   7.1852750  13.5445393  31.2787712
   9.3090393  17.4934941  49.2826418   9.2502940  16.8094162  48.6157001
   9.7109912  18.2353931  48.8307044   9.3107801  15.4574525  47.5140398
   8.4234579  15.1200447  47.6366796   9.8806352  14.7257557  47.7509163
   2.8408954  20.1175978  44.4801641   2.7679126  20.9230949  44.9920945
   2.3986347  20.3167943  43.6549662   2.6298734  19.3547748  37.9904462
   1.8466256  19.8969428  38.0842687   3.3291479  19.8721727  38.3898703
  13.7925141  10.8682743  42.2756959  13.7815018  11.7507458  41.9050892
  12.9242521  10.5154294  42.0811496   5.3007638  20.0162812  46.6359799
   6.0135610  20.6510277  46.5635701   4.8097666  20.1126678  45.8199801
   7.0225165  13.9214064  38.2077091   6.0881443  14.0415527  38.0381795
   7.2001833  13.0186531  37.9437101  10.4097716   9.7631384  38.7427125
  10.8758168  10.5959375  38.6687428  10.8605216   9.2976365  39.4472384
   8.4773947  16.1075205  35.7413277   8.7533791  15.9931800  36.6507151
   7.6078446  15.7092690  35.7025450   8.1520837  10.3201863  45.2817921
   7.4992287  10.5677770  44.6270373   8.5301217   9.5066001  44.9480398
   5.1128011  20.3561556  39.3846091   5.2950406  19.5383212  39.8473843
   5.9360997  20.5729248  38.9470981   5.4470177  19.2829741  36.6461139
   5.9757943  18.7722196  36.0331301   5.7098396  18.9672271  37.5106672
   4.2008410  11.0621674  51.7683958   3.5249047  10.9615803  52.4386333
   5.0236044  10.9060887  52.2319955   2.9431193  22.3688601  46.0041574
   3.4949501  22.5320223  46.7690659   3.2837387  22.9593039  45.3321599
   7.7942067  17.1949859  51.8590228   8.3381971  17.8079817  51.3645183
   7.2128912  17.7529437  52.3757241   6.0799580  20.3170577  42.9905256
   5.9550720  19.5160317  42.4816201   6.7378671  20.8116770  42.5019226
   8.1434489  18.1179597  44.6184806   7.1964824  17.9984948  44.5463133
   8.4917262  17.2302095  44.7011067   5.1480922  17.9132313  40.8189158
   5.0005884  16.9849020  40.9996728   5.9734416  17.9352404  40.3346233
   8.7515044  18.7360872  41.9054031   9.6761591  18.5303733  41.7678482
   8.5830347  18.4877273  42.8143372   8.5410360  19.2546539  37.2616122
   8.7147238  18.6892962  36.5089975   9.0339251  20.0547434  37.0795612
  14.3949751  12.0182962  38.8806422  14.8380897  11.2690287  38.4825545
  13.5176262  12.0093098  38.4980154   9.5285533  18.5713304  34.3613021
  10.2236437  19.1919996  34.5800335   9.8708683  17.7208655  34.6365399
  11.4276956  16.0213009  35.8900351  11.9528280  16.3600282  35.1649671
  11.3399308  15.0860024  35.7063486   3.0897004  19.9347083  48.0190228
   3.3984131  19.6896229  48.8912928   3.8872486  20.1393721  47.5309098
   3.1117616  22.0884992  40.2495605   2.6722607  21.5961371  40.9428461
   3.8625733  21.5457960  40.0087680  11.1170862  16.6545913  51.1951549
  10.3266405  16.6370052  50.6556049  10.8804216  17.1934206  51.9500586
  11.2368737  13.5038379  48.5084278  11.2866742  13.3388387  49.4499801
  11.1282660  12.6365638  48.1182159   8.5272499   9.4869307  49.8243585
   9.4282362   9.3475772  49.5327582   8.6020474   9.6523762  50.7641762
  12.7386934  15.9235321  48.7526299  12.4471742  16.2865301  49.5889760
  12.1259065  15.2102329  48.5739631  13.9382616  13.4888200  41.2728870
  14.7729507  13.9278004  41.4366430  14.0741745  13.0126854  40.4537115
  10.9874122  11.0467935  47.2206357  11.4628243  11.2395582  46.4125209
  10.0639687  11.1027121  46.9749741   3.6200401  18.6775055  33.2688114
   3.0474368  19.2965242  32.8158586   4.1933195  19.2274417  33.8028036
   9.6875791   7.9233695  45.4534663  10.6393214   8.0231793  45.4746887
   9.5179241   7.1311964  45.9632747   6.8397661  18.9612205  34.3996696
   7.7728334  18.8957767  34.6029572   6.7520874  19.7968472  33.9411229
   9.4685677  18.2778076  31.3600644   9.3899309  17.9437939  32.2536402
  10.2895344  18.7699844  31.3592116  12.1663869  11.1439815  44.5676963
  12.1340189  10.2055816  44.7536646  12.7764492  11.2223852  43.8342788
  12.3158357   7.9350858  44.6135246  11.7997406   7.1509315  44.4265175
  13.1998306   7.6069575  44.7781765  17.9840418  12.2055822  43.7082999
  18.7143807  11.9441110  44.2690703  17.3747364  11.4684544  43.7485067
  16.0655716  10.3463684  44.3057451  15.3388879  10.2119649  43.6973942
  15.6503002  10.6540513  45.1114169   3.8885892  14.0653614  52.0704824
   4.8088901  14.2432213  52.2644870   3.8535475  13.1209659  51.9184523
  11.2460952   5.8547917  40.6016942  12.0221342   6.3444370  40.8741558
  10.5209086   6.2805972  41.0588811  13.6833511   6.5675537  41.6590882
  14.2778001   6.3271273  40.9484190  13.7560094   5.8482667  42.2864419
   7.0389629  15.5946071  30.9810622   7.7425479  15.7996074  31.5968278
   6.3152278  16.1622833  31.2459706   7.8687440  11.3455932  37.1012893
   7.8122641  11.8024484  36.2620525   8.4215782  10.5846617  36.9235735
  11.6792245   7.1345664  37.9263012  11.4229180   6.7342300  38.7571220
  11.0545113   7.8489458  37.8013151  15.9904583   9.8741737  40.4334303
  15.4304141   9.9434927  41.2065865  15.3848087   9.6982722  39.7133800
   8.9476327  16.0328600  33.0309082   9.7821931  15.6009799  32.8486557
   8.7860670  15.8610614  33.9585977   8.6022219  12.5360714  34.3965422
   8.5471023  12.3704985  33.4553866   7.9768274  13.2436747  34.5527611
   5.9168126  14.8409625  53.7218984   6.7859286  15.0150278  53.3605619
   5.4374877  15.6604042  53.5994714   1.8407908  20.7137713  42.0618497
   0.8903539  20.7139575  41.9482869   2.1440394  19.9670448  41.5454531
  10.2437124  28.3561156  39.0522675   9.6801989  28.2651093  38.2838963
  10.1289519  27.5361060  39.5325167  14.8670091  27.6560531  49.0211989
  14.8558732  27.2613330  48.1492493  15.0290730  26.9226604  49.6145761
   7.7901556  29.8512348  41.8906895   8.5822848  29.5103172  41.4753195
   8.0298206  29.9607323  42.8109049  15.8236682  32.0232124  34.3637140
  15.1724662  32.6086204  33.9771154  16.6181045  32.5538319  34.4232177
   9.7492310  29.1121261  34.7624274  10.5223186  28.5650248  34.6237150
  10.1017708  29.9765510  34.9738735  11.5877352  30.4397643  47.9691173
  11.2967218  31.3443274  47.8537840  12.2234337  30.4814171  48.6835243
  12.5133559  27.8174492  44.5592533  13.1097131  27.5930514  43.8449496
  12.5708531  27.0759237  45.1617981  12.0858587  25.2713927  32.3942724
  12.3384108  24.7495448  31.6326187  11.1483146  25.1080072  32.4969408
  11.8054876  27.1742033  34.5967099  11.6891134  26.4986936  35.2648183
  11.9157136  26.6874407  33.7799252  20.0535718  17.9246513  45.5645054
  19.7219042  18.7941924  45.3406269  19.4581331  17.6082797  46.2439085
  13.7891904  21.6642080  33.2975137  13.9566306  22.5322316  33.6645608
  13.5989073  21.8269361  32.3736426  16.5467237  30.1259059  44.9640967
  16.2467960  31.0284097  44.8556774  16.2018297  29.8591242  45.8162120
   9.9979719  26.5772855  40.9977671   9.0730215  26.4449070  41.2055363
  10.2464132  27.3567075  41.4947614  13.7681125  24.1199737  34.2821804
  13.6480750  24.5656788  35.1207284  13.0733713  24.4685055  33.7235342
   7.3588530  26.2206129  41.8321461   7.4880911  26.4740608  42.7460872
   6.6785981  26.8133837  41.5126116  11.5288017  36.8903379  37.9311935
  11.4512047  37.8411204  38.0100415  10.9249661  36.5449251  38.5886861
  14.0205247  24.0631244  50.5873302  13.2438581  24.6225164  50.5776166
  14.6595810  24.5488027  51.1088172  12.2751619  26.8716698  50.1491269
  13.0166303  27.4101742  49.8726092  11.5688605  27.4982986  50.3062820
  17.7506959  29.0145838  48.7463430  18.1590315  28.5728249  48.0018063
  17.0284220  28.4398466  48.9997623  14.1038029  23.9518445  46.1196987
  14.9499224  24.3757858  46.2631636  14.0436666  23.2952069  46.8135550
  19.2075937  28.1561426  46.4555426  19.4192832  28.7993186  45.7789807
  19.1605685  27.3223742  45.9877356  10.5187816  28.8592918  42.7045567
  11.0889173  29.2880187  42.0663052  11.1095928  28.5775503  43.4029753
  12.5632621  25.4344589  36.5755369  13.2656665  25.8865633  37.0429296
  12.2313250  24.7928408  37.2035262  11.0112983  24.0256346  50.9506579
  10.3811643  24.7072627  51.1841975  10.9049071  23.9139427  50.0059717
   6.3057955  23.6928142  41.8772503   5.5157009  23.9485670  41.4012613
   6.7969203  24.5076480  41.9824543   8.2572701  24.0572721  38.8355980
   7.4603864  24.1691415  39.3539475   8.0298293  24.3959373  37.9696870
  14.0878368  30.5817424  46.7838494  14.1522801  31.0437832  47.6196666
  13.3789292  29.9514789  46.9120804   4.5895658  23.9458632  44.3087494
   4.8403697  24.8305642  44.5745070   5.1255207  23.7663234  43.5362585
  13.8026386  32.2485532  36.6517474  13.6672061  33.0937068  37.0802322
  14.3436198  32.4504810  35.8883408  10.2893726  18.3277112  53.3131830
   9.8960671  17.7743310  53.9879474  11.1059866  18.6387690  53.7038347
   7.2555783  29.7660970  37.2245400   7.7680304  30.5604220  37.3750964
   7.9078496  29.0687260  37.1579001   9.0650668  32.8826726  39.3068153
   9.2417296  33.8044691  39.1189137   9.8607502  32.5685145  39.7362533
  13.2061687  19.7434991  50.9052086  13.9471400  20.3442144  50.8256549
  13.4379609  19.0012629  50.3470129   8.3503025  24.9291358  49.1830316
   8.2356540  24.0276615  49.4837415   7.4947542  25.1755055  48.8315132
  15.4294862  32.8709098  50.7817817  14.9858717  32.0845477  50.4638721
  16.0912076  33.0588249  50.1161707  10.1881984  34.4004900  45.3078495
  10.7389409  34.2721963  44.5355489   9.3493459  34.6999789  44.9573388
  13.9849155  30.6656028  49.6522726  14.5177491  29.9044316  49.4222034
  13.4563236  30.3729680  50.3946881  17.1518850  15.7716094  45.1816368
  16.8083119  16.6617735  45.1055479  17.5197812  15.5817751  44.3185953
   5.2204700  28.0949624  38.0004970   6.0579922  28.5046633  37.7838678
   5.3982968  27.1549066  37.9705164  17.1169132  25.7624705  33.6888803
  16.6015756  26.5329309  33.9277190  16.8446441  25.0889841  34.3121865
  14.7016243  20.6074406  38.7474041  13.8457840  20.2181256  38.5679680
  15.1143195  20.6866366  37.8873827  16.2315390  18.1420749  43.1465601
  15.7280185  18.1050884  42.3333406  16.5245997  19.0513492  43.2062258
  12.4758276  18.2259479  42.1531783  13.3411273  18.0302287  41.7937672
  12.5435785  17.9969830  43.0801140  10.0820595  20.4561687  39.5248150
  10.6564347  20.2336868  38.7921343  10.6691577  20.5250381  40.2776751
  10.4090182  22.4866148  33.5444035   9.5727494  22.8240834  33.8653310
  10.2694952  22.3515127  32.6071172  12.3843263  17.3302935  38.2523219
  11.7307675  17.0151953  37.6279834  12.3423737  16.7078676  38.9783042
  13.4954467  27.6122231  30.1676511  12.5881529  27.3811484  30.3667660
  13.9925499  26.8159850  30.3550493  16.4022546  36.3219738  33.0873197
  15.7284245  36.6251434  33.6958155  16.7888368  37.1248818  32.7378654
  14.6742701  27.7134825  34.6900501  13.7653920  27.4293858  34.7872971
  14.7037785  28.1333904  33.8303808  18.9506515  15.0309653  40.2834106
  19.2565392  14.1707016  39.9960021  19.6759120  15.6227273  40.0833100
   5.2430871  25.4340340  38.6715704   5.0455271  24.8409700  37.9466770
   4.6877535  25.1292550  39.3891642  14.3718789  29.2543569  32.0288580
  13.9338219  28.5379428  31.5694217  15.1129230  29.4819684  31.4673671
  11.1619955  23.9440506  38.5500676  10.3487820  24.2434676  38.9565868
  11.6578949  23.5496195  39.2675158  13.3128533  33.9398263  40.4834940
  13.2704712  34.1659109  39.5543472  14.2291232  33.7061637  40.6320741
  16.7594167  24.4082330  47.3815569  17.1143554  24.6353803  48.2410035
  17.4066298  24.7400707  46.7592825  10.6534030  21.5158861  44.1661911
  11.2933409  21.3747620  43.4684874   9.8211560  21.2293375  43.7900513
  11.4294333  30.8161292  40.2796903  12.2234932  30.3211612  40.0779478
  10.7186026  30.2879155  39.9164609  16.2489178  33.1979387  44.6309271
  16.3026200  33.7670324  45.3986986  15.3803959  33.3681272  44.2663308
   7.7377097  24.9604373  36.3556656   6.8074685  24.8988829  36.5726618
   7.8334569  24.4380326  35.5593297   7.6562646  21.4859186  38.9434897
   7.9169463  22.4004520  38.8344058   8.4779818  21.0183629  39.0931510
   9.1287571  22.8996943  46.1133722   9.8010625  22.6914306  45.4646371
   8.3017358  22.7019029  45.6738954  15.0313143  19.5258884  48.1299383
  14.3841058  20.2248834  48.0363859  15.8014159  19.9595028  48.4975631
  18.4391941  29.7907737  51.2049936  18.2877448  29.5618288  50.2880020
  18.4296621  30.7478338  51.2181281  15.2077278  27.3639649  46.1896202
  16.1369338  27.5150809  46.0165170  14.7868308  27.4523670  45.3344849
  14.0065609  31.3890314  43.9594740  13.8676695  31.0209098  44.8320678
  13.2180206  31.9037953  43.7878698   9.5315069  26.1739546  46.8736159
   9.3934867  25.4419785  47.4747698  10.4419992  26.0848447  46.5920347
  18.4930016  28.1127951  31.6220638  17.8759187  27.3874779  31.5253690
  18.0246505  28.8737311  31.2787712  12.1597369  25.8859506  46.3619839
  12.8696988  25.2452698  46.3206457  12.1166677  26.1372401  47.2846019
  10.8726303  22.8724724  48.1815478  10.3363660  22.4215462  48.8337074
  10.2843012  23.0070632  47.4385942   9.1674847  39.6388773  42.0760137
   9.4071445  40.2707297  42.7539155   8.3244043  39.2876813  42.3625496
  10.2828562  22.3313375  30.7441942   9.4058029  22.2102176  30.3804188
  10.7586315  21.5399453  30.4920830  20.1501555  30.7866443  47.5140398
  19.2628334  30.4492365  47.6366796  20.7200106  30.0549474  47.7509163
   1.8030702  27.1190535  40.8383449   2.4901742  26.8052265  40.2504464
   1.6478831  28.0231899  40.5650700   6.6065424  22.0080731  45.2668473
   6.5223613  21.4006401  44.5318883   5.7848131  22.4989750  45.2677969
  13.6802709  35.4467895  44.4801641  13.6072880  36.2522867  44.9920945
  13.2380102  35.6459861  43.6549662  13.4692488  34.6839665  37.9904462
  12.6860010  35.2261346  38.0842687  14.1685233  35.2013645  38.3898703
  11.1913306  33.0949173  47.4565370  11.8922765  33.7285656  47.6094764
  10.7208421  33.4363904  46.6961009  19.2208133  17.4603888  42.7818027
  18.3071213  17.6908115  42.9500233  19.6501235  17.5442332  43.6332059
  16.2863931  34.6121659  36.6461139  16.8151697  34.1014113  36.0331301
  16.5492151  34.2964189  37.5106672  15.0402165  26.3913591  51.7683958
  14.3642802  26.2907721  52.4386333  15.8629799  26.2352805  52.2319955
   6.7881024  32.6285528  44.3896473   7.3734461  31.8829216  44.5224377
   6.5905862  32.9389485  45.2733137   9.6419679  35.6636775  39.4058915
   8.9730054  36.1482903  38.9222955   9.5032549  35.9105996  40.3202294
   1.3798678  25.1991128  43.1100916   1.4182778  24.6654719  43.9038034
   0.8738971  24.6726334  42.4911893  13.7824948  37.6980519  46.0041574
  14.3343256  37.8612140  46.7690659  14.1231141  38.2884957  45.3321599
   8.7589441  20.0455669  46.6063458   8.8230767  20.9070500  46.1940856
   8.6956561  19.4329670  45.8735817   8.2341713  22.1178801  50.2536493
   8.8613752  21.7355878  50.8674017   7.3769632  21.8993003  50.6192185
  18.6335822  32.5241776  51.8590228  19.1775726  33.1371735  51.3645183
  18.0522667  33.0821355  52.3757241   5.0107256  23.9255230  36.1854847
   5.3060697  23.0165909  36.1321901   4.1095292  23.9042970  35.8635850
  16.9193335  35.6462494  42.9905256  16.7944474  34.8452234  42.4816201
  17.5772426  36.1408688  42.5019226   8.5401503  22.0011227  42.1682396
   7.8188089  22.6147195  42.0289869   9.3294759  22.5368992  42.0899042
  11.3427817  19.3365653  48.4423048  11.8662218  19.5827950  49.2049357
  11.1240150  20.1685688  48.0226185   6.7395098  21.6069328  36.3094173
   6.4107804  20.7266707  36.1269279   7.0934468  21.5516997  37.1970562
  15.9874677  33.2424231  40.8189158  15.8399639  32.3140938  40.9996728
  16.8128170  33.2644321  40.3346233   9.8536921  21.8942298  36.6769650
  10.1932993  22.4228219  35.9548259  10.3009041  22.2322704  37.4528217
  12.5480362  20.2779348  46.1272718  12.2077182  19.4787162  46.5293398
  11.8419368  20.5781059  45.5549552  13.1996833  17.3628661  44.5800041
  14.0222903  16.8889139  44.4578932  13.4434897  18.1419145  45.0798728
  11.8405068  20.3916919  34.8762943  12.5613430  20.7698172  34.3726660
  11.2170372  21.1105796  34.9797921  15.9836191  21.0962068  35.8121275
  16.1999805  21.9786706  35.5110104  15.5030258  20.7048282  35.0826917
  10.7235412  24.0547782  42.3892020  10.5779993  24.3688085  43.2816301
  10.2460616  24.6732682  41.8362919   5.1981074  26.5953126  45.3279681
   4.6534542  27.3712934  45.4599955   6.0760424  26.9423930  45.1698803
  11.9868691  19.9264710  37.7060480  12.1084602  18.9981356  37.9051367
  11.6970733  19.9403396  36.7938795  14.8559881  17.6119620  40.8427200
  14.8781578  17.6758953  39.8879179  15.2727940  16.7724129  41.0367706
   5.9847096  25.7223022  48.2209838   5.2428832  25.8705658  48.8074468
   5.6639840  25.9831288  47.3576587  13.9290759  35.2639000  48.0190228
  14.2377885  35.0188147  48.8912928  14.7266241  35.4685639  47.5309098
   6.4303710  33.6088451  40.2520233   7.2561730  33.3092223  39.8718876
   6.0797762  32.8396073  40.7010021  11.3985243  32.9614919  42.3217906
  10.7765252  32.2985624  42.0220134  12.0690110  32.9876051  41.6391554
   4.6312315  31.5274777  41.2109166   3.7944223  31.0996952  41.0293167
   4.6035960  31.7207221  42.1479957  11.4709771  21.4396707  51.9150412
  11.5197926  22.3158830  51.5328182  12.0132285  20.8974100  51.3422055
  10.9598750  31.5118842  35.7976367  11.1086870  32.1954307  35.1443040
  11.7665193  31.4923933  36.3125823  13.7009059  22.1928080  48.6696771
  12.8312368  22.4861646  48.3979359  13.9368539  22.7768525  49.3904035
   8.7151383  27.5384020  36.8037436   8.4697425  26.6346350  37.0017646
   8.8847297  27.5401171  35.8616914  16.4048093  18.4107696  46.1862191
  16.9230037  19.1468723  45.8608680  16.0503226  18.7171690  47.0208950
   7.9847030  23.2712378  34.3023597   7.2916275  23.3456733  33.6463633
   7.7398782  22.5072721  34.8245114  16.6560687  14.8307979  41.7063088
  16.9362441  14.1631168  42.3323514  17.4411294  15.0237075  41.1937752
  14.4594155  34.0066973  33.2688114  13.8868123  34.6257160  32.8158586
  15.0326949  34.5566335  33.8028036  17.6791415  34.2904123  34.3996696
  18.6122088  34.2249685  34.6029572  17.5914628  35.1260390  33.9411229
  14.8440954  25.3427786  30.6104167  15.7900059  25.2133994  30.6792585
  14.4655199  24.6042448  31.0873595  20.8162839  17.0083792  40.5731059
  20.6187660  16.6998880  41.4574390  21.4262544  17.7345431  40.7028988
  14.7279647  29.3945532  52.0704824  15.6482656  29.5724131  52.2644870
  14.6929230  28.4501577  51.9184523  13.0283871  23.2677762  30.5459052
  12.1215327  22.9710875  30.6221766  13.3059852  22.9707580  29.6793338
   3.9461812  24.5884125  40.9958098   3.6264596  23.7349434  40.7032472
   3.3995240  24.8032704  41.7516066   7.7241719  27.3046566  44.7127605
   7.9427729  28.2363674  44.7315639   8.1367493  26.9454541  45.4982409
  14.6445937  17.8114652  36.7003293  13.8346665  17.4661737  37.0758539
  15.3330354  17.5022195  37.2890905  16.5736485  16.8892699  38.3227590
  17.1267524  17.3088152  38.9817613  16.8106572  15.9628447  38.3650546
  12.5969584  22.8779772  54.1030354  12.4966311  23.8274129  54.0342445
  12.3791126  22.5498011  53.2306424  11.7982656  20.1264697  30.6871031
  12.6601820  20.4519596  30.9466848  11.9833000  19.3396193  30.1744097
   3.8150072  28.2087037  42.9651220   3.1213543  27.7940990  42.4521174
   4.5623063  28.2507573  42.3684639  19.9515292  18.9993224  37.8306254
  19.3713961  19.6578028  37.4484307  19.6851225  18.1770568  37.4193672
  18.4018859  18.3998281  40.0327574  18.9018637  18.5114816  39.2241893
  19.0454467  18.0959334  40.6728383  12.4600854  26.3076911  52.9195415
  11.9767936  27.1077271  53.1259304  12.5461793  26.3184856  51.9662859
   5.7286814  28.1405291  40.8417235   5.7057502  28.2392978  39.8899118
   6.0387451  28.9870442  41.1634401   8.3874192  30.1981446  44.9563849
   9.3417445  30.1665388  44.8893781   8.1886716  29.7372069  45.7714075
   8.9773574  28.7682562  47.5234647   9.7966463  29.2626640  47.5469484
   9.2510382  27.8514530  47.4952214  18.7340170  21.1593314  36.8862602
  17.8466025  21.4442965  36.6682797  19.1494159  20.9987077  36.0389879
   6.7424421  35.7401065  41.9734047   6.6078889  34.9801466  41.4072045
   6.3256483  36.4641965  41.5062836  17.8783384  30.9237989  30.9810622
  18.5819234  31.1287991  31.5968278  17.1546032  31.4914751  31.2459706
   9.8993547  36.6370382  42.1852490   9.7825931  37.5815815  42.0831180
   9.0785993  36.3343944  42.5738289   4.2308488  23.1020696  48.2226844
   4.8767352  22.5919650  48.7114069   4.0225639  23.8389377  48.7970269
  16.7561880  30.1701543  53.7218984  17.6253040  30.3442195  53.3605619
  16.2768632  30.9895960  53.5994714  12.7512099  17.3660740  33.9750740
  12.7390769  18.3102580  34.1319011  13.6435521  17.1830886  33.6810201
  10.9248061  37.2898644  45.4008418  11.8275307  37.3222254  45.7174913
  10.6985431  36.3599095  45.4154754  16.5664218  13.9603517  38.2296677
  15.7996614  13.4062004  38.3753359  16.9774923  14.0325386  39.0910829
   8.5705979  20.2488313  52.3201858   9.4337441  19.8925118  52.5305183
   7.9971390  19.9102208  53.0077262  22.4271107  45.7689561  47.9691173
  22.1360973  46.6735192  47.8537840  23.0628091  45.8106088  48.6835243
  15.4289413  39.2750550  44.3087494  15.6797451  40.1597560  44.5745070
  15.9648961  39.0955152  43.5362585  19.1896779  40.2583276  49.1830316
  19.0750294  39.3568533  49.4837415  18.3341297  40.5046973  48.8315132
  26.2688617  48.2001016  50.7817817  25.8252471  47.4137395  50.4638721
  26.9305830  48.3880167  50.1161707  21.0275738  49.7296818  45.3078495
  21.5783163  49.6013881  44.5355489  20.1887214  50.0291707  44.9573388
  28.3669855  48.4803816  48.8099218  28.3488330  49.3012697  48.3179487
  29.2889775  48.3557891  49.0349359  24.8242909  45.9947945  49.6522726
  25.3571246  45.2336234  49.4222034  24.2956990  45.7021597  50.3946881
  29.2785696  45.1199654  51.2049936  29.1271202  44.8910206  50.2880020
  29.2690375  46.0770256  51.2181281  20.3708823  41.5031464  46.8736159
  20.2328621  40.7711703  47.4747698  21.2813747  41.4140364  46.5920347
  30.9877902  48.1518777  49.2826418  30.9290449  47.4677997  48.6157001
  31.3897421  48.8937767  48.8307044  20.0068601  54.9680691  42.0760137
  20.2465199  55.5999215  42.7539155  19.1637798  54.6168731  42.3625496
  17.4459179  37.3372649  45.2668473  17.3617368  36.7298319  44.5318883
  16.6241885  37.8281667  45.2677969  24.5196463  50.7759813  44.4801641
  24.4466635  51.5814785  44.9920945  24.0773856  50.9751779  43.6549662
  26.9795147  50.6746647  46.6359799  27.6923119  51.3094112  46.5635701
  26.4885175  50.7710513  45.8199801  22.0307060  48.4241091  47.4565370
  22.7316520  49.0577573  47.6094764  21.5602175  48.7655822  46.6961009
  17.6274778  47.9577446  44.3896473  18.2128215  47.2121133  44.5224377
  17.4299617  48.2681402  45.2733137  12.2192433  40.5283046  43.1100916
  12.2576532  39.9946636  43.9038034  11.7132726  40.0018251  42.4911893
  24.6218702  53.0272436  46.0041574  25.1737010  53.1904058  46.7690659
  24.9624895  53.6176874  45.3321599  29.4729576  47.8533694  51.8590228
  30.0169480  48.4663652  51.3645183  28.8916421  48.4113272  52.3757241
  27.7587089  50.9754412  42.9905256  27.6338229  50.1744152  42.4816201
  28.4166180  51.4700605  42.5019226  16.0374829  41.9245044  45.3279681
  15.4928297  42.7004852  45.4599955  16.9154179  42.2715848  45.1698803
  16.8240851  41.0514940  48.2209838  16.0822587  41.1997575  48.8074468
  16.5033595  41.3123205  47.3576587  24.7684513  50.5930918  48.0190228
  25.0771640  50.3480065  48.8912928  25.5659995  50.7977557  47.5309098
  32.7958371  47.3129748  51.1951549  32.0053914  47.2953887  50.6556049
  32.5591725  47.8518042  51.9500586  32.9156246  44.1622214  48.5084278
  32.9654251  43.9972222  49.4499801  32.8070169  43.2949473  48.1182159
  34.4174443  46.5819156  48.7526299  34.1259251  46.9449137  49.5889760
  33.8046574  45.8686164  48.5739631  18.5635474  42.6338484  44.7127605
  18.7821483  43.5655592  44.7315639  18.9761247  42.2746459  45.4982409
  19.2267946  45.5273363  44.9563849  20.1811200  45.4957306  44.8893781
  19.0280470  45.0663987  45.7714075  19.8167329  44.0974479  47.5234647
  20.6360218  44.5918558  47.5469484  20.0904136  43.1806448  47.4952214
  17.5818175  51.0692983  41.9734047  17.4472643  50.3093384  41.4072045
  17.1650237  51.7933883  41.5062836  20.7387301  51.9662300  42.1852490
  20.6219685  52.9107732  42.0831180  19.9179747  51.6635861  42.5738289
  15.0702243  38.4312613  48.2226844  15.7161106  37.9211567  48.7114069
  14.8619394  39.1681295  48.7970269  27.5955635  45.4993461  53.7218984
  28.4646795  45.6734113  53.3605619  27.1162386  46.3187878  53.5994714
  21.7641815  52.6190562  45.4008418  22.6669062  52.6514172  45.7174913
  21.5379185  51.6891013  45.4154754  36.0637817  57.1609515  43.0625784
  35.7256329  57.0450580  42.1746319  36.9327585  56.7600680  43.0426790
  31.9224633  59.0144991  39.0522675  31.3589498  58.9234928  38.2838963
  31.8077028  58.1944896  39.5325167  36.5457600  58.3144367  49.0211989
  36.5346241  57.9197165  48.1492493  36.7078239  57.5810439  49.6145761
  29.4689065  60.5096183  41.8906895  30.2610357  60.1687008  41.4753195
  29.7085715  60.6191158  42.8109049  37.5024191  62.6815959  34.3637140
  36.8512171  63.2670039  33.9771154  38.2968554  63.2122154  34.4232177
  31.4279819  59.7705096  34.7624274  32.2010695  59.2234083  34.6237150
  31.7805217  60.6349345  34.9738735  33.2664861  61.0981478  47.9691173
  32.9754727  62.0027109  47.8537840  33.9021845  61.1398006  48.6835243
  34.1921068  58.4758327  44.5592533  34.7884640  58.2514349  43.8449496
  34.2496040  57.7343072  45.1617981  33.7646096  55.9297762  32.3942724
  34.0171617  55.4079284  31.6326187  32.8270655  55.7663908  32.4969408
  33.4842385  57.8325868  34.5967099  33.3678643  57.1570772  35.2648183
  33.5944645  57.3458242  33.7799252  31.6767228  57.2356691  40.9977671
  30.7517724  57.1032905  41.2055363  31.9251641  58.0150910  41.4947614
  29.0376039  56.8789964  41.8321461  29.1668420  57.1324443  42.7460872
  28.3573490  57.4717672  41.5126116  33.2075526  67.5487214  37.9311935
  33.1299556  68.4995039  38.0100415  32.6037170  67.2033087  38.5886861
  35.6992756  54.7215080  50.5873302  34.9226090  55.2809000  50.5776166
  36.3383319  55.2071863  51.1088172  33.9539128  57.5300533  50.1491269
  34.6953812  58.0685577  49.8726092  33.2476114  58.1566822  50.3062820
  35.7825538  54.6102280  46.1196987  36.6286733  55.0341694  46.2631636
  35.7224175  53.9535905  46.8135550  32.1975325  59.5176754  42.7045567
  32.7676682  59.9464022  42.0663052  32.7883437  59.2359338  43.4029753
  32.6900492  54.6840181  50.9506579  32.0599152  55.3656462  51.1841975
  32.5836580  54.5723263  50.0059717  27.9845464  54.3511977  41.8772503
  27.1944518  54.6069506  41.4012613  28.4756712  55.1660315  41.9824543
  35.7665877  61.2401260  46.7838494  35.8310310  61.7021667  47.6196666
  35.0576801  60.6098625  46.9120804  26.2683167  54.6042468  44.3087494
  26.5191206  55.4889478  44.5745070  26.8042716  54.4247069  43.5362585
  35.4813895  62.9069367  36.6517474  35.3459570  63.7520903  37.0802322
  36.0223707  63.1088645  35.8883408  31.9681235  48.9860947  53.3131830
  31.5748180  48.4327146  53.9879474  32.7847375  49.2971526  53.7038347
  28.9343292  60.4244805  37.2245400  29.4467813  61.2188056  37.3750964
  29.5866005  59.7271096  37.1579001  30.7438177  63.5410562  39.3068153
  30.9204805  64.4628526  39.1189137  31.5395011  63.2268981  39.7362533
  34.8849196  50.4018826  50.9052086  35.6258909  51.0025979  50.8256549
  35.1167118  49.6596464  50.3470129  30.0290534  55.5875193  49.1830316
  29.9144049  54.6860451  49.4837415  29.1735051  55.8338890  48.8315132
  37.1082371  63.5292934  50.7817817  36.6646225  62.7429312  50.4638721
  37.7699585  63.7172084  50.1161707  31.8669492  65.0588735  45.3078495
  32.4176918  64.9305799  44.5355489  31.0280968  65.3583624  44.9573388
  39.2063609  63.8095734  48.8099218  39.1882085  64.6304615  48.3179487
  40.1283529  63.6849809  49.0349359  35.6636664  61.3239863  49.6522726
  36.1965000  60.5628151  49.4222034  35.1350745  61.0313515  50.3946881
  26.8992209  58.7533460  38.0004970  27.7367431  59.1630468  37.7838678
  27.0770477  57.8132902  37.9705164  35.1741976  58.2706066  30.1676511
  34.2669038  58.0395319  30.3667660  35.6713008  57.4743685  30.3550493
  38.0810055  66.9803573  33.0873197  37.4071754  67.2835270  33.6958155
  38.4675877  67.7832653  32.7378654  26.9218380  56.0924175  38.6715704
  26.7242780  55.4993536  37.9466770  26.3665044  55.7876385  39.3891642
  36.0506298  59.9127404  32.0288580  35.6125728  59.1963263  31.5694217
  36.7916739  60.1403519  31.4673671  34.9916042  64.5982098  40.4834940
  34.9492221  64.8242944  39.5543472  35.9078741  64.3645473  40.6320741
  33.1081842  61.4745127  40.2796903  33.9022441  60.9795447  40.0779478
  32.3973535  60.9462990  39.9164609  29.4164606  55.6188209  36.3556656
  28.4862194  55.5572664  36.5726618  29.5122078  55.0964162  35.5593297
  30.8075080  53.5580779  46.1133722  31.4798134  53.3498141  45.4646371
  29.9804867  53.3602865  45.6738954  36.7100652  50.1842720  48.1299383
  36.0628567  50.8832669  48.0363859  37.4801668  50.6178864  48.4975631
  36.8864787  58.0223485  46.1896202  37.8156847  58.1734644  46.0165170
  36.4655817  58.1107505  45.3344849  35.6853118  62.0474149  43.9594740
  35.5464204  61.6792933  44.8320678  34.8967715  62.5621788  43.7878698
  36.2801270  67.1483245  35.3020277  36.4553026  66.6771289  36.1165899
  35.5934058  67.7749012  35.5301537  31.2102578  56.8323382  46.8736159
  31.0722376  56.1003621  47.4747698  32.1207501  56.7432282  46.5920347
  33.8384878  56.5443341  46.3619839  34.5484497  55.9036533  46.3206457
  33.7954186  56.7956236  47.2846019  41.8271657  63.4810694  49.2826418
  41.7684203  62.7969915  48.6157001  42.2291175  64.2229684  48.8307044
  32.5513812  53.5308559  48.1815478  32.0151169  53.0799297  48.8337074
  31.9630521  53.6654468  47.4385942  30.8462356  70.2972608  42.0760137
  31.0858954  70.9291132  42.7539155  30.0031552  69.9460648  42.3625496
  23.4818211  57.7774370  40.8383449  24.1689251  57.4636100  40.2504464
  23.3266340  58.6815735  40.5650700  28.2852933  52.6664567  45.2668473
  28.2011122  52.0590236  44.5318883  27.4635640  53.1573585  45.2677969
  35.3590218  66.1051731  44.4801641  35.2860389  66.9106702  44.9920945
  34.9167611  66.3043697  43.6549662  35.1479997  65.3423501  37.9904462
  34.3647519  65.8845181  38.0842687  35.8472742  65.8597480  38.3898703
  37.8188901  66.0038565  46.6359799  38.5316873  66.6386030  46.5635701
  37.3278930  66.1002431  45.8199801  32.8700815  63.7533008  47.4565370
  33.5710274  64.3869491  47.6094764  32.3995930  64.0947740  46.6961009
  37.6309274  66.3437309  39.3846091  37.8131669  65.5258965  39.8473843
  38.4542261  66.5605001  38.9470981  37.9651440  65.2705494  36.6461139
  38.4939206  64.7597949  36.0331301  38.2279660  64.9548024  37.5106672
  36.7189674  57.0497427  51.7683958  36.0430311  56.9491556  52.4386333
  37.5417308  56.8936640  52.2319955  28.4668533  63.2869363  44.3896473
  29.0521970  62.5413051  44.5224377  28.2693371  63.5973320  45.2733137
  31.3207188  66.3220611  39.4058915  30.6517563  66.8066738  38.9222955
  31.1820058  66.5689831  40.3202294  23.0586187  55.8574963  43.1100916
  23.0970287  55.3238554  43.9038034  22.5526480  55.3310169  42.4911893
  35.4612457  68.3564354  46.0041574  36.0130765  68.5195976  46.7690659
  35.8018650  68.9468792  45.3321599  30.4376950  50.7039504  46.6063458
  30.5018276  51.5654335  46.1940856  30.3744070  50.0913506  45.8735817
  29.9129222  52.7762637  50.2536493  30.5401261  52.3939714  50.8674017
  29.0557141  52.5576838  50.6192185  40.3123331  63.1825612  51.8590228
  40.8563235  63.7955570  51.3645183  39.7310176  63.7405190  52.3757241
  26.6894765  54.5839066  36.1854847  26.9848206  53.6749744  36.1321901
  25.7882801  54.5626805  35.8635850  38.5980844  66.3046330  42.9905256
  38.4731983  65.5036070  42.4816201  39.2559935  66.7992523  42.5019226
  33.0215326  49.9949489  48.4423048  33.5449727  50.2411785  49.2049357
  32.8027659  50.8269523  48.0226185  34.2267871  50.9363184  46.1272718
  33.8864691  50.1370997  46.5293398  33.5206877  51.2364895  45.5549552
  32.4022921  54.7131617  42.3892020  32.2567502  55.0271920  43.2816301
  31.9248125  55.3316517  41.8362919  36.1145435  52.1371505  44.4826037
  35.8563213  53.0588576  44.4810367  35.5830475  51.7401940  45.1726501
  26.8768583  57.2536961  45.3279681  26.3322051  58.0296769  45.4599955
  27.7547933  57.6007766  45.1698803  27.6634605  56.3806858  48.2209838
  26.9216341  56.5289493  48.8074468  27.3427349  56.6415123  47.3576587
  35.6078268  65.9222836  48.0190228  35.9165394  65.6771983  48.8912928
  36.4053750  66.1269474  47.5309098  35.6298880  68.0760745  40.2495605
  35.1903870  67.5837124  40.9428461  36.3806997  67.5333713  40.0087680
  28.1091219  64.2672286  40.2520233  28.9349239  63.9676058  39.8718876
  27.7585271  63.4979909  40.7010021  33.0772752  63.6198754  42.3217906
  32.4552761  62.9569459  42.0220134  33.7477619  63.6459886  41.6391554
  26.3099824  62.1858613  41.2109166  25.4731732  61.7580787  41.0293167
  26.2823469  62.3791056  42.1479957  33.1497280  52.0980542  51.9150412
  33.1985435  52.9742665  51.5328182  33.6919794  51.5557936  51.3422055
  32.6386259  62.1702678  35.7976367  32.7874379  62.8538142  35.1443040
  33.4452702  62.1507768  36.3125823  35.3796568  52.8511915  48.6696771
  34.5099877  53.1445481  48.3979359  35.6156048  53.4352360  49.3904035
  30.3938892  58.1967855  36.8037436  30.1484934  57.2930185  37.0017646
  30.5634806  58.1985006  35.8616914  38.0835602  49.0691532  46.1862191
  38.6017546  49.8052559  45.8608680  37.7290735  49.3755525  47.0208950
  36.1381664  64.6650808  33.2688114  35.5655632  65.2840995  32.8158586
  36.7114458  65.2150170  33.8028036  39.3578924  64.9487958  34.3996696
  40.2909597  64.8833520  34.6029572  39.2702137  65.7844225  33.9411229
  41.9866941  64.2653829  31.3600644  41.9080572  63.9313692  32.2536402
  42.8076608  64.7575597  31.3592116  36.4067156  60.0529367  52.0704824
  37.3270165  60.2307966  52.2644870  36.3716739  59.1085412  51.9184523
  25.6249321  55.2467961  40.9958098  25.3052105  54.3933269  40.7032472
  25.0782749  55.4616539  41.7516066  29.4029228  57.9630402  44.7127605
  29.6215238  58.8947510  44.7315639  29.8155002  57.6038376  45.4982409
  34.2757093  53.5363608  54.1030354  34.1753820  54.4857965  54.0342445
  34.0578635  53.2081846  53.2306424  25.4937581  58.8670872  42.9651220
  24.8001052  58.4524825  42.4521174  26.2410572  58.9091409  42.3684639
  34.1388363  56.9660746  52.9195415  33.6555445  57.7661107  53.1259304
  34.2249302  56.9768691  51.9662859  27.4074323  58.7989126  40.8417235
  27.3845011  58.8976813  39.8899118  27.7174960  59.6454277  41.1634401
  30.0661701  60.8565281  44.9563849  31.0204954  60.8249223  44.8893781
  29.8674224  60.3955905  45.7714075  30.6561083  59.4266397  47.5234647
  31.4753972  59.9210476  47.5469484  30.9297891  58.5098365  47.4952214
  28.4211930  66.3984901  41.9734047  28.2866398  65.6385301  41.4072045
  28.0043992  67.1225800  41.5062836  39.5570893  61.5821824  30.9810622
  40.2606743  61.7871827  31.5968278  38.8333541  62.1498586  31.2459706
  31.5781056  67.2954218  42.1852490  31.4613440  68.2399650  42.0831180
  30.7573502  66.9927779  42.5738289  25.9095997  53.7604531  48.2226844
  26.5554861  53.2503485  48.7114069  25.7013148  54.4973213  48.7970269
  38.4349389  60.8285378  53.7218984  39.3040549  61.0026031  53.3605619
  37.9556141  61.6479795  53.5994714  32.6035570  67.9482480  45.4008418
  33.5062816  67.9806090  45.7174913  32.3772940  67.0182930  45.4154754
  34.3589172  66.7013466  42.0618497  33.4084803  66.7015328  41.9482869
  34.6621658  65.9546201  41.5454531  30.2493488  50.9072148  52.3201858
  31.1124950  50.5508953  52.5305183  29.6758899  50.5686043  53.0077262
  42.7618387  74.3436909  39.0522675  42.1983252  74.2526846  38.2838963
  42.6470782  73.5236813  39.5325167  47.3851354  73.6436284  49.0211989
  47.3739995  73.2489083  48.1492493  47.5471994  72.9102357  49.6145761
  40.3082819  75.8388101  41.8906895  41.1004111  75.4978925  41.4753195
  40.5479469  75.9483076  42.8109049  48.3417946  78.0107877  34.3637140
  47.6905926  78.5961957  33.9771154  49.1362309  78.5414072  34.4232177
  42.2673573  75.0997014  34.7624274  43.0404449  74.5526001  34.6237150
  42.6198972  75.9641263  34.9738735  44.1058616  76.4273396  47.9691173
  43.8148482  77.3319027  47.8537840  44.7415600  76.4689924  48.6835243
  44.6039851  71.2589680  32.3942724  44.8565372  70.7371201  31.6326187
  43.6664410  71.0955825  32.4969408  49.8193211  75.6998309  34.9006124
  49.1839044  75.7732935  35.6127029  49.4890617  76.2891907  34.2225203
  44.3236140  73.1617786  34.5967099  44.2072398  72.4862689  35.2648183
  44.4338400  72.6750160  33.7799252  49.0648501  76.1134812  44.9640967
  48.7649224  77.0159850  44.8556774  48.7199560  75.8466995  45.8162120
  42.5160982  72.5648608  40.9977671  41.5911479  72.4324823  41.2055363
  42.7645395  73.3442828  41.4947614  39.8769793  72.2081882  41.8321461
  40.0062174  72.4616361  42.7460872  39.1967245  72.8009590  41.5126116
  44.0469281  82.8779132  37.9311935  43.9693310  83.8286957  38.0100415
  43.4430924  82.5325004  38.5886861  44.7932883  72.8592451  50.1491269
  45.5347567  73.3977495  49.8726092  44.0869868  73.4858739  50.3062820
  50.2688222  75.0021591  48.7463430  50.6771578  74.5604002  48.0018063
  49.5465484  74.4274219  48.9997623  50.5917037  75.5622782  42.5015719
  49.9625899  75.7268496  41.7991787  50.2042699  75.9764391  43.2726683
  54.4706269  76.4977220  39.8560083  53.7857307  76.8776121  39.3057116
  54.5550118  77.1072546  40.5892031  51.7257200  74.1437179  46.4555426
  51.9374096  74.7868939  45.7789807  51.6786949  73.3099495  45.9877356
  46.1444999  75.2997190  39.7665804  46.6083344  75.5784893  38.9770427
  45.8801797  74.3980634  39.5838895  43.0369080  74.8468671  42.7045567
  43.6070437  75.2755940  42.0663052  43.6277192  74.5651256  43.4029753
  45.0813885  71.4220342  36.5755369  45.7837928  71.8741386  37.0429296
  44.7494513  70.7804161  37.2035262  43.5294246  70.0132099  50.9506579
  42.8992907  70.6948380  51.1841975  43.4230334  69.9015181  50.0059717
  38.8239219  69.6803895  41.8772503  38.0338273  69.9361423  41.4012613
  39.3150466  70.4952233  41.9824543  52.8403028  77.0209134  44.6277784
  53.6620472  76.6189321  44.3460465  52.8365431  76.9177368  45.5793899
  40.7753964  70.0448474  38.8355980  39.9785127  70.1567168  39.3539475
  40.5479556  70.3835126  37.9696870  46.6059632  76.5693177  46.7838494
  46.6704064  77.0313585  47.6196666  45.8970556  75.9390542  46.9120804
  37.1076922  69.9334385  44.3087494  37.3584960  70.8181395  44.5745070
  37.6436470  69.7538987  43.5362585  60.9309021  73.3647883  40.9762755
  60.1772730  72.7955281  40.8206760  61.0656563  73.3310547  41.9233390
  46.3207649  78.2361285  36.6517474  46.1853324  79.0812821  37.0802322
  46.8617462  78.4380563  35.8883408  39.7737047  75.7536723  37.2245400
  40.2861567  76.5479973  37.3750964  40.4259760  75.0563013  37.1579001
  41.5831932  78.8702479  39.3068153  41.7598560  79.7920444  39.1189137
  42.3788765  78.5560898  39.7362533  40.8684288  70.9167111  49.1830316
  40.7537803  70.0152368  49.4837415  40.0128806  71.1630808  48.8315132
  47.9476126  78.8584851  50.7817817  47.5039980  78.0721230  50.4638721
  48.6093339  79.0464002  50.1161707  42.7063247  80.3880653  45.3078495
  43.2570672  80.2597716  44.5355489  41.8674723  80.6875542  44.9573388
  50.0457364  79.1387651  48.8099218  50.0275839  79.9596532  48.3179487
  50.9677284  79.0141727  49.0349359  46.5030418  76.6531781  49.6522726
  47.0358755  75.8920069  49.4222034  45.9744499  76.3605433  50.3946881
  37.7385964  74.0825377  38.0004970  38.5761186  74.4922386  37.7838678
  37.9164231  73.1424819  37.9705164  49.6350396  71.7500458  33.6888803
  49.1197019  72.5205063  33.9277190  49.3627704  71.0765594  34.3121865
  54.6084670  74.5032813  35.6241977  53.8314113  74.1643972  35.1797139
  55.2876151  74.5085436  34.9496942  47.8683131  75.7817773  37.1641538
  47.3404492  75.0470533  36.8514776  47.3670633  76.5592450  36.9181507
  52.8475977  73.9766794  42.2808585  52.1899651  74.6666055  42.3688713
  53.6516376  74.3663226  42.6242571  42.9271445  68.4741901  33.5444035
  42.0908758  68.8116587  33.8653310  42.7876215  68.3390880  32.6071172
  46.0135731  73.5997984  30.1676511  45.1062793  73.3687237  30.3667660
  46.5106763  72.8035603  30.3550493  48.9203810  82.3095491  33.0873197
  48.2465509  82.6127188  33.6958155  49.3069632  83.1124571  32.7378654
  47.1923964  73.7010578  34.6900501  46.2835184  73.4169611  34.7872971
  47.2219048  74.1209657  33.8303808  52.4243232  77.3117168  38.4591669
  51.9705559  76.4708078  38.5156859  51.7937198  77.9478566  38.7966449
  50.8676171  79.1493665  39.3941487  51.1599145  79.7098722  38.6753853
  51.3774792  79.4422226  40.1494646  37.7612135  71.4216093  38.6715704
  37.5636535  70.8285453  37.9466770  37.2058799  71.1168303  39.3891642
  46.8900052  75.2419322  32.0288580  46.4519482  74.5255181  31.5694217
  47.6310493  75.4695437  31.4673671  43.6801218  69.9316259  38.5500676
  42.8669084  70.2310429  38.9565868  44.1760212  69.5371948  39.2675158
  45.8309796  79.9274016  40.4834940  45.7885975  80.1534862  39.5543472
  46.7472495  79.6937390  40.6320741  55.0073167  73.5176519  38.0864898
  54.8691066  73.7078115  37.1586088  54.6509386  74.2795902  38.5432950
  55.0342547  75.5853046  43.0976170  55.4679053  75.4928335  43.9459224
  55.7474127  75.5610547  42.4596186  43.9475597  76.8037045  40.2796903
  44.7416195  76.3087365  40.0779478  43.2367289  76.2754908  39.9164609
  48.7670441  79.1855140  44.6309271  48.8207464  79.7546077  45.3986986
  47.8985223  79.3557025  44.2663308  40.2558360  70.9480126  36.3556656
  39.3255949  70.8864582  36.5726618  40.3515832  70.4256079  35.5593297
  40.1743909  67.4734939  38.9434897  40.4350727  68.3880273  38.8344058
  40.9961082  67.0059382  39.0931510  55.8958096  75.6276747  45.6309055
  56.0893986  76.5322557  45.8768330  55.7958714  75.1684166  46.4647640
  50.9573205  75.7783490  51.2049936  50.8058711  75.5494041  50.2880020
  50.9477884  76.7354091  51.2181281  47.7258541  73.3515402  46.1896202
  48.6550601  73.5026562  46.0165170  47.3049571  73.4399423  45.3344849
  46.5246873  77.3766067  43.9594740  46.3857959  77.0084851  44.8320678
  45.7361469  77.8913706  43.7878698  47.1195025  82.4775163  35.3020277
  47.2946781  82.0063206  36.1165899  46.4327813  83.1040929  35.5301537
  48.0752088  76.7547669  41.3483578  47.7401921  76.7148439  42.2441228
  47.5756034  76.0892385  40.8753988  42.0496332  72.1615299  46.8736159
  41.9116130  71.4295538  47.4747698  42.9601256  72.0724200  46.5920347
  51.0111280  74.1003704  31.6220638  50.3940450  73.3750532  31.5253690
  50.5427768  74.8613064  31.2787712  52.6665411  78.8102612  49.2826418
  52.6077958  78.1261832  48.6157001  53.0684930  79.5521602  48.8307044
  43.3907567  68.8600477  48.1815478  42.8544924  68.4091215  48.8337074
  42.8024275  68.9946385  47.4385942  42.8009826  68.3189128  30.7441942
  41.9239292  68.1977929  30.3804188  43.2767579  67.5275206  30.4920830
  52.6682819  76.7742196  47.5140398  51.7809597  76.4368118  47.6366796
  53.2381370  76.0425227  47.7509163  34.3211966  73.1066288  40.8383449
  35.0083006  72.7928018  40.2504464  34.1660094  74.0107652  40.5650700
  39.1246688  67.9956484  45.2668473  39.0404877  67.3882154  44.5318883
  38.3029394  68.4865503  45.2677969  46.1983972  81.4343648  44.4801641
  46.1254144  82.2398620  44.9920945  45.7561365  81.6335614  43.6549662
  45.9873752  80.6715418  37.9904462  45.2041274  81.2137099  38.0842687
  46.6866497  81.1889398  38.3898703  57.1500159  72.1850413  42.2756959
  57.1390035  73.0675129  41.9050892  56.2817539  71.8321964  42.0811496
  48.6582656  81.3330482  46.6359799  49.3710628  81.9677947  46.5635701
  48.1672684  81.4294348  45.8199801  50.3800183  75.2381735  38.2077091
  49.4456461  75.3583198  38.0381795  50.5576851  74.3354202  37.9437101
  43.7094569  79.0824926  47.4565370  44.4104029  79.7161409  47.6094764
  43.2389684  79.4239657  46.6961009  51.8348965  77.4242876  35.7413277
  52.1108809  77.3099470  36.6507151  50.9653464  77.0260361  35.7025450
  51.5095855  71.6369533  45.2817921  50.8567305  71.8845441  44.6270373
  51.8876235  70.8233672  44.9480398  48.4703029  81.6729227  39.3846091
  48.6525424  80.8550882  39.8473843  49.2936015  81.8896919  38.9470981
  48.8045194  80.5997412  36.6461139  49.3332961  80.0889866  36.0331301
  49.0673414  80.2839942  37.5106672  47.5583428  72.3789344  51.7683958
  46.8824065  72.2783474  52.4386333  48.3811062  72.2228558  52.2319955
  39.3062287  78.6161281  44.3896473  39.8915724  77.8704969  44.5224377
  39.1087126  78.9265238  45.2733137  42.1600942  81.6512528  39.4058915
  41.4911318  82.1358656  38.9222955  42.0213812  81.8981749  40.3202294
  33.8979942  71.1866881  43.1100916  33.9364041  70.6530472  43.9038034
  33.3920235  70.6602087  42.4911893  46.3006211  83.6856272  46.0041574
  46.8524519  83.8487893  46.7690659  46.6412404  84.2760710  45.3321599
  41.2770704  66.0331422  46.6063458  41.3412031  66.8946253  46.1940856
  41.2137824  65.4205423  45.8735817  40.7522977  68.1054554  50.2536493
  41.3795016  67.7231631  50.8674017  39.8950896  67.8868756  50.6192185
  51.1517085  78.5117529  51.8590228  51.6956989  79.1247488  51.3645183
  50.5703930  79.0697108  52.3757241  37.5288520  69.9130983  36.1854847
  37.8241961  69.0041662  36.1321901  36.6276555  69.8918723  35.8635850
  49.4374598  81.6338247  42.9905256  49.3125738  80.8327987  42.4816201
  50.0953689  82.1284441  42.5019226  41.0582767  67.9886980  42.1682396
  40.3369352  68.6022948  42.0289869  41.8476022  68.5244745  42.0899042
  51.5009507  79.4347267  44.6184806  50.5539842  79.3152619  44.5463133
  51.8492280  78.5469765  44.7011067  39.2576361  67.5945081  36.3094173
  38.9289067  66.7142460  36.1269279  39.6115732  67.5392750  37.1970562
  48.5055940  79.2299984  40.8189158  48.3580902  78.3016691  40.9996728
  49.3309433  79.2520074  40.3346233  52.1090062  80.0528542  41.9054031
  53.0336609  79.8471404  41.7678482  51.9405365  79.8044944  42.8143372
  51.8985378  80.5714210  37.2616122  52.0722256  80.0060632  36.5089975
  52.3914269  81.3715105  37.0795612  37.7162338  72.5828879  45.3279681
  37.1715806  73.3588687  45.4599955  38.5941688  72.9299683  45.1698803
  57.7524769  73.3350633  38.8806422  58.1955915  72.5857958  38.4825545
  56.8751279  73.3260769  38.4980154  52.8860551  79.8880974  34.3613021
  53.5811455  80.5087667  34.5800335  53.2283701  79.0376325  34.6365399
  38.5028360  71.7098775  48.2209838  37.7610096  71.8581411  48.8074468
  38.1821104  71.9707041  47.3576587  54.7851974  77.3380680  35.8900351
  55.3103298  77.6767953  35.1649671  54.6974326  76.4027695  35.7063486
  46.4472022  81.2514753  48.0190228  46.7559149  81.0063900  48.8912928
  47.2447504  81.4561392  47.5309098  46.4692634  83.4052663  40.2495605
  46.0297625  82.9129042  40.9428461  47.2200751  82.8625631  40.0087680
  38.9484973  79.5964204  40.2520233  39.7742993  79.2967976  39.8718876
  38.5979025  78.8271826  40.7010021  43.9166507  78.9490672  42.3217906
  43.2946516  78.2861377  42.0220134  44.5871373  78.9751804  41.6391554
  37.1493578  77.5150530  41.2109166  36.3125487  77.0872705  41.0293167
  37.1217224  77.7082974  42.1479957  43.9891034  67.4272460  51.9150412
  44.0379189  68.3034583  51.5328182  44.5313548  66.8849853  51.3422055
  54.4745880  77.9713583  51.1951549  53.6841423  77.9537722  50.6556049
  54.2379234  78.5101877  51.9500586  54.5943755  74.8206050  48.5084278
  54.6441760  74.6556057  49.4499801  54.4857678  73.9533309  48.1182159
  43.4780013  77.4994595  35.7976367  43.6268134  78.1830060  35.1443040
  44.2846457  77.4799686  36.3125823  51.8847517  70.8036978  49.8243585
  52.7857380  70.6643443  49.5327582  51.9595492  70.9691433  50.7641762
  56.0961952  77.2402991  48.7526299  55.8046760  77.6032972  49.5889760
  55.4834083  76.5270000  48.5739631  57.2957634  74.8055871  41.2728870
  58.1304525  75.2445675  41.4366430  57.4316763  74.3294524  40.4537115
  54.3449140  72.3635606  47.2206357  54.8203261  72.5563252  46.4125209
  53.4214705  72.4194792  46.9749741  41.2332646  73.5259773  36.8037436
  40.9878688  72.6222103  37.0017646  41.4028561  73.5276924  35.8616914
  40.5028294  69.2588131  34.3023597  39.8097539  69.3332486  33.6463633
  40.2580046  68.4948474  34.8245114  46.9775419  79.9942726  33.2688114
  46.4049386  80.6132913  32.8158586  47.5508213  80.5442088  33.8028036
  50.1972679  80.2779876  34.3996696  51.1303352  80.2125438  34.6029572
  50.1095892  81.1136143  33.9411229  52.8260695  79.5945746  31.3600644
  52.7474327  79.2605610  32.2536402  53.6470362  80.0867514  31.3592116
  55.5238887  72.4607486  44.5676963  55.4915207  71.5223486  44.7536646
  56.1339510  72.5391522  43.8342788  47.3622217  71.3303539  30.6104167
  48.3081322  71.2009747  30.6792585  46.9836462  70.5918201  31.0873595
  55.6733375  69.2518529  44.6135246  55.1572424  68.4676986  44.4265175
  56.5573324  68.9237246  44.7781765  61.3415436  73.5223493  43.7082999
  62.0718825  73.2608781  44.2690703  60.7322382  72.7852214  43.7485067
  59.4230734  71.6631355  44.3057451  58.6963897  71.5287320  43.6973942
  59.0078020  71.9708184  45.1114169  47.2460910  75.3821285  52.0704824
  48.1663919  75.5599884  52.2644870  47.2110493  74.4377330  51.9184523
  45.5465135  69.2553515  30.5459052  44.6396590  68.9586628  30.6221766
  45.8241116  68.9583333  29.6793338  36.4643075  70.5759878  40.9958098
  36.1445859  69.7225187  40.7032472  35.9176503  70.7908457  41.7516066
  40.2422983  73.2922319  44.7127605  40.4608992  74.2239427  44.7315639
  40.6548756  72.9330294  45.4982409  45.1150848  68.8655525  54.1030354
  45.0147575  69.8149882  54.0342445  44.8972390  68.5373764  53.2306424
  44.3163919  66.1140450  30.6871031  45.1783083  66.4395349  30.9466848
  44.5014263  65.3271946  30.1744097  36.3331335  74.1962790  42.9651220
  35.6394806  73.7816743  42.4521174  37.0804326  74.2383326  42.3684639
  44.9782118  72.2952664  52.9195415  44.4949200  73.0953024  53.1259304
  45.0643057  72.3060609  51.9662859  38.2468078  74.1281044  40.8417235
  38.2238766  74.2268731  39.8899118  38.5568714  74.9746195  41.1634401
  40.9055455  76.1857199  44.9563849  41.8598709  76.1541141  44.8893781
  40.7067979  75.7247823  45.7714075  41.4954838  74.7558315  47.5234647
  42.3147727  75.2502394  47.5469484  41.7691645  73.8390283  47.4952214
  39.2605684  81.7276818  41.9734047  39.1260152  80.9677219  41.4072045
  38.8437746  82.4517718  41.5062836  50.3964647  76.9113742  30.9810622
  51.1000497  77.1163744  31.5968278  49.6727296  77.4790504  31.2459706
  51.2262457  72.6623603  37.1012893  51.1697659  73.1192154  36.2620525
  51.7790800  71.9014288  36.9235735  59.3479601  71.1909408  40.4334303
  58.7879159  71.2602598  41.2065865  58.7423105  71.0150393  39.7133800
  42.4174810  82.6246135  42.1852490  42.3007194  83.5691568  42.0831180
  41.5967256  82.3219697  42.5738289  52.3051345  77.3496271  33.0309082
  53.1396949  76.9177469  32.8486557  52.1435688  77.1778285  33.9585977
  51.9597237  73.8528384  34.3965422  51.9046041  73.6872656  33.4553866
  51.3343292  74.5604417  34.5527611  36.7489752  69.0896449  48.2226844
  37.3948615  68.5795403  48.7114069  36.5406903  69.8265130  48.7970269
  49.2743144  76.1577296  53.7218984  50.1434304  76.3317948  53.3605619
  48.7949895  76.9771713  53.5994714  43.4429324  83.2774397  45.4008418
  44.3456571  83.3098007  45.7174913  43.2166694  82.3474848  45.4154754
  45.1982926  82.0305384  42.0618497  44.2478557  82.0307245  41.9482869
  45.5015412  81.2838118  41.5454531  41.0887243  66.2364066  52.3201858
  41.9518704  65.8800871  52.5305183  40.5152653  65.8977961  53.0077262
  57.7425326  87.8193350  43.0625784  57.4043838  87.7034415  42.1746319
  58.6115094  87.4184515  43.0426790  53.6012142  89.6728827  39.0522675
  53.0377007  89.5818764  38.2838963  53.4864537  88.8528731  39.5325167
  58.2245109  88.9728202  49.0211989  58.2133750  88.5781000  48.1492493
  58.3865748  88.2394275  49.6145761  55.8708577  89.1342162  44.5592533
  56.4672149  88.9098185  43.8449496  55.9283548  88.3926908  45.1617981
  55.4433605  86.5881598  32.3942724  55.6959126  86.0663119  31.6326187
  54.5058164  86.4247743  32.4969408  60.4876888  85.5917376  40.2017467
  61.2739977  85.1736799  39.8507884  60.7515593  86.4963468  40.3699116
  55.1629894  88.4909704  34.5967099  55.0466152  87.8154607  35.2648183
  55.2732154  88.0042077  33.7799252  57.5061435  87.9519851  38.3013788
  57.1419642  87.4250472  39.0126710  58.3628551  87.5618320  38.1280274
  63.4110736  79.2414183  45.5645054  63.0794060  80.1109594  45.3406269
  62.8156349  78.9250467  46.2439085  57.1466922  82.9809750  33.2975137
  57.3141324  83.8489987  33.6645608  56.9564091  83.1437032  32.3736426
  53.3554737  87.8940526  40.9977671  52.4305233  87.7616740  41.2055363
  53.6039150  88.6734745  41.4947614  63.3039399  83.9609269  42.6438404
  62.3956276  83.8924678  42.3497165  63.2526995  84.4381214  43.4720230
  57.1256143  85.4367408  34.2821804  57.0055768  85.8824459  35.1207284
  56.4308731  85.7852726  33.7235342  50.7163548  87.5373800  41.8321461
  50.8455929  87.7908279  42.7460872  50.0360999  88.1301508  41.5126116
  57.3780265  85.3798915  50.5873302  56.6013599  85.9392835  50.5776166
  58.0170828  85.8655698  51.1088172  65.1701045  82.1625708  44.4216278
  64.5275426  82.4558241  43.7756073  64.6655974  82.0478628  45.2269475
  55.6326637  88.1884368  50.1491269  56.3741321  88.7269412  49.8726092
  54.9263623  88.8150657  50.3062820  57.4613047  85.2686116  46.1196987
  58.3074242  85.6925529  46.2631636  57.4011684  84.6119740  46.8135550
  60.6112492  82.9290484  47.7778161  60.3673424  83.6832545  47.2412436
  60.8872423  83.3075832  48.6125408  60.1677184  82.0846917  43.3591998
  59.3061663  82.3828171  43.6508736  60.1939618  82.3017316  42.4273031
  55.9207639  86.7512260  36.5755369  56.6231683  87.2033304  37.0429296
  55.5888268  86.1096079  37.2035262  54.3688001  85.3424017  50.9506579
  53.7386661  86.0240297  51.1841975  54.2624089  85.2307098  50.0059717
  49.6632973  85.0095813  41.8772503  48.8732027  85.2653341  41.4012613
  50.1544221  85.8244150  41.9824543  51.6147719  85.3740392  38.8355980
  50.8178882  85.4859086  39.3539475  51.3873311  85.7127044  37.9696870
  47.9470676  85.2626303  44.3087494  48.1978715  86.1473313  44.5745070
  48.4830225  85.0830905  43.5362585  53.6468744  79.6444782  53.3131830
  53.2535689  79.0910981  53.9879474  54.4634884  79.9555361  53.7038347
  56.5636705  81.0602662  50.9052086  57.3046418  81.6609815  50.8256549
  56.7954627  80.3180299  50.3470129  51.7078043  86.2459029  49.1830316
  51.5931558  85.3444286  49.4837415  50.8522560  86.4922726  48.8315132
  60.5093867  77.0883764  45.1816368  60.1658137  77.9785406  45.1055479
  60.8772830  76.8985422  44.3185953  58.0591261  81.9242076  38.7474041
  57.2032858  81.5348927  38.5679680  58.4718213  82.0034037  37.8873827
  59.5890408  79.4588420  43.1465601  59.0855203  79.4218555  42.3333406
  59.8821015  80.3681162  43.2062258  55.8333294  79.5427149  42.1531783
  56.6986291  79.3469958  41.7937672  55.9010803  79.3137501  43.0801140
  60.2630453  84.9519468  35.5148584  59.9580589  85.2665617  36.3658727
  61.2160895  85.0300888  35.5575917  53.4395613  81.7729357  39.5248150
  54.0139365  81.5504539  38.7921343  54.0266595  81.8418052  40.2776751
  53.7665200  83.8033818  33.5444035  52.9302512  84.1408505  33.8653310
  53.6269970  83.6682798  32.6071172  55.7418281  78.6470606  38.2523219
  55.0882693  78.3319623  37.6279834  55.6998755  78.0246347  38.9783042
  56.8529485  88.9289901  30.1676511  55.9456547  88.6979155  30.3667660
  57.3500517  88.1327520  30.3550493  58.9756021  85.1352540  42.5770867
  58.0578582  85.3567487  42.4192555  59.3916165  85.2098850  41.7182574
  59.7591069  86.5343955  37.7073547  60.5062888  87.0465353  37.3980669
  60.0282658  86.2128008  38.5677941  62.2069906  83.5701072  39.6892336
  61.4692663  83.0578458  40.0202579  62.4596679  83.1301453  38.8775613
  62.3081533  76.3477324  40.2834106  62.6140410  75.4874687  39.9960021
  63.0334138  76.9394944  40.0833100  48.6005889  86.7508010  38.6715704
  48.4030289  86.1577371  37.9466770  48.0452553  86.4460220  39.3891642
  56.5802613  86.6431117  40.7910297  56.6351223  85.6904953  40.7152773
  55.7693815  86.7990556  41.2751595  54.5194973  85.2608176  38.5500676
  53.7062838  85.5602347  38.9565868  55.0153967  84.8663865  39.2675158
  60.1169184  85.7250001  47.3815569  60.4718572  85.9521474  48.2410035
  60.7641316  86.0568378  46.7592825  54.0109048  82.8326532  44.1661911
  54.6508427  82.6915291  43.4684874  53.1786578  82.5461045  43.7900513
  51.0952115  86.2772044  36.3556656  50.1649703  86.2156500  36.5726618
  51.1909587  85.7547997  35.5593297  51.0137664  82.8026857  38.9434897
  51.2744481  83.7172190  38.8344058  51.8354836  82.3351300  39.0931510
  52.4862589  84.2164614  46.1133722  53.1585643  84.0081976  45.4646371
  51.6592376  84.0186700  45.6738954  58.3888161  80.8426555  48.1299383
  57.7416076  81.5416505  48.0363859  59.1589177  81.2762699  48.4975631
  52.8890087  87.4907217  46.8736159  52.7509885  86.7587456  47.4747698
  53.7995010  87.4016117  46.5920347  55.5172387  87.2027176  46.3619839
  56.2272006  86.5620369  46.3206457  55.4741695  87.4540071  47.2846019
  54.2301321  84.1892394  48.1815478  53.6938678  83.7383133  48.8337074
  53.6418030  84.3238303  47.4385942  53.6403580  83.6481046  30.7441942
  52.7633046  83.5269847  30.3804188  54.1161333  82.8567124  30.4920830
  49.9640442  83.3248402  45.2668473  49.8798631  82.7174072  44.5318883
  49.1423149  83.8157420  45.2677969  60.1364156  81.8101966  40.6338668
  60.6332856  81.0571928  40.3139738  59.3651138  81.8466282  40.0681877
  56.7199125  83.9519349  40.3610352  56.3496913  83.3990389  41.0491258
  57.2158218  83.3477482  39.8085352  62.5783151  78.7771559  42.7818027
  61.6646231  79.0075786  42.9500233  63.0076253  78.8610003  43.6332059
  58.3977183  87.7081262  51.7683958  57.7217820  87.6075391  52.4386333
  59.2204817  87.5520476  52.2319955  44.7373696  86.5158799  43.1100916
  44.7757796  85.9822390  43.9038034  44.2313989  85.9894004  42.4911893
  52.1164459  81.3623339  46.6063458  52.1805785  82.2238170  46.1940856
  52.0531579  80.7497341  45.8735817  51.5916731  83.4346472  50.2536493
  52.2188770  83.0523549  50.8674017  50.7344650  83.2160674  50.6192185
  48.3682274  85.2422901  36.1854847  48.6635715  84.3333579  36.1321901
  47.4670310  85.2210640  35.8635850  51.8976521  83.3178898  42.1682396
  51.1763107  83.9314865  42.0289869  52.6869777  83.8536662  42.0899042
  54.7002835  80.6533324  48.4423048  55.2237236  80.8995621  49.2049357
  54.4815168  81.4853359  48.0226185  50.0970116  82.9236999  36.3094173
  49.7682822  82.0434378  36.1269279  50.4509486  82.8684667  37.1970562
  53.2111939  83.2109968  36.6769650  53.5508011  83.7395890  35.9548259
  53.6584059  83.5490375  37.4528217  55.9055380  81.5947019  46.1272718
  55.5652200  80.7954832  46.5293398  55.1994386  81.8948730  45.5549552
  56.5571851  78.6796332  44.5800041  57.3797921  78.2056810  44.4578932
  56.8009915  79.4586815  45.0798728  55.1980086  81.7084590  34.8762943
  55.9188448  82.0865843  34.3726660  54.5745390  82.4273467  34.9797921
  59.3411209  82.4129739  35.8121275  59.5574823  83.2954377  35.5110104
  58.8605276  82.0215952  35.0826917  54.0810430  85.3715452  42.3892020
  53.9355011  85.6855755  43.2816301  53.6035634  85.9900353  41.8362919
  55.9406813  82.3618000  42.4372910  55.9268382  81.4659094  42.1005207
  56.6579241  82.3688664  43.0711196  57.7932944  82.7955340  44.4826037
  57.5350722  83.7172411  44.4810367  57.2617984  82.3985775  45.1726501
  55.3443709  81.2432380  37.7060480  55.4659620  80.3149027  37.9051367
  55.0545751  81.2571066  36.7938795  58.2134899  78.9287291  40.8427200
  58.2356596  78.9926624  39.8879179  58.6302958  78.0891800  41.0367706
  49.3422114  87.0390693  48.2209838  48.6003850  87.1873328  48.8074468
  49.0214858  87.2998958  47.3576587  54.8284789  82.7564378  51.9150412
  54.8772944  83.6326501  51.5328182  55.3707303  82.2141771  51.3422055
  57.0584077  83.5095750  48.6696771  56.1887386  83.8029316  48.3979359
  57.2943557  84.0936195  49.3904035  52.0726401  88.8551691  36.8037436
  51.8272443  87.9514021  37.0017646  52.2422315  88.8568841  35.8616914
  59.7623111  79.7275367  46.1862191  60.2805055  80.4636394  45.8608680
  59.4078244  80.0339360  47.0208950  51.3422048  84.5880048  34.3023597
  50.6491293  84.6624403  33.6463633  51.0973800  83.8240392  34.8245114
  60.0135705  76.1475650  41.7063088  60.2937459  75.4798839  42.3323514
  60.7986312  76.3404745  41.1937752  61.9058943  81.6548867  45.6394064
  61.3108875  81.9353880  44.9440553  61.6208639  82.1442768  46.4110805
  58.2015972  86.6595456  30.6104167  59.1475077  86.5301664  30.6792585
  57.8230217  85.9210118  31.0873595  64.1737856  78.3251462  40.5731059
  63.9762678  78.0166551  41.4574390  64.7837562  79.0513101  40.7028988
  56.3858889  84.5845433  30.5459052  55.4790344  84.2878545  30.6221766
  56.6634870  84.2875251  29.6793338  47.3036829  85.9051796  40.9958098
  46.9839614  85.0517104  40.7032472  46.7570258  86.1200374  41.7516066
  58.0020955  79.1282322  36.7003293  57.1921683  78.7829407  37.0758539
  58.6905372  78.8189866  37.2890905  59.9311503  78.2060369  38.3227590
  60.4842542  78.6255823  38.9817613  60.1681589  77.2796117  38.3650546
  55.9544602  84.1947443  54.1030354  55.8541329  85.1441800  54.0342445
  55.7366144  83.8665682  53.2306424  55.1557674  81.4432368  30.6871031
  56.0176838  81.7687266  30.9466848  55.3408018  80.6563864  30.1744097
  63.3090310  80.3160894  37.8306254  62.7288979  80.9745698  37.4484307
  63.0426243  79.4938239  37.4193672  61.7593877  79.7165952  40.0327574
  62.2593655  79.8282487  39.2241893  62.4029484  79.4127005  40.6728383
  55.8175872  87.6244582  52.9195415  55.3342954  88.4244942  53.1259304
  55.9036811  87.6352527  51.9662859  62.0915188  82.4760985  36.8862602
  61.2041043  82.7610635  36.6682797  62.5069177  82.3154748  36.0389879
  65.4429724  82.5007506  40.6016942  66.2190114  82.9903958  40.8741558
  64.7177859  82.9265560  41.0588811  47.5883506  84.4188366  48.2226844
  48.2342370  83.9087320  48.7114069  47.3800657  85.1557048  48.7970269
  56.1087117  78.6828411  33.9750740  56.0965787  79.6270251  34.1319011
  57.0010539  78.4998556  33.6810201  59.9239236  75.2771188  38.2296677
  59.1571632  74.7229674  38.3753359  60.3349941  75.3493056  39.0910829
  51.9280997  81.5655983  52.3201858  52.7912459  81.2092788  52.5305183
  51.3546408  81.2269878  53.0077262  17.5760603   3.5560374  29.8509566
  18.2139013   3.4367121  29.1472906  17.4581446   4.5041218  29.9097518
  14.3850309   3.5087802  29.7871091  14.0468821   3.3928867  28.8991625
  15.2540077   3.1078967  29.7672097  14.8670092   4.6622654  35.7457296
  14.8558733   4.2675452  34.8737800  15.0290732   3.9288726  36.3391067
  15.8236684   9.0294246  21.0882446  15.1724663   9.6148327  20.7016460
  16.6181046   9.5600441  21.1477484  11.5877353   7.4459766  34.6936480
  11.2967219   8.3505396  34.5783146  12.2234338   7.4876293  35.4080550
  12.5133560   4.8236614  31.2837840  13.1097133   4.5992637  30.5694803
  12.5708532   4.0821360  31.8863288  17.1301871   1.2811828  26.9262774
  17.9164961   0.8631251  26.5753191  17.3940576   2.1857920  27.0944422
  22.5310299   1.2187061  27.8295752  23.2635471   0.6486278  28.0633582
  21.7749654   0.8308662  28.2702258  14.1486418   3.6414303  25.0259095
  13.7844626   3.1144924  25.7372016  15.0053534   3.2512772  24.8525580
  16.5467238   7.1321181  31.6886274  16.2467962   8.0346220  31.5802081
  16.2018298   6.8653364  32.5407427  19.9464382  -0.3496279  29.3683711
  19.0381260  -0.4180870  29.0742472  19.8951978   0.1275666  30.1965537
  11.5288018  13.8965502  24.6557241  11.4512048  14.8473327  24.7345722
  10.9249662  13.5511374  25.3132168  17.7506960   6.0207961  35.4708737
  18.1590316   5.5790371  34.7263369  17.0284222   5.4460588  35.7242930
  18.0735775   6.5809151  29.2261026  17.4444637   6.7454866  28.5237094
  17.6861437   6.9950761  29.9971990  21.9525007   7.5163589  26.5805389
  21.2676045   7.8962491  26.0302423  22.0368856   8.1258916  27.3137337
  19.2075938   5.1623548  33.1800733  19.4192833   5.8055308  32.5035114
  19.1605686   4.3285865  32.7122663  13.6263737   6.3183559  26.4911111
  14.0902082   6.5971262  25.7015733  13.3620535   5.4167004  26.3084201
  10.5187818   5.8655041  29.4290874  11.0889175   6.2942309  28.7908359
  11.1095929   5.5837626  30.1275060  20.3221766   8.0395504  31.3523090
  21.1439210   7.6375691  31.0705772  20.3184169   7.9363738  32.3039206
  14.0878370   7.5879547  33.5083801  14.1522802   8.0499954  34.3441973
  13.3789293   6.9576912  33.6366111  28.4127759   4.3834252  27.7008062
  27.6591468   3.8141650  27.5452066  28.5475300   4.3496917  28.6478696
  13.8026387   9.2547654  23.3762781  13.6672062  10.0999190  23.8047629
  14.3436200   9.4566932  22.6128715   9.0650669   9.8888849  26.0313459
   9.2417298  10.8106813  25.8434443   9.8607503   9.5747268  26.4607839
  15.4294864   9.8771221  37.5063123  14.9858718   9.0907600  37.1884028
  16.0912077  10.0650371  36.8407014  10.1881985  11.4067023  32.0323802
  10.7389410  11.2784086  31.2600796   9.3493461  11.7061912  31.6818695
  17.5276102  10.1574021  35.5344524  17.5094577  10.9782902  35.0424794
  18.4496022  10.0328096  35.7594666  13.9849156   7.6718150  36.3768033
  14.5177493   6.9106439  36.1467341  13.4563237   7.3791802  37.1192187
  22.0903408   5.5219182  22.3487283  21.3132850   5.1830342  21.9042445
  22.7694889   5.5271805  21.6742248  15.3501869   6.8004143  23.8886845
  14.8223230   6.0656902  23.5760082  14.8489371   7.5778819  23.6426813
  20.3294715   4.9953163  29.0053891  19.6718389   5.6852425  29.0934020
  21.1335114   5.3849595  29.3487878  19.1400173   3.3497536  27.0557833
  19.6532055   3.9827528  27.5579543  19.7901397   2.7498732  26.6901193
  16.4022548  13.3281860  19.8118504  15.7284246  13.6313557  20.4203462
  16.7888370  14.1310941  19.4623961  16.4016052   2.2238407  24.4318854
  17.1487871   2.7359804  24.1225976  16.6707642   1.9022460  25.2923247
  19.9061970   8.3303537  25.1836976  19.4524297   7.4894447  25.2402166
  19.2755936   8.9664936  25.5211756  18.3494909  10.1680034  26.1186794
  18.6417883  10.7285091  25.3999159  18.8593529  10.4608595  26.8739953
  13.3128534  10.9460385  27.2080247  13.2704713  11.1721232  26.2788779
  14.2291233  10.7123760  27.3566048  16.7594168   1.4144453  34.1060876
  17.1143555   1.6415926  34.9655342  17.4066299   1.7462830  33.4838131
  22.4891905   4.5362889  24.8110205  22.3509803   4.7264485  23.8831394
  22.1328124   5.2982272  25.2678256  22.5161284   6.6039416  29.8221477
  22.9497791   6.5114705  30.6704531  23.2292865   6.5796916  29.1841493
  11.4294335   7.8223414  27.0042210  12.2234933   7.3273734  26.8024785
  10.7186027   7.2941277  26.6409915  16.2489179  10.2041510  31.3554577
  16.3026202  10.7732446  32.1232293  15.3803961  10.3743395  30.9908614
  23.3776834   6.6463116  32.3554362  23.5712724   7.5508927  32.6013637
  23.2777452   6.1870535  33.1892947  18.4391943   6.7969859  37.9295243
  18.2877449   6.5680411  37.0125326  18.4296622   7.7540461  37.9426588
  15.2077279   4.3701772  32.9141509  16.1369339   4.5212931  32.7410476
  14.7868309   4.4585793  32.0590156  14.0065611   8.3952436  30.6840047
  13.8676696   8.0271221  31.5565985  13.2180207   8.9100076  30.5124005
  14.6013763  13.4961533  22.0265583  14.7765518  13.0249576  22.8411206
  13.9146551  14.1227299  22.2546844  15.5570826   7.7734039  28.0728884
  15.2220659   7.7334809  28.9686534  15.0574772   7.1078755  27.5999295
  20.1484149   9.8288982  36.0071725  20.0896695   9.1448202  35.3402308
  20.5503668  10.5707972  35.5552350   9.1674848  16.6450896  28.8005443
   9.4071446  17.2769420  29.4784462   8.3244044  16.2938936  29.0870803
  20.1501556   7.7928566  34.2385704  19.2628335   7.4554487  34.3612103
  20.7200108   7.0611597  34.4754470  13.6802710  12.4530018  31.2046947
  13.6072881  13.2584989  31.7166252  13.2380103  12.6521984  30.3794969
  13.4692489  11.6901788  24.7149769  12.6860011  12.2323468  24.8087993
  14.1685235  12.2075768  25.1144010  24.6318897   3.2036783  29.0002266
  24.6208773   4.0861498  28.6296199  23.7636276   2.8508334  28.8056803
  16.1401393  12.3516852  33.3605106  16.8529366  12.9864317  33.2881008
  15.6491422  12.4480718  32.5445108  17.8618920   6.2568105  24.9322398
  16.9275199   6.3769567  24.7627102  18.0395589   5.3540571  24.6682408
  21.2491472   2.0985424  25.4672432  21.7151924   2.9313416  25.3932735
  21.6998972   1.6330406  26.1717690  11.1913307  10.1011295  34.1810677
  11.8922766  10.7347778  34.3340071  10.7208422  10.4426027  33.4206316
  19.3167703   8.4429245  22.4658584  19.5927547   8.3285840  23.3752458
  18.4472201   8.0446730  22.4270757  18.9914593   2.6555903  32.0063227
  18.3386043   2.9031810  31.3515680  19.3694973   1.8420041  31.6725705
  15.9521767  12.6915596  26.1091398  16.1344161  11.8737252  26.5719150
  16.7754753  12.9083288  25.6716288  16.2863932  11.6183781  23.3706446
  16.8151699  11.1076236  22.7576608  16.5492152  11.3026311  24.2351979
  15.0402166   3.3975714  38.4929264  14.3642803   3.2969843  39.1631640
  15.8629800   3.2414928  38.9565262   6.7881025   9.6347650  31.1141780
   7.3734462   8.8891338  31.2469684   6.5905863   9.9451607  31.9978443
   9.6419680  12.6698898  26.1304222   8.9730055  13.1545026  25.6468262
   9.5032550  12.9168118  27.0447600  13.7824949  14.7042641  32.7286880
  14.3343257  14.8674263  33.4935966  14.1231142  15.2947079  32.0566905
  18.6335823   9.5303899  38.5835535  19.1775727  10.1433857  38.0890490
  18.0522668  10.0883477  39.1002548  16.9193336  12.6524617  29.7150562
  16.7944476  11.8514357  29.2061508  17.5772427  13.1470810  29.2264532
  18.9828244  10.4533637  31.3430113  18.0358580  10.3338988  31.2708439
  19.3311018   9.5656135  31.4256374  15.9874678  10.2486353  27.5434465
  15.8399640   9.3203061  27.7242035  16.8128171  10.2706444  27.0591540
  19.5908800  11.0714912  28.6299338  20.5155347  10.8657773  28.4923789
  19.4224103  10.8231313  29.5388679  19.3804116  11.5900579  23.9861429
  19.5540993  11.0247002  23.2335281  19.8733007  12.3901474  23.8040919
  25.2343507   4.3537002  25.6051729  25.6774653   3.6044328  25.2070852
  24.3570017   4.3447139  25.2225461  20.3679288  10.9067344  21.0858327
  21.0630193  11.5274036  21.3045642  20.7102438  10.0562695  21.3610705
  22.2670711   8.3567049  22.6145658  22.7922036   8.6954322  21.8894978
  22.1793064   7.4214065  22.4308793  13.9290760  12.2701123  34.7435535
  14.2377887  12.0250270  35.6158234  14.7266242  12.4747761  34.2554405
  13.9511372  14.4239033  26.9740911  13.5116362  13.9315411  27.6673768
  14.7019489  13.8812000  26.7332986   6.4303711  10.6150573  26.9765539
   7.2561731  10.3154345  26.5964183   6.0797763   9.8458196  27.4255328
  11.3985244   9.9677042  29.0463213  10.7765254   9.3047747  28.7465441
  12.0690111   9.9938174  28.3636861  21.9564617   8.9899953  37.9196856
  21.1660161   8.9724092  37.3801355  21.7197972   9.5288247  38.6745893
  22.0762493   5.8392419  35.2329585  22.1260497   5.6742427  36.1745107
  21.9676416   4.9719678  34.8427465  19.3666255   1.8223347  36.5488891
  20.2676118   1.6829812  36.2572889  19.4414229   1.9877802  37.4887069
  23.5780689   8.2589361  35.4771606  23.2865498   8.6219341  36.3135067
  22.9652821   7.5456369  35.2984938  24.7776372   5.8242241  27.9974176
  25.6123263   6.2632045  28.1611737  24.9135500   5.3480894  27.1782422
  21.8267878   3.3821975  33.9451664  22.3021999   3.5749622  33.1370515
  20.9033443   3.4381161  33.6995048  20.5269547   0.2587736  32.1779970
  21.4786969   0.3585833  32.1992194  20.3572997  -0.5333996  32.6878054
  17.6791417  11.2966246  21.1242003  18.6122090  11.2311807  21.3274879
  17.5914629  12.1322512  20.6656536  20.3079433  10.6132116  18.0845951
  20.2293065  10.2791980  18.9781709  21.1289100  11.1053884  18.0837423
  23.0057624   3.4793855  31.2922269  22.9733944   2.5409856  31.4781953
  23.6158248   3.5577892  30.5588094  23.1552113   0.2704899  31.3380553
  22.6391162  -0.5136645  31.1510481  24.0392061  -0.0576385  31.5027072
  28.8234174   4.5409862  30.4328306  29.5537563   4.2795150  30.9936009
  28.2141120   3.8038584  30.4730374  26.9049471   2.6817725  31.0302757
  26.1782635   2.5473690  30.4219249  26.4896758   2.9894553  31.8359475
  14.7279648   6.4007654  38.7950130  15.6482657   6.5786253  38.9890177
  14.6929231   5.4563700  38.6429830  22.0854708  -1.8098042  27.3262248
  22.8615098  -1.3201590  27.5986865  21.3602842  -1.3839988  27.7834118
  24.5227266  -1.0970423  28.3836189  25.1171757  -1.3374687  27.6729497
  24.5953850  -1.8163293  29.0109725   6.7424422  12.7463188  28.6979354
   6.6078890  11.9863589  28.1317352   6.3256484  13.4704088  28.2308143
  18.7081195   3.6809973  23.8258199  18.6516397   4.1378524  22.9865832
  19.2609538   2.9200657  23.6481042  22.5186001  -0.5300295  24.6508319
  22.2622935  -0.9303660  25.4816526  21.8938869   0.1843498  24.5258458
  26.8298339   2.2095778  27.1579610  26.2697897   2.2788967  27.9311172
  26.2241842   2.0336762  26.4379106   9.8993548  13.6432505  28.9097796
   9.7825932  14.5877937  28.8076487   9.0785994  13.3406066  29.2983596
  19.7870082   8.3682641  19.7554389  20.6215686   7.9363839  19.5731864
  19.6254425   8.1964654  20.6831284  16.7561882   7.1763666  40.4464291
  17.6253041   7.3504318  40.0850926  16.2768633   7.9958083  40.3240020
  10.9248062  14.2960767  32.1253725  11.8275309  14.3284377  32.4420220
  10.6985432  13.3661218  32.1400061  12.6801664  13.0491753  28.7863803
  11.7297295  13.0493615  28.6728176  12.9834150  12.3024488  28.2699838
  21.0830879  20.6915196  25.7767981  20.5195745  20.6005133  25.0084269
  20.9683275  19.8715101  26.2570474  18.6295311  22.1866388  28.6152202
  19.4216603  21.8457212  28.1998501  18.8691962  22.2961363  29.5354355
  20.5886065  21.4475301  21.4869581  21.3616941  20.9004288  21.3482457
  20.9411464  22.3119550  21.6984042  22.9252343  17.6067967  19.1188031
  23.1777864  17.0849488  18.3571494  21.9876902  17.4434113  19.2214714
  27.9695626  16.6103746  26.9262774  28.7558715  16.1923169  26.5753191
  28.2334330  17.5149838  27.0944422  28.1405703  22.0476596  21.6251431
  27.5051536  22.1211222  22.3372335  27.8103110  22.6370195  20.9470510
  33.3704053  16.5478979  27.8295752  34.1029225  15.9778196  28.0633582
  32.6143409  16.1600579  28.2702258  22.6448632  19.5096073  21.3212406
  22.5284890  18.8340977  21.9893490  22.7550892  19.0228447  20.5044559
  24.9880173  18.9706220  25.0259095  24.6238380  18.4436841  25.7372016
  25.8447289  18.5804689  24.8525580  30.8929473  10.2600553  32.2890361
  30.5612798  11.1295964  32.0651576  30.2975087   9.9436837  32.9684391
  24.6285660  13.9996120  20.0220443  24.7960062  14.8676356  20.3890914
  24.4382829  14.1623402  19.0981733  20.8373474  18.9126896  27.7222978
  19.9123971  18.7803110  27.9300670  21.0857888  19.6921115  28.2192921
  30.7858137  14.9795639  29.3683711  29.8775014  14.9111047  29.0742472
  30.7345733  15.4567584  30.1965537  24.6074881  16.4553777  21.0067110
  24.4874506  16.9010828  21.8452590  23.9127469  16.8039095  20.4480648
  18.1982285  18.5560169  28.5566767  18.3274667  18.8094648  29.4706179
  17.5179737  19.1487877  28.2371422  24.8599003  16.3985285  37.3118608
  24.0832337  16.9579205  37.3021473  25.4989566  16.8842068  37.8333478
  32.6519783  13.1812077  31.1461585  32.0094163  13.4744611  30.5001380
  32.1474712  13.0664998  31.9514782  30.3059947  16.9275251  21.8347444
  31.2177803  17.1602637  21.6595142  29.7969594  17.5112295  21.2722523
  24.9431785  16.2872485  32.8442294  25.7892980  16.7111899  32.9876943
  24.8830422  15.6306110  33.5380857  28.0931230  13.9476854  34.5023467
  27.8492162  14.7018914  33.9657743  28.3691160  14.3262201  35.3370714
  27.6495922  13.1033287  30.0837305  26.7880401  13.4014540  30.3754043
  27.6758356  13.3203685  29.1518338  23.4026377  17.7698630  23.3000676
  24.1050420  18.2219673  23.7674602  23.0707006  17.1282448  23.9280569
  21.8506739  16.3610386  37.6751885  21.2205399  17.0426667  37.9087282
  21.7442826  16.2493468  36.7305024  17.1451711  16.0282182  28.6017809
  16.3550765  16.2839711  28.1257920  17.6362958  16.8430520  28.7069850
  19.0966456  16.3926761  25.5601286  18.2997620  16.5045456  26.0784782
  18.8692049  16.7313414  24.6942177  15.4289414  16.2812673  31.0332800
  15.6797452  17.1659683  31.2990376  15.9648962  16.1017274  30.2607892
  21.1287481  10.6631152  40.0377136  20.7354427  10.1097351  40.7124781
  21.9453622  10.9741730  40.4283654  18.0949539  22.1015010  23.9490706
  18.6074060  22.8958260  24.0996271  18.7472252  21.4041301  23.8824308
  24.0455442  12.0789031  37.6297393  24.7865156  12.6796184  37.5501855
  24.2773365  11.3366669  37.0715435  19.1896780  17.2645398  35.9075623
  19.0750295  16.3630656  36.2082722  18.3341298  17.5109095  35.5560439
  27.9912605   8.1070134  31.9061675  27.6476875   8.9971776  31.8300785
  28.3591568   7.9171792  31.0431260  16.0598456  20.4303664  24.7250277
  16.8973678  20.8400673  24.5083984  16.2376724  19.4903107  24.6950471
  27.9562888  18.0978745  20.4134110  27.4409511  18.8683350  20.6522497
  27.6840196  17.4243881  21.0367171  25.5409999  12.9428446  25.4719348
  24.6851595  12.5535296  25.2924987  25.9536951  13.0220407  24.6119134
  27.0709146  10.4774789  29.8710908  26.5673941  10.4404924  29.0578713
  27.3639753  11.3867532  29.9307565  23.3152032  10.5613519  28.8777090
  24.1805028  10.3656328  28.5182979  23.3829540  10.3323871  29.8046446
  32.9297162  20.8511100  22.3487283  32.1526605  20.5122259  21.9042445
  33.6088643  20.8563723  21.6742248  27.7449191  15.9705837  22.2393891
  27.4399327  16.2851986  23.0904034  28.6979633  16.0487257  22.2821224
  20.9214351  12.7915727  26.2493456  21.4958103  12.5690908  25.5166649
  21.5085333  12.8604421  27.0022058  29.9793928  18.6789454  27.0557833
  30.4925810  19.3119446  27.5579543  30.6295152  18.0790649  26.6901193
  21.2483938  14.8220188  20.2689342  20.4121250  15.1594874  20.5898616
  21.1088707  14.6869168  19.3316479  23.2237018   9.6656976  24.9768526
  22.5701431   9.3505993  24.3525141  23.1817492   9.0432716  25.7028349
  24.3348223  19.9476271  16.8921818  23.4275285  19.7165524  17.0912967
  24.8319255  19.1513890  17.0795799  26.4574759  16.1538909  29.3016173
  25.5397320  16.3753856  29.1437862  26.8734902  16.2285220  28.4427881
  27.2409806  17.5530325  24.4318854  27.9881625  18.0651722  24.1225976
  27.5101396  17.2314378  25.2923247  25.5136457  20.0488866  21.4145808
  24.6047676  19.7647898  21.5118278  25.5431540  20.4687944  20.5549115
  29.6888644  14.5887441  26.4137643  28.9511400  14.0764827  26.7447886
  29.9415417  14.1487823  25.6020920  29.7900271   7.3663693  27.0079412
  30.0959148   6.5061057  26.7205327  30.5152876   7.9581313  26.8078406
  16.0824627  17.7694380  25.3961010  15.8849027  17.1763741  24.6712077
  15.5271291  17.4646590  26.1136949  24.0621351  17.6617486  27.5155603
  24.1169960  16.7091323  27.4398080  23.2512553  17.8176925  27.9996902
  25.2112544  21.5897609  18.7533887  24.7731974  20.8733468  18.2939524
  25.9522985  21.8173724  18.1918978  22.0013711  16.2794546  25.2745982
  21.1881576  16.5788717  25.6811174  22.4972705  15.8850235  25.9920464
  21.4927785  13.8512902  30.8907217  22.1327165  13.7101661  30.1930180
  20.6605316  13.5647415  30.5145819  18.5770853  17.2958414  23.0801962
  17.6468441  17.2342869  23.2971924  18.6728325  16.7734366  22.2838604
  18.4956402  13.8213227  25.6680204  18.7563219  14.7358560  25.5589364
  19.3173574  13.3537669  25.8176817  19.9681327  15.2350984  32.8379028
  20.6404381  15.0268346  32.1891677  19.1411114  15.0373070  32.3984261
  25.8706899  11.8612925  34.8544689  25.2234814  12.5602874  34.7609166
  26.6407915  12.2949069  35.2220938  20.3708824  18.5093587  33.5981466
  20.2328622  17.7773826  34.1993005  21.2813748  18.4202487  33.3165653
  29.3323772  20.4481991  18.3465944  28.7152943  19.7228819  18.2498997
  28.8640260  21.2091351  18.0033018  21.7120059  15.2078764  34.9060785
  21.1757416  14.7569502  35.5582381  21.1236767  15.3424673  34.1631249
  21.1222318  14.6667415  17.4687248  20.2451784  14.5456216  17.1049495
  21.5980071  13.8753494  17.2166137  12.6424458  19.4544575  27.5628756
  13.3295498  19.1406305  26.9749771  12.4872587  20.3585940  27.2896007
  17.4459180  14.3434772  31.9913779  17.3617369  13.7360441  31.2564189
  16.6241887  14.8343790  31.9923276  27.6182894  12.8288335  27.3583974
  28.1151594  12.0758297  27.0385045  26.8469876  12.8652652  26.7927184
  24.2017863  14.9705718  27.0855659  23.8315650  14.4176758  27.7736564
  24.6976955  14.3663852  26.5330659  32.0885226  17.4277342  25.4672432
  32.5545678  18.2605333  25.3932735  32.5392727  16.9622323  26.1717690
  30.0601889   9.7957929  29.5063333  29.1464969  10.0262155  29.6745540
  30.4894990   9.8796373  30.3577366  17.6274779  24.9639568  31.1141780
  18.2128216  24.2183256  31.2469684  17.4299618  25.2743525  31.9978443
  12.2192434  17.5345168  29.8346223  12.2576534  17.0008759  30.6283341
  11.7132727  17.0080374  29.2157200  19.5983197  12.3809709  33.3308765
  19.6624523  13.2424540  32.9186163  19.5350317  11.7683711  32.5981124
  19.0735469  14.4532841  36.9781799  19.7007508  14.0709919  37.5919324
  18.2163388  14.2347043  37.3437492  15.8501012  16.2609271  22.9100154
  16.1454453  15.3519949  22.8567208  14.9489048  16.2397010  22.5881156
  19.3795259  14.3365267  28.8927703  18.6581845  14.9501235  28.7535176
  20.1688515  14.8723032  28.8144349  22.1821572  11.6719694  35.1668354
  22.7055974  11.9181990  35.9294664  21.9633906  12.5039728  34.7471492
  17.5788853  13.9423368  23.0339479  17.2501560  13.0620747  22.8514585
  17.9328224  13.8871037  23.9215868  20.6930677  14.2296338  23.4014957
  21.0326749  14.7582259  22.6793565  21.1402797  14.5676744  24.1773523
  23.3874117  12.6133389  32.8518025  23.0470938  11.8141202  33.2538705
  22.6813124  12.9135100  32.2794858  24.0390589   9.6982701  31.3045348
  24.8616659   9.2243179  31.1824238  24.2828653  10.4773185  31.8044034
  22.6798824  12.7270960  21.6008250  23.4007186  13.1052212  21.0971967
  22.0564128  13.4459836  21.7043228  26.8229947  13.4316109  22.5366582
  27.0393561  14.3140746  22.2355410  26.3424014  13.0402322  21.8072224
  21.5629168  16.3901822  29.1137327  21.4173749  16.7042125  30.0061608
  21.0854372  17.0086722  28.5608225  23.4225551  13.3804370  29.1618216
  23.4087120  12.4845463  28.8250514  24.1397979  13.3875034  29.7956502
  25.2751682  13.8141710  31.2071344  25.0169459  14.7358781  31.2055674
  24.7436722  13.4172145  31.8971808  16.0374830  18.9307166  32.0524988
  15.4928298  19.7066974  32.1845262  16.9154180  19.2777971  31.8944109
  22.8262447  12.2618750  24.4305786  22.9478358  11.3335396  24.6296674
  22.5364489  12.2757436  23.5184102  25.6953637   9.9473660  27.5672506
  25.7175334  10.0112994  26.6124486  26.1121696   9.1078169  27.7613012
  16.8240852  18.0577062  34.9455145  16.0822588  18.2059698  35.5319775
  16.5033596  18.3185328  34.0821894  17.2697466  25.9442491  26.9765539
  18.0955486  25.6446263  26.5964183  16.9191518  25.1750114  27.4255328
  15.4706071  23.8628818  27.9354473  14.6337979  23.4350992  27.7538474
  15.4429716  24.0561261  28.8725264  22.3103526  13.7750747  38.6395719
  22.3591682  14.6512870  38.2573489  22.8526041  13.2328140  38.0667362
  24.5402815  14.5282120  35.3942078  23.6706124  14.8215686  35.1224666
  24.7762295  15.1122565  36.1149341  19.5545139  19.8738060  23.5282742
  19.3091181  18.9700390  23.7262952  19.7241053  19.8755211  22.5862220
  27.2441849  10.7461737  32.9107498  27.7623792  11.4822764  32.5853987
  26.8896981  11.0525730  33.7454257  18.8240786  15.6066418  21.0268904
  18.1310031  15.6810773  20.3708940  18.5792538  14.8426762  21.5490421
  27.4954443   7.1662019  28.4308395  27.7756197   6.4985208  29.0568821
  28.2805050   7.3591115  27.9183058  29.3877681  12.6735236  32.3639371
  28.7927613  12.9540249  31.6685859  29.1027377  13.1629137  33.1356112
  25.6834710  17.6781826  17.3349473  26.6293814  17.5488034  17.4037891
  25.3048955  16.9396488  17.8118902  31.6556594   9.3437832  27.2976365
  31.4581415   9.0352920  28.1819697  32.2656300  10.0699471  27.4274295
  23.8677627  15.6031802  17.2704359  22.9609082  15.3064915  17.3467072
  24.1453608  15.3061620  16.4038645  14.7855567  16.9238166  27.7203405
  14.4658352  16.0703474  27.4277779  14.2388995  17.1386744  28.4761372
  18.5635475  19.6400607  31.4372911  18.7821485  20.5717715  31.4560945
  18.9761249  19.2808581  32.2227715  25.4839693  10.1468692  23.4248600
  24.6740421   9.8015777  23.8003846  26.1724110   9.8376236  24.0136211
  27.4130241   9.2246739  25.0472897  27.9661280   9.6442192  25.7062920
  27.6500327   8.2982487  25.0895853  22.6376412  12.4618738  17.4116338
  23.4995576  12.7873636  17.6712155  22.8226756  11.6750233  16.8989404
  14.6543827  20.5441077  29.6896527  13.9607299  20.1295030  29.1766481
  15.4016818  20.5861614  29.0929945  30.7909048  11.3347264  24.5551561
  30.2107717  11.9932068  24.1729613  30.5244981  10.5124609  24.1438978
  29.2412614  10.7352322  26.7572881  29.7412393  10.8468856  25.9487200
  29.8848222  10.4313375  27.3973690  16.5680570  20.4759331  27.5662541
  16.5451258  20.5747018  26.6144425  16.8781206  21.3224482  27.8879708
  19.2267948  22.5335486  31.6809156  20.1811201  22.5019428  31.6139087
  19.0280471  22.0726110  32.4959382  29.5733926  13.4947354  23.6107909
  28.6859781  13.7797005  23.3928104  29.9887915  13.3341118  22.7635186
  32.9248462  13.5193875  27.3262248  33.7008852  14.0090328  27.5986865
  32.1996596  13.9451930  27.7834118  35.3621021  14.2321495  28.3836189
  35.9565512  13.9917231  27.6729497  35.4347604  13.5128625  29.0109725
  17.5818176  28.0755106  28.6979354  17.4472644  27.3155506  28.1317352
  17.1650239  28.7996005  28.2308143  29.5474950  19.0101890  23.8258199
  29.4910151  19.4670442  22.9865832  30.1003292  18.2492575  23.6481042
  33.3579756  14.7991622  24.6508319  33.1016690  14.3988258  25.4816526
  32.7332624  15.5135416  24.5258458  37.6692094  17.5387695  27.1579610
  37.1091652  17.6080885  27.9311172  37.0635597  17.3628680  26.4379106
  30.2809729  20.2006672  21.1210728  30.2258533  20.0350943  20.1799172
  29.6555784  20.9082704  21.2772918  15.0702244  15.4374736  34.9472151
  15.7161108  14.9273690  35.4359376  14.8619395  16.1743418  35.5215576
  23.5905855   9.7014781  20.6996047  23.5784524  10.6456620  20.8564318
  24.4829276   9.5184926  20.4055508  27.4057974   6.2957557  24.9541984
  26.6390370   5.7416044  25.0998666  27.8168679   6.3679426  25.8156135
  19.4099735  12.5842353  39.0447165  20.2731197  12.2279158  39.2550489
  18.8365146  12.2456248  39.7322569  37.5024193  39.6878082  21.0882446
  36.8512172  40.2732162  20.7016460  38.2968555  40.2184276  21.1477484
  33.7646098  32.9359885  19.1188031  34.0171618  32.4141406  18.3571494
  32.8270657  32.7726030  19.2214714  38.9799458  37.3768514  21.6251431
  38.3445291  37.4503140  22.3372335  38.6496864  37.9662112  20.9470510
  35.4679414  29.3288038  20.0220443  35.6353817  30.1968274  20.3890914
  35.2776583  29.4915319  19.0981733  35.4468635  31.7845695  21.0067110
  35.3268260  32.2302746  21.8452590  34.7521224  32.1331013  20.4480648
  41.1453701  32.2567168  21.8347444  42.0571557  32.4894555  21.6595142
  40.6363348  32.8404212  21.2722523  38.7956642  33.4270663  20.4134110
  38.2803266  34.1975267  20.6522497  38.5233951  32.7535799  21.0367171
  43.7690917  36.1803017  22.3487283  42.9920359  35.8414177  21.9042445
  44.4482398  36.1855641  21.6742248  38.5842946  31.2997755  22.2393891
  38.2793081  31.6143904  23.0904034  39.5373388  31.3779175  22.2821224
  37.0289377  37.4587978  23.8886845  36.5010739  36.7240738  23.5760082
  36.5276880  38.2362655  23.6426813  35.1741978  35.2768188  16.8921818
  34.2669039  35.0457442  17.0912967  35.6713010  34.4805808  17.0795799
  38.0810057  43.9865696  19.8118504  37.4071755  44.2897392  20.4203462
  38.4675879  44.7894776  19.4623961  36.0506299  36.9189527  18.7533887
  35.6125729  36.2025386  18.2939524  36.7916740  37.1465642  18.1918978
  40.1717527  35.7773909  18.3465944  39.5546697  35.0520737  18.2498997
  39.7034015  36.5383269  18.0033018  31.9616072  29.9959333  17.4687248
  31.0845539  29.8748134  17.1049495  32.4373826  29.2045411  17.2166137
  46.3106406  33.8620618  29.0002266  46.2996282  34.7445334  28.6296199
  45.4423785  33.5092169  28.8056803  39.5406429  36.9151940  24.9322398
  38.6062708  37.0353402  24.7627102  39.7183098  36.0124407  24.6682408
  40.9955212  39.1013081  22.4658584  41.2715056  38.9869675  23.3752458
  40.1259710  38.7030565  22.4270757  42.0466797  41.5651179  21.0858327
  42.7417702  42.1857872  21.3045642  42.3889947  40.7146530  21.3610705
  43.9458220  39.0150885  22.6145658  44.4709544  39.3538157  21.8894978
  43.8580573  38.0797900  22.4308793  36.1381666  41.6712931  19.9933421
  35.5655633  42.2903118  19.5403893  36.7114459  42.2212293  20.5273343
  39.3578926  41.9550081  21.1242003  40.2909599  41.8895643  21.3274879
  39.2702138  42.7906348  20.6656536  41.9866942  41.2715951  18.0845951
  41.9080574  40.9375815  18.9781709  42.8076609  41.7637719  18.0837423
  36.5228464  33.0073744  17.3349473  37.4687569  32.8779952  17.4037891
  36.1442709  32.2688406  17.8118902  34.7071381  30.9323720  17.2704359
  33.8002837  30.6356833  17.3467072  34.9847362  30.6353538  16.4038645
  33.4770166  27.7910655  17.4116338  34.3389330  28.1165554  17.6712155
  33.6620510  27.0042151  16.8989404  40.4127681  28.8239272  23.6107909
  39.5253536  29.1088923  23.3928104  40.8281670  28.6633035  22.7635186
  43.7642217  28.8485793  27.3262248  44.5402607  29.3382245  27.5986865
  43.0390351  29.2743847  27.7834118  39.5570894  38.5883947  17.7055929
  40.2606744  38.7933949  18.3213585  38.8333543  39.1560709  17.9705013
  44.1973510  30.1283540  24.6508319  43.9410444  29.7280176  25.4816526
  43.5726378  30.8427334  24.5258458  48.5085848  32.8679613  27.1579610
  47.9485406  32.9372802  27.9311172  47.9029351  32.6920598  26.4379106
  41.4657591  39.0266476  19.7554389  42.3003195  38.5947674  19.5731864
  41.3041934  38.8548490  20.6831284  41.1203484  35.5298589  21.1210728
  41.0652287  35.3642861  20.1799172  40.4949539  36.2374622  21.2772918
  48.3417947  55.0169999  21.0882446  47.6905927  55.6024080  20.7016460
  49.1362310  55.5476194  21.1477484  44.6039852  48.2651803  19.1188031
  44.8565373  47.7433324  18.3571494  43.6664411  48.1017948  19.2214714
  49.8193212  52.7060431  21.6251431  49.1839045  52.7795058  22.3372335
  49.4890619  53.2954030  20.9470510  55.0491562  47.2062814  27.8295752
  55.7816734  46.6362031  28.0633582  54.2930918  46.8184415  28.2702258
  46.6667682  49.6290056  25.0259095  46.3025889  49.1020677  25.7372016
  47.5234798  49.2388525  24.8525580  46.3073169  44.6579955  20.0220443
  46.4747571  45.5260192  20.3890914  46.1170338  44.8207237  19.0981733
  46.2862390  47.1137613  21.0067110  46.1662015  47.5594664  21.8452590
  45.5914978  47.4622930  20.4480648  44.0469282  59.8841255  24.6557241
  43.9693311  60.8349080  24.7345722  43.4430925  59.5387127  25.3132168
  51.9847456  47.5859086  21.8347444  52.8965312  47.8186473  21.6595142
  51.4757103  48.1696130  21.2722523  54.4706270  53.5039342  26.5805389
  53.7857308  53.8838244  26.0302423  54.5550119  54.1134669  27.3137337
  60.9309023  50.3710005  27.7008062  60.1772731  49.8017403  27.5452066
  61.0656564  50.3372670  28.6478696  46.3207651  55.2423407  23.3762781
  46.1853325  56.0874943  23.8047629  46.8617463  55.4442685  22.6128715
  49.6350397  48.7562580  20.4134110  49.1197020  49.5267185  20.6522497
  49.3627705  48.0827717  21.0367171  47.2197508  43.6012281  25.4719348
  46.3639104  43.2119132  25.2924987  47.6324460  43.6804242  24.6119134
  54.6084671  51.5094935  22.3487283  53.8314114  51.1706095  21.9042445
  55.2876152  51.5147558  21.6742248  49.4236700  46.6289673  22.2393891
  49.1186836  46.9435822  23.0904034  50.3767142  46.7071092  22.2821224
  47.8683132  52.7879896  23.8886845  47.3404494  52.0532655  23.5760082
  47.3670635  53.5654572  23.6426813  42.9271447  45.4804023  20.2689342
  42.0908759  45.8178710  20.5898616  42.7876216  45.3453003  19.3316479
  46.0135732  50.6060106  16.8921818  45.1062794  50.3749360  17.0912967
  46.5106764  49.8097725  17.0795799  48.9203811  59.3157613  19.8118504
  48.2465510  59.6189310  20.4203462  49.3069633  60.1186694  19.4623961
  48.9197315  48.2114160  24.4318854  49.6669134  48.7235558  24.1225976
  49.1888905  47.8898213  25.2923247  47.1923966  50.7072701  21.4145808
  46.2835185  50.4231734  21.5118278  47.2219049  51.1271780  20.5549115
  52.4243233  54.3179291  25.1836976  51.9705560  53.4770200  25.2402166
  51.7937200  54.9540689  25.5211756  51.3676153  45.2471277  26.4137643
  50.6298909  44.7348663  26.7447886  51.6202926  44.8071658  25.6020920
  46.8900053  52.2481445  18.7533887  46.4519483  51.5317304  18.2939524
  47.6310494  52.4757560  18.1918978  55.0073168  50.5238642  24.8110205
  54.8691067  50.7140238  23.8831394  54.6509387  51.2858025  25.2678256
  47.1195026  59.4837286  22.0265583  47.2946782  59.0125329  22.8411206
  46.4327814  60.1103052  22.2546844  51.0111281  51.1065826  18.3465944
  50.3940452  50.3812655  18.2498997  50.5427769  51.8675187  18.0033018
  41.6856111  62.6326649  28.8005443  41.9252710  63.2645173  29.4784462
  40.8425308  62.2814689  29.0870803  42.8009827  45.3251251  17.4687248
  41.9239293  45.2040051  17.1049495  43.2767580  44.5337329  17.2166137
  45.9873753  57.6777541  24.7149769  45.2041275  58.2199221  24.8087993
  46.6866498  58.1951521  25.1144010  57.1500160  49.1912536  29.0002266
  57.1390037  50.0737251  28.6296199  56.2817540  48.8384087  28.8056803
  50.3800184  52.2443858  24.9322398  49.4456463  52.3645320  24.7627102
  50.5576852  51.3416324  24.6682408  53.7672735  48.0861177  25.4672432
  54.2333187  48.9189169  25.3932735  54.2180236  47.6206159  26.1717690
  51.8348966  54.4304998  22.4658584  52.1108810  54.3161593  23.3752458
  50.9653465  54.0322483  22.4270757  48.8045196  57.6059534  23.3706446
  49.3332962  57.0951989  22.7576608  49.0673415  57.2902064  24.2351979
  42.1600944  58.6574651  26.1304222  41.4911319  59.1420779  25.6468262
  42.0213813  58.9043871  27.0447600  48.5017456  44.0899944  22.5366582
  48.7181070  44.9724582  22.2355410  48.0211523  43.6986157  21.8072224
  51.8985379  57.5776332  23.9861429  52.0722257  57.0122755  23.2335281
  52.3914271  58.3777227  23.8040919  57.7524770  50.3412755  25.6051729
  58.1955916  49.5920081  25.2070852  56.8751281  50.3322892  25.2225461
  52.8860552  56.8943097  21.0858327  53.5811456  57.5149790  21.3045642
  53.2283702  56.0438448  21.3610705  54.7851975  54.3442802  22.6145658
  55.3103299  54.6830075  21.8894978  54.6974327  53.4089818  22.4308793
  43.4780015  54.5056718  22.5221673  43.6268135  55.1892182  21.8688346
  44.2846458  54.4861808  23.0371129  57.2957635  51.8117994  27.9974176
  58.1304527  52.2507798  28.1611737  57.4316764  51.3356647  27.1782422
  46.9775420  57.0004849  19.9933421  46.4049387  57.6195036  19.5403893
  47.5508214  57.5504210  20.5273343  50.1972680  57.2841999  21.1242003
  51.1303353  57.2187560  21.3274879  50.1095893  58.1198266  20.6656536
  52.8260697  56.6007869  18.0845951  52.7474328  56.2667733  18.9781709
  53.6470363  57.0929637  18.0837423  47.3622219  48.3365661  17.3349473
  48.3081323  48.2071869  17.4037891  46.9836464  47.5980323  17.8118902
  61.3415438  50.5285615  30.4328306  62.0718826  50.2670903  30.9936009
  60.7322383  49.7914337  30.4730374  59.4230735  48.6693478  31.0302757
  58.6963898  48.5349443  30.4219249  59.0078022  48.9770306  31.8359475
  45.5465136  46.2615638  17.2704359  44.6396591  45.9648750  17.3467072
  45.8241117  45.9645456  16.4038645  44.3163921  43.1202573  17.4116338
  45.1783084  43.4457471  17.6712155  44.5014265  42.3334069  16.8989404
  51.2521435  44.1531190  23.6107909  50.3647290  44.4380840  23.3928104
  51.6675424  43.9924953  22.7635186  57.0408530  44.8905330  28.3836189
  57.6353021  44.6501066  27.6729497  57.1135113  44.1712461  29.0109725
  39.2605685  58.7338941  28.6979354  39.1260153  57.9739342  28.1317352
  38.8437748  59.4579841  28.2308143  50.3964648  53.9175864  17.7055929
  51.1000499  54.1225867  18.3213585  49.6727297  54.4852626  17.9705013
  51.2262459  49.6685726  23.8258199  51.1697660  50.1254277  22.9865832
  51.7790801  48.9076410  23.6481042  55.0367265  45.4575458  24.6508319
  54.7804199  45.0572093  25.4816526  54.4120133  46.1719251  24.5258458
  59.3479603  48.1971531  27.1579610  58.7879160  48.2664720  27.9311172
  58.7423106  48.0212515  26.4379106  42.4174811  59.6308258  28.9097796
  42.3007195  60.5753690  28.8076487  41.5967258  59.3281819  29.2983596
  52.3051346  54.3558394  19.7554389  53.1396950  53.9239592  19.5731864
  52.1435689  54.1840407  20.6831284  51.9597238  50.8590507  21.1210728
  51.9046042  50.6934778  20.1799172  51.3343293  51.5666540  21.2772918
  45.2693364  40.3598616  20.6996047  45.2572033  41.3040456  20.8564318
  46.1616785  40.1768761  20.4055508  49.0845483  36.9541393  24.9541984
  48.3177879  36.3999879  25.0998666  49.4956188  37.0263261  25.8156135
  60.9335621  64.8728045  29.8509566  61.5714031  64.7534792  29.1472906
  60.8156464  65.8208889  29.9097518  59.1811702  70.3461917  21.0882446
  58.5299681  70.9315997  20.7016460  59.9756064  70.8768112  21.1477484
  53.1067329  67.4351054  21.4869581  53.8798205  66.8880041  21.3482457
  53.4592728  68.2995303  21.6984042  55.4433607  63.5943720  19.1188031
  55.6959127  63.0725241  18.3571494  54.5058166  63.4309866  19.2214714
  60.6586967  68.0352349  21.6251431  60.0232800  68.1086975  22.3372335
  60.3284373  68.6245948  20.9470510  65.8885317  62.5354732  27.8295752
  66.6210489  61.9653949  28.0633582  65.1324672  62.1476332  28.2702258
  55.1629895  65.4971826  21.3212406  55.0466153  64.8216730  21.9893490
  55.2732155  65.0104200  20.5044559  57.5061436  64.9581973  25.0259095
  57.1419644  64.4312594  25.7372016  58.3628552  64.5680442  24.8525580
  63.4110737  56.2476306  32.2890361  63.0794062  57.1171717  32.0651576
  62.8156350  55.9312590  32.9684391  57.1466923  59.9871873  20.0220443
  57.3141326  60.8552109  20.3890914  56.9564092  60.1499155  19.0981733
  59.9042256  68.4488852  31.6886274  59.6042980  69.3513891  31.5802081
  59.5593316  68.1821035  32.5407427  63.3039400  60.9671392  29.3683711
  62.3956278  60.8986800  29.0742472  63.2526996  61.4443337  30.1965537
  57.1256144  62.4429530  21.0067110  57.0055769  62.8886581  21.8452590
  56.4308733  62.7914848  20.4480648  54.8863036  75.2133172  24.6557241
  54.8087066  76.1640997  24.7345722  54.2824680  74.8679045  25.3132168
  65.1701047  59.1687830  31.1461585  64.5275427  59.4620364  30.5001380
  64.6655975  59.0540751  31.9514782  62.8241210  62.9151004  21.8347444
  63.7359066  63.1478390  21.6595142  62.3150857  63.4988048  21.2722523
  61.4310793  67.8976822  29.2261026  60.8019655  68.0622536  28.5237094
  61.0436455  68.3118432  29.9971990  65.3100025  68.8331260  26.5805389
  64.6251063  69.2130161  26.0302423  65.3943874  69.4426587  27.3137337
  62.5650956  66.4791219  33.1800733  62.7767851  67.1222979  32.5035114
  62.5180704  65.6453536  32.7122663  56.9838754  67.6351230  26.4911111
  57.4477100  67.9138933  25.7015733  56.7195553  66.7334675  26.3084201
  55.9207641  63.7574383  23.3000676  56.6231684  64.2095426  23.7674602
  55.5888269  63.1158201  23.9280569  63.6796784  69.3563174  31.3523090
  64.5014228  68.9543362  31.0705772  63.6759187  69.2531409  32.3039206
  57.4453388  68.9047218  33.5083801  57.5097820  69.3667625  34.3441973
  56.7364311  68.2744583  33.6366111  71.7702777  65.7001923  27.7008062
  71.0166486  65.1309321  27.5452066  71.9050318  65.6664587  28.6478696
  57.1601405  70.5715325  23.3762781  57.0247080  71.4166861  23.8047629
  57.7011218  70.7734603  22.6128715  50.6130803  68.0890763  23.9490706
  51.1255323  68.8834013  24.0996271  51.2653515  67.3917054  23.8824308
  52.4225687  71.2056519  26.0313459  52.5992316  72.1274484  25.8434443
  53.2182521  70.8914939  26.4607839  58.7869882  71.1938892  37.5063123
  58.3433736  70.4075270  37.1884028  59.4487095  71.3818042  36.8407014
  53.5457003  72.7234693  32.0323802  54.0964428  72.5951757  31.2600796
  52.7068479  73.0229582  31.6818695  60.8851120  71.4741692  35.5344524
  60.8669595  72.2950573  35.0424794  61.8071040  71.3495767  35.7594666
  60.5093869  54.0945887  31.9061675  60.1658138  54.9847529  31.8300785
  60.8772831  53.9047545  31.0431260  60.4744151  64.0854498  20.4134110
  59.9590775  64.8559103  20.6522497  60.2021460  63.4119634  21.0367171
  58.0591262  58.9304199  25.4719348  57.2032859  58.5411049  25.2924987
  58.4718214  59.0096160  24.6119134  65.4478426  66.8386853  22.3487283
  64.6707868  66.4998012  21.9042445  66.1269907  66.8439476  21.6742248
  60.2630455  61.9581590  22.2393891  59.9580590  62.2727739  23.0904034
  61.2160897  62.0363010  22.2821224  58.7076886  68.1171814  23.8886845
  58.1798248  67.3824573  23.5760082  58.2064389  68.8946490  23.6426813
  63.6869732  66.3120834  29.0053891  63.0293407  67.0020095  29.0934020
  64.4910132  66.7017266  29.3487878  62.4975191  64.6665207  27.0557833
  63.0107073  65.2995199  27.5579543  63.1476415  64.0666402  26.6901193
  53.7665201  60.8095941  20.2689342  52.9302513  61.1470627  20.5898616
  53.6269971  60.6744921  19.3316479  55.7418282  55.6532729  24.9768526
  55.0882694  55.3381746  24.3525141  55.6998756  55.0308469  25.7028349
  56.8529487  65.9352024  16.8921818  55.9456548  65.7041277  17.0912967
  57.3500519  65.1389643  17.0795799  59.7597566  74.6449531  19.8118504
  59.0859264  74.9481228  20.4203462  60.1463388  75.4478611  19.4623961
  59.7591070  63.5406078  24.4318854  60.5062889  64.0527475  24.1225976
  60.0282659  63.2190131  25.2923247  58.0317720  66.0364619  21.4145808
  57.1228939  65.7523652  21.5118278  58.0612804  66.4563697  20.5549115
  63.2636988  69.6471208  25.1836976  62.8099315  68.8062118  25.2402166
  62.6330954  70.2832607  25.5211756  62.2069907  60.5763194  26.4137643
  61.4692664  60.0640580  26.7447886  62.4596681  60.1363576  25.6020920
  61.7069927  71.4847705  26.1186794  61.9992901  72.0452762  25.3999159
  62.2168547  71.7776266  26.8739953  62.3081534  53.3539446  27.0079412
  62.6140411  52.4936810  26.7205327  63.0334139  53.9457066  26.8078406
  57.7293808  67.5773362  18.7533887  57.2913238  66.8609221  18.2939524
  58.4704249  67.8049477  18.1918978  56.6703552  72.2628056  27.2080247
  56.6279731  72.4888902  26.2788779  57.5866251  72.0291431  27.3566048
  65.8466923  65.8530559  24.8110205  65.7084821  66.0432155  23.8831394
  65.4903141  66.6149942  25.2678256  65.8736302  67.9207086  29.8221477
  66.3072809  67.8282376  30.6704531  66.5867883  67.8964587  29.1841493
  54.7869353  69.1391085  27.0042210  55.5809951  68.6441405  26.8024785
  54.0761045  68.6108948  26.6409915  59.6064197  71.5209181  31.3554577
  59.6601219  72.0900117  32.1232293  58.7378979  71.6911066  30.9908614
  51.0952116  63.2834167  23.0801962  50.1649704  63.2218622  23.2971924
  51.1909588  62.7610119  22.2838604  66.7351852  67.9630787  32.3554362
  66.9287742  68.8676598  32.6013637  66.6352470  67.5038206  33.1892947
  57.3640629  69.7120107  30.6840047  57.2251714  69.3438891  31.5565985
  56.5755225  70.2267746  30.5124005  57.9588781  74.8129203  22.0265583
  58.1340536  74.3417247  22.8411206  57.2721569  75.4394970  22.2546844
  58.9145844  69.0901710  28.0728884  58.5795676  69.0502480  28.9686534
  58.4149790  68.4246426  27.5999295  61.8505036  66.4357744  18.3465944
  61.2334206  65.7104572  18.2498997  61.3821524  67.1967104  18.0033018
  63.5059167  71.1456652  36.0071725  63.4471713  70.4615873  35.3402308
  63.9078686  71.8875642  35.5552350  52.5249866  77.9618566  28.8005443
  52.7646464  78.5937090  29.4784462  51.6819062  77.6106606  29.0870803
  53.6403581  60.6543168  17.4687248  52.7633048  60.5331969  17.1049495
  54.1161334  59.8629247  17.2166137  63.5076574  69.1096236  34.2385704
  62.6203353  68.7722158  34.3612103  64.0775125  68.3779268  34.4754470
  45.1605722  65.4420328  27.5628756  45.8476761  65.1282058  26.9749771
  45.0053850  66.3461693  27.2896007  57.0377728  73.7697689  31.2046947
  56.9647899  74.5752660  31.7166252  56.5955121  73.9689654  30.3794969
  56.8267507  73.0069459  24.7149769  56.0435029  73.5491139  24.8087993
  57.5260253  73.5243438  25.1144010  67.9893915  64.5204454  29.0002266
  67.9783791  65.4029169  28.6296199  67.1211294  64.1676005  28.8056803
  59.4976411  73.6684523  33.3605106  60.2104384  74.3031988  33.2881008
  59.0066440  73.7648389  32.5445108  61.2193938  67.5735775  24.9322398
  60.2850217  67.6937238  24.7627102  61.3970607  66.6708242  24.6682408
  64.6066490  63.4153095  25.4672432  65.0726942  64.2481086  25.3932735
  65.0573990  62.9498076  26.1717690  54.5488325  71.4178966  34.1810677
  55.2497784  72.0515449  34.3340071  54.0783440  71.7593698  33.4206316
  62.6742721  69.7596916  22.4658584  62.9502565  69.6453511  23.3752458
  61.8047219  69.3614401  22.4270757  62.5783152  55.7833682  29.5063333
  61.6646232  56.0137908  29.6745540  63.0076254  55.8672126  30.3577366
  62.3489611  63.9723574  32.0063227  61.6961061  64.2199481  31.3515680
  62.7269991  63.1587712  31.6725705  59.3096785  74.0083267  26.1091398
  59.4919179  73.1904923  26.5719150  60.1329771  74.2250959  25.6716288
  59.6438950  72.9351452  23.3706446  60.1726717  72.4243906  22.7576608
  59.9067170  72.6193982  24.2351979  52.9994698  73.9866569  26.1304222
  52.3305073  74.4712696  25.6468262  52.8607568  74.2335789  27.0447600
  57.1399967  76.0210312  32.7286880  57.6918275  76.1841934  33.4935966
  57.4806160  76.6114750  32.0566905  61.9910841  70.8471570  38.5835535
  62.5350745  71.4601528  38.0890490  61.4097686  71.4051148  39.1002548
  48.3682275  62.2485024  22.9100154  48.6635716  61.3395702  22.8567208
  47.4670311  62.2272763  22.5881156  60.2768354  73.9692288  29.7150562
  60.1519493  73.1682027  29.2061508  60.9347445  74.4638481  29.2264532
  62.3403262  71.7701308  31.3430113  61.3933598  71.6506659  31.2708439
  62.6886036  70.8823806  31.4256374  50.0970117  59.9299121  23.0339479
  49.7682823  59.0496500  22.8514585  50.4509488  59.8746790  23.9215868
  59.3449696  71.5654024  27.5434465  59.1974658  70.6370731  27.7242035
  60.1703189  71.5874115  27.0591540  53.2111940  60.2172091  23.4014957
  53.5508013  60.7458012  22.6793565  53.6584060  60.5552497  24.1773523
  62.9483818  72.3882583  28.6299338  63.8730365  72.1825444  28.4923789
  62.7799121  72.1398984  29.5388679  55.1980087  58.7146713  21.6008250
  55.9188450  59.0927965  21.0971967  54.5745391  59.4335589  21.7043228
  59.3411210  59.4191862  22.5366582  59.5574824  60.3016499  22.2355410
  58.8605277  59.0278075  21.8072224  62.7379134  72.9068250  23.9861429
  62.9116011  72.3414673  23.2335281  63.2308025  73.7069145  23.8040919
  55.3443710  58.2494503  24.4305786  55.4659621  57.3211149  24.6296674
  55.0545753  58.2633189  23.5184102  58.2134901  55.9349414  27.5672506
  58.2356597  55.9988747  26.6124486  58.6302960  55.0953922  27.7613012
  68.5918525  65.6704673  25.6051729  69.0349671  64.9211998  25.2070852
  67.7145035  65.6614809  25.2225461  63.7254306  72.2235015  21.0858327
  64.4205211  72.8441707  21.3045642  64.0677456  71.3730366  21.3610705
  65.6245729  69.6734720  22.6145658  66.1497053  70.0121993  21.8894978
  65.5368082  68.7381735  22.4308793  57.2865778  73.5868794  34.7435535
  57.5952905  73.3417940  35.6158234  58.0841260  73.7915432  34.2554405
  57.3086390  75.7406703  26.9740911  56.8691380  75.2483082  27.6673768
  58.0594507  75.1979671  26.7332986  49.7878729  71.9318244  26.9765539
  50.6136749  71.6322016  26.5964183  49.4372781  71.1625867  27.4255328
  54.7560262  71.2844712  29.0463213  54.1340272  70.6215417  28.7465441
  55.4265129  71.3105844  28.3636861  65.3139635  70.3067624  37.9196856
  64.5235179  70.2891763  37.3801355  65.0772990  70.8455917  38.6745893
  65.4337510  67.1560090  35.2329585  65.4835515  66.9910098  36.1745107
  65.3251434  66.2887349  34.8427465  54.3173769  69.8348636  22.5221673
  54.4661890  70.5184100  21.8688346  55.1240213  69.8153726  23.0371129
  66.9355707  69.5757032  35.4771606  66.6440516  69.9387012  36.3135067
  66.3227839  68.8624040  35.2984938  68.1351390  67.1409911  27.9974176
  68.9698281  67.5799715  28.1611737  68.2710518  66.6648565  27.1782422
  65.1842896  64.6989646  33.9451664  65.6597017  64.8917293  33.1370515
  64.2608461  64.7548832  33.6995048  52.0726402  65.8613813  23.5282742
  51.8272444  64.9576143  23.7262952  52.2422317  65.8630964  22.5862220
  51.3422050  61.5942171  21.0268904  50.6491295  61.6686526  20.3708940
  51.0973802  60.8302515  21.5490421  60.0135706  53.1537772  28.4308395
  60.2937460  52.4860961  29.0568821  60.7986313  53.3466868  27.9183058
  57.8169175  72.3296766  19.9933421  57.2443142  72.9486953  19.5403893
  58.3901968  72.8796128  20.5273343  63.8844565  61.5755406  32.1779970
  64.8361987  61.6753504  32.1992194  63.7148015  60.7833675  32.6878054
  61.9058944  58.6610990  32.3639371  61.3108876  58.9416002  31.6685859
  61.6208641  59.1504890  33.1356112  61.0366434  72.6133916  21.1242003
  61.9697108  72.5479478  21.3274879  60.9489647  73.4490183  20.6656536
  63.6654451  71.9299787  18.0845951  63.5868083  71.5959650  18.9781709
  64.4864118  72.4221555  18.0837423  66.3632642  64.7961526  31.2922269
  66.3308962  63.8577527  31.4781953  66.9733266  64.8745563  30.5588094
  58.2015973  63.6657579  17.3349473  59.1475078  63.5363787  17.4037891
  57.8230218  62.9272241  17.8118902  66.5127131  61.5872569  31.3380553
  65.9966179  60.8031026  31.1510481  67.3967079  61.2591286  31.5027072
  64.1737858  55.3313585  27.2976365  63.9762679  55.0228673  28.1819697
  64.7837563  56.0575224  27.4274295  72.1809192  65.8577533  30.4328306
  72.9112581  65.5962821  30.9936009  71.5716138  65.1206255  30.4730374
  70.2624489  63.9985395  31.0302757  69.5357653  63.8641360  30.4219249
  69.8471776  64.3062224  31.8359475  56.3858890  61.5907555  17.2704359
  55.4790346  61.2940668  17.3467072  56.6634871  61.2937373  16.4038645
  58.0020956  56.1344445  23.4248600  57.1921684  55.7891530  23.8003846
  58.6905373  55.8251989  24.0136211  59.9311504  55.2122492  25.0472897
  60.4842543  55.6317945  25.7062920  60.1681591  54.2858240  25.0895853
  55.1557675  58.4494491  17.4116338  56.0176839  58.7749389  17.6712155
  55.3408019  57.6625986  16.8989404  63.3090311  57.3223017  24.5551561
  62.7288981  57.9807821  24.1729613  63.0426244  56.5000362  24.1438978
  61.7593878  56.7228075  26.7572881  62.2593656  56.8344609  25.9487200
  62.4029486  56.4189128  27.3973690  62.0915189  59.4823107  23.6107909
  61.2041045  59.7672758  23.3928104  62.5069179  59.3216871  22.7635186
  65.4429726  59.5069628  27.3262248  66.2190116  59.9966081  27.5986865
  64.7177860  59.9327683  27.7834118  67.8802284  60.2197248  28.3836189
  68.4746775  59.9792984  27.6729497  67.9528868  59.5004378  29.0109725
  50.0999440  74.0630859  28.6979354  49.9653908  73.3031259  28.1317352
  49.6831502  74.7871758  28.2308143  61.2358403  69.2467782  17.7055929
  61.9394253  69.4517785  18.3213585  60.5121052  69.8144544  17.9705013
  62.0656213  64.9977643  23.8258199  62.0091415  65.4546195  22.9865832
  62.6184556  64.2368328  23.6481042  65.8761019  60.7867375  24.6508319
  65.6197953  60.3864011  25.4816526  65.2513887  61.5011169  24.5258458
  70.1873357  63.5263448  27.1579610  69.6272915  63.5956638  27.9311172
  69.5816860  63.3504433  26.4379106  53.2568566  74.9600176  28.9097796
  53.1400950  75.9045608  28.8076487  52.4361012  74.6573737  29.2983596
  63.1445100  69.6850311  19.7554389  63.9790704  69.2531510  19.5731864
  62.9829443  69.5132325  20.6831284  62.7990993  66.1882425  21.1210728
  62.7439796  66.0226696  20.1799172  62.1737048  66.8958457  21.2772918
  56.1087118  55.6890534  20.6996047  56.0965788  56.6332374  20.8564318
  57.0010540  55.5060679  20.4055508  54.2823080  75.6128437  32.1253725
  55.1850327  75.6452048  32.4420220  54.0560450  74.6828888  32.1400061
  56.0376682  74.3659424  28.7863803  55.0872313  74.3661286  28.6728176
  56.3409168  73.6192159  28.2699838  59.9239237  52.2833310  24.9541984
  59.1571633  51.7291797  25.0998666  60.3349942  52.3555179  25.8156135
  68.5819082  80.1547391  29.7871091  68.2437593  80.0388455  28.8991625
  69.4508850  79.7538556  29.7672097  64.4405897  82.0082867  25.7767981
  63.8770763  81.9172804  25.0084269  64.3258292  81.1882771  26.2570474
  69.0638865  81.3082242  35.7457296  69.0527505  80.9135040  34.8737800
  69.2259504  80.5748315  36.3391067  61.9870329  83.5034059  28.6152202
  62.7791621  83.1624883  28.1998501  62.2266980  83.6129034  29.5354355
  66.7102333  81.4696203  31.2837840  67.3065905  81.2452225  30.5694803
  66.7677304  80.7280948  31.8863288  71.3270644  77.9271416  26.9262774
  72.1133733  77.5090839  26.5753191  71.5909348  78.8317508  27.0944422
  68.3455191  80.2873891  25.0259095  67.9813398  79.7604512  25.7372016
  69.2022307  79.8972360  24.8525580  74.2504491  71.5768224  32.2890361
  73.9187816  72.4463635  32.0651576  73.6550105  71.2604508  32.9684391
  64.1948492  80.2294566  27.7222978  63.2698989  80.0970780  27.9300670
  64.4432906  81.0088786  28.2192921  74.1433155  76.2963310  29.3683711
  73.2350032  76.2278718  29.0742472  74.0920751  76.7735255  30.1965537
  61.5557303  79.8727840  28.5566767  61.6849685  80.1262319  29.4706179
  60.8754755  80.4655548  28.2371422  68.2174021  77.7152955  37.3118608
  67.4407355  78.2746875  37.3021473  68.8564584  78.2009738  37.8333478
  76.0094801  74.4979748  31.1461585  75.3669181  74.7912281  30.5001380
  75.5049730  74.3832668  31.9514782  66.4720393  80.5238409  36.8736575
  67.2135077  81.0623453  36.5971399  65.7657378  81.1504697  37.0308127
  68.3006803  77.6040156  32.8442294  69.1467998  78.0279569  32.9876943
  68.2405440  76.9473780  33.5380857  71.4506248  75.2644524  34.5023467
  71.2067180  76.0186585  33.9657743  71.7266178  75.6429872  35.3370714
  71.0070940  74.4200957  30.0837305  70.1455419  74.7182211  30.3754043
  71.0333374  74.6371356  29.1518338  64.7156590  82.5114629  29.4290874
  65.2857947  82.9401898  28.7908359  65.3064702  82.2297214  30.1275060
  66.7601395  79.0866300  23.3000676  67.4625438  79.5387344  23.7674602
  66.4282024  78.4450119  23.9280569  65.2081757  77.6778057  37.6751885
  64.5780417  78.3594338  37.9087282  65.1017844  77.5661138  36.7305024
  60.5026729  77.3449853  28.6017809  59.7125783  77.6007381  28.1257920
  60.9937976  78.1598191  28.7069850  62.4541474  77.7094432  25.5601286
  61.6572638  77.8213126  26.0784782  62.2267067  78.0481084  24.6942177
  58.7864432  77.5980343  31.0332800  59.0372470  78.4827353  31.2990376
  59.3223980  77.4184945  30.2607892  64.4862499  71.9798823  40.0377136
  64.0929445  71.4265021  40.7124781  65.3028640  72.2909401  40.4283654
  61.4524557  83.4182681  23.9490706  61.9649078  84.2125931  24.0996271
  62.1047270  82.7208971  23.8824308  67.4030460  73.3956702  37.6297393
  68.1440174  73.9963855  37.5501855  67.6348383  72.6534340  37.0715435
  62.5471798  78.5813069  35.9075623  62.4325313  77.6798326  36.2082722
  61.6916316  78.8276766  35.5560439  71.3487623  69.4237805  31.9061675
  71.0051893  70.3139446  31.8300785  71.7166586  69.2339462  31.0431260
  59.4173474  81.7471335  24.7250277  60.2548696  82.1568344  24.5083984
  59.5951742  80.8070777  24.6950471  68.8985017  74.2596117  25.4719348
  68.0426613  73.8702967  25.2924987  69.3111969  74.3388077  24.6119134
  70.4284164  71.7942460  29.8710908  69.9248959  71.7572595  29.0578713
  70.7214770  72.7035203  29.9307565  66.6727049  71.8781190  28.8777090
  67.5380046  71.6823998  28.5182979  66.7404558  71.6491541  29.8046446
  64.2789369  74.1083398  26.2493456  64.8533120  73.8858579  25.5166649
  64.8660351  74.1772092  27.0022058  66.5812036  70.9824646  24.9768526
  65.9276449  70.6673664  24.3525141  66.5392510  70.3600387  25.7028349
  69.8149777  77.4706580  29.3016173  68.8972338  77.6921527  29.1437862
  70.2309920  77.5452890  28.4427881  73.0463662  75.9055112  26.4137643
  72.3086418  75.3932498  26.7447886  73.2990435  75.4655494  25.6020920
  73.1475289  68.6831364  27.0079412  73.4534166  67.8228727  26.7205327
  73.8727894  69.2748984  26.8078406  59.4399645  79.0862051  25.3961010
  59.2424045  78.4931411  24.6712077  58.8846309  78.7814261  26.1136949
  67.4196369  78.9785157  27.5155603  67.4744978  78.0258993  27.4398080
  66.6087571  79.1344596  27.9996902  65.3588729  77.5962217  25.2745982
  64.5456594  77.8956387  25.6811174  65.8547723  77.2017905  25.9920464
  70.9562940  78.0604041  34.1060876  71.3112328  78.2875514  34.9655342
  71.6035071  78.3922418  33.4838131  64.8502803  75.1680572  30.8907217
  65.4902183  75.0269331  30.1930180  64.0180334  74.8815086  30.5145819
  61.9345871  78.6126084  23.0801962  61.0043459  78.5510540  23.2971924
  62.0303343  78.0902037  22.2838604  61.8531420  75.1380897  25.6680204
  62.1138237  76.0526230  25.5589364  62.6748592  74.6705340  25.8176817
  63.3256345  76.5518654  32.8379028  63.9979398  76.3436017  32.1891677
  62.4986132  76.3540740  32.3984261  69.2281917  73.1780595  34.8544689
  68.5809832  73.8770545  34.7609166  69.9982932  73.6116739  35.2220938
  63.7283842  79.8261257  33.5981466  63.5903640  79.0941496  34.1993005
  64.6388766  79.7370157  33.3165653  66.3566143  79.5381217  33.0865145
  67.0665762  78.8974409  33.0451764  66.3135451  79.7894112  34.0091326
  65.0695077  76.5246435  34.9060785  64.5332434  76.0737173  35.5582381
  64.4811785  76.6592343  34.1631249  55.9999476  80.7712246  27.5628756
  56.6870516  80.4573976  26.9749771  55.8447605  81.6753610  27.2896007
  60.8034198  75.6602442  31.9913779  60.7192387  75.0528112  31.2564189
  59.9816905  76.1511461  31.9923276  70.9757912  74.1456006  27.3583974
  71.4726612  73.3925968  27.0385045  70.2044894  74.1820322  26.7927184
  67.5592881  76.2873389  27.0855659  67.1890668  75.7344429  27.7736564
  68.0551973  75.6831522  26.5330659  73.4176907  71.1125599  29.5063333
  72.5039987  71.3429826  29.6745540  73.8470008  71.1964043  30.3577366
  69.2370938  80.0435302  38.4929264  68.5611575  79.9429432  39.1631640
  70.0598572  79.8874516  38.9565262  60.9849797  86.2807239  31.1141780
  61.5703234  85.5350927  31.2469684  60.7874636  86.5911196  31.9978443
  55.5767452  78.8512839  29.8346223  55.6151552  78.3176430  30.6283341
  55.0707745  78.3248045  29.2157200  62.9558214  73.6977380  33.3308765
  63.0199541  74.5592210  32.9186163  62.8925335  73.0851381  32.5981124
  62.4310487  75.7700512  36.9781799  63.0582526  75.3877589  37.5919324
  61.5738406  75.5514714  37.3437492  59.2076030  77.5776941  22.9100154
  59.5029471  76.6687620  22.8567208  58.3064066  77.5564681  22.5881156
  62.7370277  75.6532938  28.8927703  62.0156863  76.2668906  28.7535176
  63.5263533  76.1890703  28.8144349  65.5396590  72.9887364  35.1668354
  66.0630992  73.2349661  35.9294664  65.3208924  73.8207399  34.7471492
  60.9363871  75.2591039  23.0339479  60.6076577  74.3788418  22.8514585
  61.2903242  75.2038708  23.9215868  64.0505694  75.5464009  23.4014957
  64.3901767  76.0749930  22.6793565  64.4977815  75.8844415  24.1773523
  66.7449135  73.9301059  32.8518025  66.4045956  73.1308872  33.2538705
  66.0388142  74.2302770  32.2794858  67.3965607  71.0150372  31.3045348
  68.2191676  70.5410850  31.1824238  67.6403671  71.7940856  31.8044034
  66.0373842  74.0438630  21.6008250  66.7582204  74.4219883  21.0971967
  65.4139146  74.7627507  21.7043228  70.1804965  74.7483779  22.5366582
  70.3968579  75.6308417  22.2355410  69.6999032  74.3569993  21.8072224
  64.9204186  77.7069492  29.1137327  64.7748767  78.0209796  30.0061608
  64.4429390  78.3254393  28.5608225  66.7800569  74.6972040  29.1618216
  66.7662138  73.8013134  28.8250514  67.4972997  74.7042704  29.7956502
  68.6326700  75.1309381  31.2071344  68.3744477  76.0526451  31.2055674
  68.1011740  74.7339815  31.8971808  59.3949848  80.2474837  32.0524988
  58.8503316  81.0234645  32.1845262  60.2729198  80.5945641  31.8944109
  66.1837465  73.5786421  24.4305786  66.3053376  72.6503067  24.6296674
  65.8939507  73.5925107  23.5184102  69.0528655  71.2641331  27.5672506
  69.0750352  71.3280664  26.6124486  69.4696714  70.4245840  27.7613012
  60.1815870  79.3744733  34.9455145  59.4397606  79.5227369  35.5319775
  59.8608614  79.6352999  34.0821894  58.8281089  85.1796488  27.9354473
  57.9912997  84.7518663  27.7538474  58.8004734  85.3728932  28.8725264
  65.6678544  75.0918418  38.6395719  65.7166700  75.9680541  38.2573489
  66.2101058  74.5495811  38.0667362  67.8977833  75.8449791  35.3942078
  67.0281142  76.1383357  35.1224666  68.1337313  76.4290236  36.1149341
  62.9120157  81.1905731  23.5282742  62.6666199  80.2868061  23.7262952
  63.0816071  81.1922882  22.5862220  70.6016867  72.0629407  32.9107498
  71.1198810  72.7990434  32.5853987  70.2471999  72.3693401  33.7454257
  62.1815804  76.9234089  21.0268904  61.4885049  76.9978444  20.3708940
  61.9367556  76.1594432  21.5490421  70.8529461  68.4829690  28.4308395
  71.1331214  67.8152879  29.0568821  71.6380068  68.6758786  27.9183058
  72.7452699  73.9902907  32.3639371  72.1502631  74.2707920  31.6685859
  72.4602395  74.4796808  33.1356112  75.0131612  70.6605503  27.2976365
  74.8156433  70.3520591  28.1819697  75.6231318  71.3867142  27.4274295
  58.1430585  78.2405836  27.7203405  57.8233370  77.3871145  27.4277779
  57.5964013  78.4554415  28.4761372  61.9210493  80.9568277  31.4372911
  62.1396503  81.8885385  31.4560945  62.3336267  80.5976252  32.2227715
  68.8414711  71.4636363  23.4248600  68.0315439  71.1183448  23.8003846
  69.5299128  71.1543906  24.0136211  70.7705259  70.5414410  25.0472897
  71.3236297  70.9609863  25.7062920  71.0075345  69.6150158  25.0895853
  66.7938358  76.5301483  40.8275660  66.6935085  77.4795840  40.7587752
  66.5759900  76.2019722  39.9551731  58.0118845  81.8608748  29.6896527
  57.3182317  81.4462701  29.1766481  58.7591836  81.9029284  29.0929945
  74.1484066  72.6514935  24.5551561  73.5682735  73.3099739  24.1729613
  73.8819999  71.8292279  24.1438978  72.5987632  72.0519992  26.7572881
  73.0987411  72.1636527  25.9487200  73.2423240  71.7481045  27.3973690
  66.6569628  79.9598622  39.6440722  66.1736710  80.7598982  39.8504611
  66.7430567  79.9706567  38.6908166  59.9255588  81.7927002  27.5662541
  59.9026276  81.8914689  26.6144425  60.2356224  82.6392153  27.8879708
  62.5842966  83.8503157  31.6809156  63.5386219  83.8187099  31.6139087
  62.3855489  83.3893780  32.4959382  63.1742348  82.4204273  34.2479954
  63.9935237  82.9148351  34.2714791  63.4479155  81.5036241  34.2197521
  72.9308944  74.8115025  23.6107909  72.0434799  75.0964676  23.3928104
  73.3462933  74.6508788  22.7635186  76.2823480  74.8361546  27.3262248
  77.0583870  75.3257999  27.5986865  75.5571614  75.2619600  27.7834118
  58.4277262  76.7542407  34.9472151  59.0736126  76.2441361  35.4359376
  58.2194413  77.4911088  35.5215576  66.9480872  71.0182451  20.6996047
  66.9359542  71.9624291  20.8564318  67.8404294  70.8352597  20.4055508
  70.7632992  67.6125228  24.9541984  69.9965388  67.0583715  25.0998666
  71.1743697  67.6847097  25.8156135  62.7674753  73.9010024  39.0447165
  63.6306215  73.5446829  39.2550489  62.1940164  73.5623919  39.7322569
  26.2688619   2.2125261  24.2308430  25.8252474   1.4261640  23.9129334
  26.9305833   2.4004412  23.5652321  28.3669857   2.4928061  22.2589831
  28.3488333   3.3136942  21.7670100  29.2889777   2.3682136  22.4839972
  24.8242912   0.0072191  23.1013339  25.3571248  -0.7539521  22.8712647
  24.2956993  -0.2854158  23.8437494  34.2170590  -1.0182843  19.0799669
  34.4106480  -0.1137033  19.3258944  34.1171208  -1.4775424  19.9138254
  29.2785698  -0.8676101  24.6540549  29.1271205  -1.0965549  23.7370633
  29.2690378   0.0894501  24.6671894  30.9877905   2.1643022  22.7317031
  30.9290451   1.4802242  22.0647614  31.3897423   2.9062012  22.2797657
  30.9895312   0.1282606  20.9631011  30.1022091  -0.2091472  21.0857410
  31.5593863  -0.6034363  21.1999776  26.9795149   4.6870892  20.0850413
  27.6923121   5.3218357  20.0126314  26.4885178   4.7834758  19.2690415
  25.8795922  -4.2670246  25.2174571  25.2036559  -4.3676116  25.8876946
  26.7023556  -4.4231032  25.6810568  24.6218705   7.0396682  19.4532187
  25.1737013   7.2028303  20.2181272  24.9624898   7.6301120  18.7812212
  29.4729579   1.8657939  25.3080841  30.0169483   2.4787897  24.8135796
  28.8916424   2.4237518  25.8247854  24.7684516   4.6055163  21.4680841
  25.0771642   4.3604310  22.3403541  25.5659998   4.8101802  20.9799712
  32.7958373   1.3253993  24.6442163  32.0053917   1.3078132  24.1046662
  32.5591728   1.8642287  25.3991199  32.9156248  -1.8253540  21.9574891
  32.9654253  -1.9903533  22.8990414  32.8070172  -2.6926281  21.5672772
  34.4174445   0.5943401  22.2016913  34.1259253   0.9573382  23.0380374
  33.8046576  -0.1189591  22.0230245  25.5673404  -1.2638305  25.5195437
  26.4876413  -1.0859706  25.7135483  25.5322987  -2.2082260  25.3675136
  27.5955638  -0.4882294  27.1709598  28.4646797  -0.3141642  26.8096233
  27.1162389   0.3312123  27.0485327  39.2548113  11.2206332  16.5754872
  39.8926523  11.1013079  15.8718213  39.1368956  12.1687176  16.6342825
  36.0637820  11.1733760  16.5116397  35.7256331  11.0574825  15.6236932
  36.9327588  10.7724925  16.4917403  36.5457603  12.3268612  22.4702603
  36.5346243  11.9321410  21.5983106  36.7078242  11.5934684  23.0636374
  29.4689067  14.5220428  15.3397509  30.2610359  14.1811253  14.9243808
  29.7085717  14.6315403  16.2599662  37.5024194  16.6940204   7.8127753
  36.8512174  17.2794285   7.4261767  38.2968557  17.2246399   7.8722790
  33.2664864  15.1105724  21.4181787  32.9754730  16.0151354  21.3028453
  33.9021848  15.1522251  22.1325856  34.1921071  12.4882572  18.0083146
  34.7884643  12.2638595  17.2940109  34.2496042  11.7467318  18.6108594
  38.8089382   8.9457786  13.6508080  39.5952471   8.5277209  13.2998498
  39.0728086   9.8503878  13.8189729  44.2097809   8.8833019  14.5541059
  44.9422981   8.3132236  14.7878888  43.4537165   8.4954619  14.9947565
  35.8273929  11.3060261  11.7504401  35.4632136  10.7790881  12.4617323
  36.6841044  10.9158730  11.5770887  41.7323229   2.5954593  19.0135668
  41.4006554   3.4650004  18.7896883  41.1368843   2.2790877  19.6929698
  38.2254749  14.7967139  18.4131580  37.9255472  15.6992178  18.3047388
  37.8805808  14.5299322  19.2652733  31.6767230  11.2480936  14.4468285
  30.7517727  11.1157150  14.6545977  31.9251643  12.0275155  14.9438227
  41.6251893   7.3149679  16.0929018  40.7168770   7.2465088  15.7987779
  41.5739488   7.7921624  16.9210843  29.0376041  10.8914209  15.2812074
  29.1668422  11.1448688  16.1951486  28.3573493  11.4841917  14.9616729
  33.2075529  21.5611459  11.3802548  33.1299558  22.5119285  11.4591029
  32.6037172  21.2157332  12.0377474  35.6992758   8.7339325  24.0363915
  34.9226092   9.2933245  24.0266780  36.3383321   9.2196108  24.5578785
  43.4913539   5.5166118  17.8706892  42.8487919   5.8098651  17.2246686
  42.9868467   5.4019038  18.6760088  33.9539131  11.5424778  23.5981882
  34.6953815  12.0809822  23.3216706  33.2476116  12.1691067  23.7553434
  39.4294470  13.6853919  22.1954043  39.8377826  13.2436329  21.4508676
  38.7071732  13.1106546  22.4488236  35.7825540   8.6226525  19.5687600
  36.6286735   9.0465939  19.7122249  35.7224178   7.9660150  20.2626163
  39.7523285  14.2455109  15.9506332  39.1232147  14.4100823  15.2482400
  39.3648947  14.6596719  16.7217296  43.6312517  15.1809547  13.3050696
  42.9463555  15.5608449  12.7547729  43.7156366  15.7904874  14.0382644
  38.9324986   6.2830894  21.2268774  38.6885918   7.0372954  20.6903050
  39.2084916   6.6616241  22.0616021  40.8863448  12.8269506  19.9046040
  41.0980344  13.4701266  19.2280421  40.8393197  11.9931823  19.4367970
  38.4889677   5.4387327  16.8082612  37.6274156   5.7368580  17.0999349
  38.5152112   5.6557726  15.8763644  35.3051247  13.9829517  13.2156417
  35.7689592  14.2617220  12.4261040  35.0408045  13.0812962  13.0329508
  32.1975328  13.5300999  16.1536181  32.7676685  13.9588267  15.5153665
  32.7883440  13.2483584  16.8520366  32.6900494   8.6964426  24.3997192
  32.0599155   9.3780707  24.6332589  32.5836582   8.5847508  23.4550330
  42.0009276  15.7041462  18.0768397  42.8226720  15.3021649  17.7951079
  41.9971679  15.6009696  19.0284513  35.7665880  15.2525505  20.2329107
  35.8310312  15.7145912  21.0687279  35.0576804  14.6222870  20.3611417
  26.2683170   8.6166713  17.7578107  26.5191208   9.5013723  18.0235683
  26.8042718   8.4371314  16.9853199  50.0915269  12.0480210  14.4253368
  49.3378978  11.4787608  14.2697373  50.2262811  12.0142875  15.3724003
  35.4813897  16.9193612  10.1008088  35.3459572  17.7645148  10.5292936
  36.0223710  17.1212890   9.3374022  31.9681237   2.9985192  26.7622443
  31.5748183   2.4451391  27.4370087  32.7847377   3.3095771  27.1528961
  30.7438180  17.5534807  12.7558766  30.9204808  18.4752771  12.5679750
  31.5395013  17.2393226  13.1853146  34.8849198   4.4143071  24.3542700
  35.6258911   5.0150224  24.2747162  35.1167121   3.6720709  23.7960742
  30.0290536   9.5999439  22.6320929  29.9144051   8.6984696  22.9328028
  29.1735054   9.8463135  22.2805746  37.1082374  17.5417179  24.2308430
  36.6646228  16.7553557  23.9129334  37.7699587  17.7296329  23.5652321
  31.8669495  19.0712981  18.7569108  32.4176920  18.9430044  17.9846102
  31.0280971  19.3707870  18.4064001  39.2063612  17.8219979  22.2589831
  39.1882087  18.6428860  21.7670100  40.1283532  17.6974054  22.4839972
  35.6636666  15.3364108  23.1013339  36.1965003  14.5752397  22.8712647
  35.1350747  15.0437760  23.8437494  38.8306361   0.4424174  18.6306981
  38.4870630   1.3325816  18.5546092  39.1985324   0.2525832  17.7676566
  37.9102901   2.8128829  16.5956214  37.4067697   2.7758965  15.7824020
  38.2033508   3.7221572  16.6552871  43.7690918  13.1865140   9.0732590
  42.9920361  12.8476300   8.6287752  44.4482399  13.1917763   8.3987555
  37.0289379  14.4650101  10.6132151  36.5010740  13.7302860  10.3005389
  36.5276881  15.2424777  10.3672120  42.0082225  12.6599121  15.7299198
  41.3505899  13.3498383  15.8179326  42.8122624  13.0495553  16.0733184
  40.8187684  11.0143494  13.7803140  41.3319565  11.6473486  14.2824849
  41.4688907  10.4144690  13.4146500  38.0810058  20.9927818   6.5363811
  37.4071757  21.2959515   7.1448769  38.4675880  21.7956899   6.1869268
  37.2968514   8.4892950  16.0261480  36.3791076   8.7107897  15.8683168
  37.7128658   8.5639260  15.1673187  38.0803562   9.8884365  11.1564160
  38.8275381  10.4005762  10.8471282  38.3495152   9.5668418  12.0168554
  41.5849480  15.9949495  11.9082282  41.1311807  15.1540405  11.9647473
  40.9543446  16.6310894  12.2457062  40.5282399   6.9241481  13.1382950
  39.7905156   6.4118868  13.4693192  40.7809173   6.4841863  12.3266227
  40.0282419  17.8325992  12.8432100  40.3205393  18.3931049  12.1244466
  40.5381040  18.1254553  13.5985259  34.9015106   9.9971527  14.2400910
  34.9563716   9.0445363  14.1643387  34.0906308  10.1530966  14.7242208
  34.9916044  18.6106343  13.9325554  34.9492223  18.8367190  13.0034086
  35.9078743  18.3769718  14.0811355  38.4381678   9.0790411  20.8306183
  38.7931066   9.3061884  21.6900648  39.0853809   9.4108788  20.2083438
  44.1679415  12.2008847  11.5355512  44.0297314  12.3910443  10.6076701
  43.8115634  12.9628229  11.9923563  32.3321541   6.1866942  17.6152524
  32.9720920   6.0455701  16.9175487  31.4999072   5.9001455  17.2391126
  44.1948795  14.2685374  16.5466783  44.6285301  14.1760663  17.3949837
  44.9080375  14.2442874  15.9086799  33.1081845  15.4869372  13.7287516
  33.9022443  14.9919692  13.5270091  32.3973537  14.9587235  13.3655222
  37.9276689  17.8687468  18.0799884  37.9813712  18.4378404  18.8477600
  37.0591471  18.0389353  17.7153921  30.8075083   7.5705024  19.5624335
  31.4798136   7.3622386  18.9136984  29.9804869   7.3727110  19.1229567
  45.0564344  14.3109074  19.0799669  45.2500234  15.2154885  19.3258944
  44.9564962  13.8516493  19.9138254  36.7100655   4.1966965  21.5789996
  36.0628570   4.8956915  21.4854472  37.4801670   4.6303109  21.9466244
  40.1179453  14.4615817  24.6540549  39.9664959  14.2326369  23.7370633
  40.1084132  15.4186418  24.6671894  36.8864789  12.0347730  19.6386816
  37.8156849  12.1858889  19.4655783  36.4655819  12.1231751  18.7835462
  35.6853121  16.0598394  17.4085353  35.5464207  15.6917179  18.2811291
  34.8967717  16.5746034  17.2369311  36.2801273  21.1607491   8.7510890
  36.4553029  20.6895534   9.5656513  35.5934061  21.7873257   8.9792151
  37.2358336  15.4379997  14.7974191  36.9008169  15.3980767  15.6931841
  36.7362282  14.7724713  14.3244601  31.2102580  10.8447627  20.3226772
  31.0722378  10.1127866  20.9238311  32.1207504  10.7556527  20.0410960
  33.8384881  10.5567586  19.8110452  34.5484499   9.9160778  19.7697070
  33.7954189  10.8080481  20.7336633  41.8271659  17.4934940  22.7317031
  41.7684206  16.8094160  22.0647614  42.2291178  18.2353930  22.2797657
  32.5513815   7.5432804  21.6306091  32.0151172   7.0923543  22.2827688
  31.9630523   7.6778713  20.8876556  30.8462358  24.3096853  15.5250750
  31.0858956  24.9415378  16.2029769  30.0031555  23.9584893  15.8116109
  41.8289067  15.4574524  20.9631011  40.9415845  15.1200445  21.0857410
  42.3987618  14.7257555  21.1999776  28.2852936   6.6788812  18.7159086
  28.2011125   6.0714481  17.9809496  27.4635642   7.1697830  18.7168582
  35.3590220  20.1175976  17.9292254  35.2860392  20.9230947  18.4411559
  34.9167613  20.3167942  17.1040275  35.1480000  19.3547746  11.4395076
  34.3647522  19.8969426  11.5333300  35.8472745  19.8721726  11.8389317
  46.3106407  10.8682741  15.7247572  46.2996283  11.7507456  15.3541506
  45.4423787  10.5154292  15.5302110  37.8188904  20.0162810  20.0850413
  38.5316876  20.6510275  20.0126314  37.3278932  20.1126676  19.2690415
  39.5406431  13.9214063  11.6567704  38.6062709  14.0415525  11.4872409
  39.7183099  13.0186529  11.3927714  42.9278982   9.7631382  12.1917738
  43.3939434  10.5959373  12.1178041  43.3786482   9.2976363  12.8962997
  32.8700817  17.7657253  20.9055984  33.5710277  18.3993736  21.0585378
  32.3995932  18.1071985  20.1451623  40.9955213  16.1075203   9.1903891
  41.2715057  15.9931798  10.0997765  40.1259712  15.7092688   9.1516064
  40.8995645   2.1311969  16.2308640  39.9858724   2.3616196  16.3990847
  41.3288746   2.2150413  17.0822672  40.6702103  10.3201861  18.7308534
  40.0173553  10.5677768  18.0760987  41.0482483   9.5065999  18.3971011
  37.6309277  20.3561554  12.8336704  37.8131672  19.5383210  13.2964456
  38.4542263  20.5729246  12.3961594  37.9651443  19.2829739  10.0951753
  38.4939209  18.7722194   9.4821915  38.2279662  18.9672269  10.9597286
  36.7189676  11.0621672  25.2174571  36.0430313  10.9615801  25.8876946
  37.5417310  10.9060886  25.6810568  28.4668535  17.2993608  17.8387086
  29.0521972  16.5537296  17.9714990  28.2693374  17.6097565  18.7223750
  31.3207190  20.3344856  12.8549529  30.6517566  20.8190983  12.3713569
  31.1820060  20.5814076  13.7692907  35.4612459  22.3688599  19.4532187
  36.0130767  22.5320221  20.2181272  35.8018652  22.9593037  18.7812212
  30.4376952   4.7163749  20.0554072  30.5018279   5.5778580  19.6431469
  30.3744073   4.1037751  19.3226430  29.9129225   6.7886882  23.7027106
  30.5401264   6.4063959  24.3164630  29.0557144   6.5701084  24.0682798
  40.3123333  17.1949857  25.3080841  40.8563237  17.8079815  24.8135796
  39.7310178  17.7529435  25.8247854  38.5980846  20.3170575  16.4395869
  38.4731986  19.5160315  15.9306815  39.2559937  20.8116768  15.9509839
  40.6615755  18.1179595  18.0675419  39.7146090  17.9984946  17.9953746
  41.0098528  17.2302093  18.1501681  33.0215328   4.0073734  21.8913661
  33.5449730   4.2536030  22.6539970  32.8027661   4.8393769  21.4716798
  37.6662188  17.9132311  14.2679771  37.5187150  16.9849019  14.4487341
  38.4915681  17.9352402  13.7836847  41.2696310  18.7360870  15.3544644
  42.1942857  18.5303731  15.2169095  41.1011613  18.4877271  16.2633986
  34.2267873   4.9487429  19.5763332  33.8864693   4.1495242  19.9784011
  33.5206879   5.2489140  19.0040165  34.8784345   2.0336741  18.0290655
  35.7010414   1.5597220  17.9069545  35.1222408   2.8127225  18.5289341
  32.4022924   8.7255862  15.8382633  32.2567504   9.0396165  16.7306915
  31.9248127   9.3440762  15.2853532  34.2619307   5.7158410  15.8863523
  34.2480875   4.8199503  15.5495821  34.9791735   5.7229074  16.5201809
  36.1145437   6.1495750  17.9316650  35.8563215   7.0712821  17.9300981
  35.5830478   5.7526185  18.6217114  41.0591626  19.2546537  10.7106736
  41.2328504  18.6892960   9.9580588  41.5520517  20.0547432  10.5286226
  26.8768586  11.2661206  18.7770294  26.3322054  12.0421014  18.9090569
  27.7547936  11.6132011  18.6189416  46.9131017  12.0182960  12.3297035
  47.3562163  11.2690286  11.9316159  46.0357528  12.0093097  11.9470767
  42.0466799  18.5713302   7.8103634  42.7417703  19.1919994   8.0290949
  42.3889949  17.7208653   8.0856012  27.6634608  10.3931103  21.6700451
  26.9216344  10.5413738  22.2565082  27.3427352  10.6539368  20.8067201
  43.9458222  16.0213007   9.3390965  44.4709546  16.3600280   8.6140285
  43.8580574  15.0860023   9.1554099  35.6078270  19.9347081  21.4680841
  35.9165397  19.6896228  22.3403541  36.4053752  20.1393719  20.9799712
  35.6298882  22.0884991  13.6986218  35.1903873  21.5961369  14.3919075
  36.3806999  21.5457958  13.4578293  28.1091221  18.2796531  13.7010846
  28.9349241  17.9800303  13.3209489  27.7585273  17.5104154  14.1500635
  33.0772755  17.6323000  15.7708520  32.4552764  16.9693705  15.4710747
  33.7477621  17.6584132  15.0882167  26.3099826  16.1982858  14.6599780
  25.4731735  15.7705032  14.4783781  26.2823472  16.3915301  15.5970571
  33.1497282   6.1104788  25.3641026  33.1985438   6.9866910  24.9818795
  33.6919796   5.5682181  24.7912669  43.6352128  16.6545911  24.6442163
  42.8447671  16.6370050  24.1046662  43.3985482  17.1934205  25.3991199
  43.7550003  13.5038377  21.9574891  43.8048008  13.3388385  22.8990414
  43.6463926  12.6365636  21.5672772  41.0453765   9.4869305  23.2734198
  41.9463628   9.3475770  22.9818196  41.1201740   9.6523760  24.2132375
  35.3796570   6.8636160  22.1187384  34.5099880   7.1569726  21.8469973
  35.6156051   7.4476605  22.8394648  45.2568200  15.9235319  22.2016913
  44.9653008  16.2865299  23.0380374  44.6440331  15.2102327  22.0230245
  46.4563882  13.4888199  14.7219483  47.2910773  13.9278003  14.8857043
  46.5923011  13.0126852  13.9027729  43.5055388  11.0467933  20.6696971
  43.9809509  11.2395580  19.8615822  42.5820953  11.1027119  20.4240354
  38.0835604   3.0815777  19.6352805  38.6017548   3.8176804  19.3099293
  37.7290737   3.3879770  20.4699564  42.2057057   7.9233694  18.9025276
  43.1574480   8.0231791  18.9237500  42.0360507   7.1311962  19.4123361
  40.2271436   5.0089277  19.0884677  39.6321368   5.2894289  18.3931166
  39.9421133   5.4983178  19.8601418  39.3578927  18.9612204   7.8487310
  40.2909600  18.8957765   8.0520185  39.2702140  19.7968470   7.3901842
  41.9866943  18.2778074   4.8091257  41.9080575  17.9437938   5.7027015
  42.8076610  18.7699842   4.8082730  44.6845135  11.1439813  18.0167576
  44.6521455  10.2055814  18.2027260  45.2945758  11.2223850  17.2833401
  44.8339623   7.9350857  18.0625859  44.3178672   7.1509313  17.8755788
  45.7179572   7.6069573  18.2272379  42.4950350   1.6791872  14.0221672
  42.2975171   1.3706960  14.9065004  43.1050056   2.4053511  14.1519602
  50.5021684  12.2055820  17.1573613  51.2325073  11.9441108  17.7181316
  49.8928630  11.4684542  17.1975681  48.5836982  10.3463683  17.7548064
  47.8570145  10.2119648  17.1464556  48.1684268  10.6540511  18.5604782
  36.4067158  14.0653612  25.5195437  37.3270167  14.2432211  25.7135483
  36.3716741  13.1209658  25.3675136  29.4029231  11.9754647  18.1618218
  29.6215240  12.9071755  18.1806252  29.8155004  11.6162621  18.9473022
  34.2757096   7.5487853  27.5520967  34.1753823   8.4982210  27.4833058
  34.0578638   7.2206092  26.6797037  25.4937583  12.8795117  16.4141833
  24.8001054  12.4649070  15.9011788  26.2410574  12.9215654  15.8175252
  34.1388366  10.9784992  26.3686029  33.6555448  11.7785352  26.5749918
  34.2249305  10.9892936  25.4153473  30.0661703  14.8689526  18.4054462
  31.0204957  14.8373469  18.3384394  29.8674227  14.4080150  19.2204688
  30.6561086  13.4390642  20.9725260  31.4753975  13.9334721  20.9960097
  30.9297893  12.5222610  20.9442828  43.7642218   5.8547916  14.0507555
  44.5402608   6.3444368  14.3232172  43.0390352   6.2805970  14.5079424
  46.2014777   6.5675535  15.1081496  46.7959267   6.3271271  14.3974804
  46.2741360   5.8482665  15.7355032  28.4211932  20.4109146  15.4224660
  28.2866400  19.6509547  14.8562658  28.0043994  21.1350046  14.9553449
  40.3868706  11.3455931  10.5503506  40.3303907  11.8024482   9.7111138
  40.9397048  10.5846615  10.3726349  44.1973511   7.1345662  11.3753625
  43.9410446   6.7342298  12.2061833  43.5726379   7.8489456  11.2503764
  48.5085849   9.8741736  13.8824917  47.9485407   9.9434925  14.6556479
  47.9029353   9.6982720  13.1624413  31.5781058  21.3078463  15.6343103
  31.4613442  22.2523895  15.5321793  30.7573504  21.0052024  16.0228902
  41.4657593  16.0328599   6.4799696  42.3003197  15.6009797   6.2977171
  41.3041936  15.8610612   7.4076590  25.9096000   7.7728776  21.6717457
  26.5554863   7.2627730  22.1604682  25.7013151   8.5097458  22.2460882
  38.4349392  14.8409624  27.1709598  39.3040552  15.0150276  26.8096233
  37.9556143  15.6604041  27.0485327  32.6035572  21.9606725  18.8499031
  33.5062819  21.9930335  19.1665526  32.3772942  21.0307176  18.8645367
  34.3589174  20.7137711  15.5109110  33.4084805  20.7139573  15.3973482
  34.6621660  19.9670446  14.9945145  30.2493491   4.9196393  25.7692471
  31.1124952   4.5633198  25.9795796  29.6758901   4.5810288  26.4567876
  50.0941868  26.5498250  16.5754872  50.7320278  26.4304997  15.8718213
  49.9762711  27.4979094  16.6342825  46.9031574  26.5025678  16.5116397
  46.5650086  26.3866742  15.6236932  47.7721342  26.1016843  16.4917403
  42.7618390  28.3561154  12.5013288  42.1983255  28.2651091  11.7329576
  42.6470785  27.5361059  12.9815781  47.3851357  27.6560529  22.4702603
  47.3739998  27.2613328  21.5983106  47.5471996  26.9226602  23.0636374
  40.3082822  29.8512346  15.3397509  41.1004114  29.5103170  14.9243808
  40.5479472  29.9607321  16.2599662  48.3417948  32.0232122   7.8127753
  47.6905928  32.6086202   7.4261767  49.1362311  32.5538317   7.8722790
  42.2673576  29.1121259   8.2114887  43.0404452  28.5650246   8.0727763
  42.6198974  29.9765508   8.4229349  44.1058618  30.4397641  21.4181787
  43.8148484  31.3443272  21.3028453  44.7415602  30.4814169  22.1325856
  45.0314825  27.8174490  18.0083146  45.6278397  27.5930512  17.2940109
  45.0889797  27.0759235  18.6108594  44.6039853  25.2713925   5.8433337
  44.8565374  24.7495446   5.0816800  43.6664412  25.1080071   5.9460021
  49.6483136  24.2749703  13.6508080  50.4346225  23.8569127  13.2998498
  49.9121841  25.1795796  13.8189729  49.8193214  29.7122554   8.3496737
  49.1839047  29.7857180   9.0617642  49.4890620  30.3016153   7.6715817
  55.0491563  24.2124937  14.5541059  55.7816735  23.6424153  14.7878888
  54.2930919  23.8246537  14.9947565  44.3236142  27.1742031   8.0457712
  44.2072400  26.4986934   8.7138797  44.4338402  26.6874405   7.2289865
  46.6667683  26.6352178  11.7504401  46.3025890  26.1082799  12.4617323
  47.5234799  26.2450647  11.5770887  52.5716984  17.9246511  19.0135668
  52.2400308  18.7941922  18.7896883  51.9762597  17.6082795  19.6929698
  46.3073170  21.6642078   6.7465750  46.4747572  22.5322314   7.1136221
  46.1170339  21.8269360   5.8227039  49.0648503  30.1259057  18.4131580
  48.7649226  31.0284096  18.3047388  48.7199563  29.8591240  19.2652733
  42.5160985  26.5772854  14.4468285  41.5911481  26.4449068  14.6545977
  42.7645398  27.3567073  14.9438227  52.4645647  22.6441597  16.0929018
  51.5562524  22.5757005  15.7987779  52.4133243  23.1213542  16.9210843
  46.2862391  24.1199735   7.7312417  46.1662016  24.5656786   8.5697897
  45.5914979  24.4685053   7.1725955  39.8769796  26.2206127  15.2812074
  40.0062177  26.4740606  16.1951486  39.1967247  26.8133835  14.9616729
  44.0469283  36.8903377  11.3802548  43.9693313  37.8411202  11.4591029
  43.4430927  36.5449250  12.0377474  46.5386513  24.0631243  24.0363915
  45.7619847  24.6225163  24.0266780  47.1777076  24.5488026  24.5578785
  54.3307293  20.8458035  17.8706892  53.6881674  21.1390569  17.2246686
  53.8262222  20.7310956  18.6760088  51.9847457  24.5921209   8.5592751
  52.8965313  24.8248595   8.3840448  51.4757104  25.1758253   7.9967829
  44.7932885  26.8716696  23.5981882  45.5347569  27.4101740  23.3216706
  44.0869871  27.4982985  23.7553434  50.2688225  29.0145836  22.1954043
  50.6771581  28.5728247  21.4508676  49.5465486  28.4398464  22.4488236
  46.6219295  23.9518443  19.5687600  47.4680490  24.3757857  19.7122249
  46.5617932  23.2952067  20.2626163  50.5917039  29.5747027  15.9506332
  49.9625902  29.7392741  15.2482400  50.2042701  29.9888637  16.7217296
  54.4706271  30.5101465  13.3050696  53.7857309  30.8900366  12.7547729
  54.5550121  31.1196792  14.0382644  49.7718740  21.6122812  21.2268774
  49.5279672  22.3664872  20.6903050  50.0478671  21.9908159  22.0616021
  51.7257203  28.1561424  19.9046040  51.9374098  28.7993184  19.2280421
  51.6786951  27.3223740  19.4367970  49.3283432  20.7679245  16.8082612
  48.4667911  21.0660498  17.0999349  49.3545866  20.9849643  15.8763644
  46.1445001  29.3121435  13.2156417  46.6083347  29.5909138  12.4261040
  45.8801799  28.4104880  13.0329508  43.0369082  28.8592917  16.1536181
  43.6070439  29.2880185  15.5153665  43.6277194  28.5775501  16.8520366
  45.0813887  25.4344587  10.0245983  45.7837931  25.8865631  10.4919909
  44.7494516  24.7928406  10.6525876  38.8239221  23.6928140  15.3263116
  38.0338275  23.9485669  14.8503227  39.3150469  24.5076478  15.4315157
  52.8403031  31.0333379  18.0768397  53.6620475  30.6313567  17.7951079
  52.8365434  30.9301613  19.0284513  40.7753967  24.0572719  12.2846593
  39.9785130  24.1691414  12.8030088  40.5479559  24.3959372  11.4187483
  46.6059634  30.5817423  20.2329107  46.6704067  31.0437830  21.0687279
  45.8970558  29.9514788  20.3611417  37.1076924  23.9458631  17.7578107
  37.3584963  24.8305640  18.0235683  37.6436473  23.7663232  16.9853199
  60.9309024  27.3772128  14.4253368  60.1772732  26.8079526  14.2697373
  61.0656565  27.3434792  15.3724003  46.3207652  32.2485530  10.1008088
  46.1853327  33.0937066  10.5292936  46.8617464  32.4504808   9.3374022
  42.8074992  18.3277110  26.7622443  42.4141937  17.7743308  27.4370087
  43.6241132  18.6387688  27.1528961  39.7737049  29.7660968  10.6736013
  40.2861570  30.5604218  10.8241578  40.4259762  29.0687259  10.6069614
  41.5831934  32.8826724  12.7558766  41.7598562  33.8044689  12.5679750
  42.3788768  32.5685144  13.1853146  45.7242953  19.7434989  24.3542700
  46.4652666  20.3442142  24.2747162  45.9560875  19.0012627  23.7960742
  40.8684291  24.9291356  22.6320929  40.7537806  24.0276614  22.9328028
  40.0128808  25.1755053  22.2805746  47.9476128  32.8709097  24.2308430
  47.5039983  32.0845475  23.9129334  48.6093342  33.0588247  23.5652321
  42.7063249  34.4004898  18.7569108  43.2570675  34.2721962  17.9846102
  41.8674725  34.6999787  18.4064001  50.0457366  33.1511897  22.2589831
  50.0275842  33.9720778  21.7670100  50.9677286  33.0265972  22.4839972
  46.5030421  30.6656026  23.1013339  47.0358757  29.9044314  22.8712647
  45.9744502  30.3729678  23.8437494  49.6700116  15.7716092  18.6306981
  49.3264385  16.6617734  18.5546092  50.0379078  15.5817750  17.7676566
  37.7385966  28.0949622  11.4495583  38.5761188  28.5046631  11.2329291
  37.9164234  27.1549065  11.4195777  49.6350398  25.7624703   7.1379416
  49.1197022  26.5329308   7.3767804  49.3627707  25.0889839   7.7612478
  47.2197509  20.6074404  12.1964655  46.3639106  20.2181254  12.0170293
  47.6324461  20.6866365  11.3364440  48.7496656  18.1420747  16.5956214
  48.2461451  18.1050882  15.7824020  49.0427263  19.0513490  16.6552871
  44.9939542  18.2259477  15.6022396  45.8592539  18.0302286  15.2428286
  45.0617051  17.9969829  16.5291753  54.6084672  28.5157058   9.0732590
  53.8314115  28.1768217   8.6287752  55.2876153  28.5209681   8.3987555
  49.4236701  23.6351795   8.9639198  49.1186837  23.9497944   9.8149341
  50.3767144  23.7133215   9.0066531  47.8683133  29.7942018  10.6132151
  47.3404495  29.0594778  10.3005389  47.3670636  30.5716695  10.3672120
  52.8475979  27.9891039  15.7299198  52.1899654  28.6790300  15.8179326
  53.6516378  28.3787471  16.0733184  42.6001861  20.4561685  12.9738763
  43.1745613  20.2336866  12.2411956  43.1872843  20.5250379  13.7267364
  51.6581438  26.3435412  13.7803140  52.1713320  26.9765404  14.2824849
  52.3082662  25.7436607  13.4146500  42.9271448  22.4866146   6.9934648
  42.0908760  22.8240832   7.3143923  42.7876218  22.3515126   6.0561785
  44.9024529  17.3302934  11.7013832  44.2488941  17.0151951  11.0770447
  44.8605003  16.7078674  12.4273655  46.0135733  27.6122229   3.6167125
  45.1062795  27.3811482   3.8158274  46.5106765  26.8159848   3.8041106
  48.9203812  36.3219736   6.5363811  48.2465511  36.6251433   7.1448769
  49.3069634  37.1248816   6.1869268  48.1362269  23.8184867  16.0261480
  47.2184830  24.0399814  15.8683168  48.5522413  23.8931178  15.1673187
  48.9197317  25.2176283  11.1564160  49.6669136  25.7297680  10.8471282
  49.1888906  24.8960336  12.0168554  47.1923967  27.7134824   8.1391115
  46.2835186  27.4293856   8.2363584  47.2219051  28.1333902   7.2794421
  52.4243234  31.3241413  11.9082282  51.9705561  30.4832323  11.9647473
  51.7937201  31.9602811  12.2457062  51.3676154  22.2533399  13.1382950
  50.6298911  21.7410785  13.4693192  51.6202927  21.8133781  12.3266227
  50.8676174  33.1617910  12.8432100  51.1599148  33.7222967  12.1244466
  51.3774794  33.4546471  13.5985259  51.4687781  15.0309651  13.7324719
  51.7746658  14.1707015  13.4450634  52.1940386  15.6227271  13.5323713
  37.7612137  25.4340338  12.1206317  37.5636537  24.8409698  11.3957383
  37.2058801  25.1292548  12.8382256  45.7408861  25.3263444  14.2400910
  45.7957471  24.3737281  14.1643387  44.9300063  25.4822883  14.7242208
  46.8900055  29.2543567   5.4779193  46.4519485  28.5379426   5.0184831
  47.6310496  29.4819682   4.9164285  43.6801221  23.9440504  11.9991289
  42.8669086  24.2434675  12.4056481  44.1760215  23.5496193  12.7165771
  45.8309799  33.9398261  13.9325554  45.7885978  34.1659107  13.0034086
  46.7472498  33.7061635  14.0811355  49.2775433  24.4082328  20.8306183
  49.6324820  24.6353802  21.6900648  49.9247564  24.7400705  20.2083438
  55.0073169  27.5300764  11.5355512  54.8691068  27.7202360  10.6076701
  54.6509388  28.2920147  11.9923563  43.1715296  21.5158859  17.6152524
  43.8114675  21.3747619  16.9175487  42.3392826  21.2293373  17.2391126
  55.0342549  29.5977291  16.5466783  55.4679056  29.5052580  17.3949837
  55.7474130  29.5734792  15.9086799  43.9475599  30.8161290  13.7287516
  44.7416198  30.3211610  13.5270091  43.2367292  30.2879153  13.3655222
  48.7670444  33.1979385  18.0799884  48.8207466  33.7670322  18.8477600
  47.8985225  33.3681270  17.7153921  40.2558363  24.9604372   9.8047269
  39.3255951  24.8988827  10.0217231  40.3515835  24.4380324   9.0083910
  40.1743912  21.4859184  12.3925511  40.4350729  22.4004518  12.2834671
  40.9961084  21.0183627  12.5422123  41.6468837  22.8996942  19.5624335
  42.3191891  22.6914304  18.9136984  40.8198624  22.7019028  19.1229567
  55.8958099  29.6400992  19.0799669  56.0893989  30.5446802  19.3258944
  55.7958717  29.1808411  19.9138254  47.5494409  19.5258883  21.5789996
  46.9022324  20.2248832  21.4854472  48.3195425  19.9595026  21.9466244
  50.9573207  29.7907735  24.6540549  50.8058714  29.5618286  23.7370633
  50.9477887  30.7478336  24.6671894  47.7258544  27.3639647  19.6386816
  48.6550604  27.5150807  19.4655783  47.3049574  27.4523668  18.7835462
  46.5246875  31.3890312  17.4085353  46.3857961  31.0209096  18.2811291
  45.7361472  31.9037951  17.2369311  47.1195027  36.4899408   8.7510890
  47.2946783  36.0187452   9.5656513  46.4327815  37.1165175   8.9792151
  48.0752091  30.7671915  14.7974191  47.7401923  30.7272685  15.6931841
  47.5756036  30.1016631  14.3244601  42.0496335  26.1739545  20.3226772
  41.9116133  25.4419783  20.9238311  42.9601258  26.0848445  20.0410960
  51.0111282  28.1127949   5.0711251  50.3940453  27.3874777   4.9744303
  50.5427771  28.8737309   4.7278325  44.6778635  25.8859504  19.8110452
  45.3878254  25.2452696  19.7697070  44.6347943  26.1372399  20.7336633
  52.6665414  32.8226857  22.7317031  52.6077960  32.1386077  22.0647614
  53.0684932  33.5645847  22.2797657  43.3907569  22.8724722  21.6306091
  42.8544926  22.4215460  22.2827688  42.8024278  23.0070631  20.8876556
  41.6856113  39.6388771  15.5250750  41.9252711  40.2707295  16.2029769
  40.8425309  39.2876811  15.8116109  42.8009828  22.3313373   4.1932555
  41.9239295  22.2102174   3.8294802  43.2767581  21.5399452   3.9411444
  52.6682821  30.7866441  20.9631011  51.7809600  30.4492363  21.0857410
  53.2381372  30.0549472  21.1999776  34.3211968  27.1190533  14.2874062
  35.0083008  26.8052263  13.6995078  34.1660097  28.0231898  14.0141314
  39.1246690  22.0080730  18.7159086  39.0404879  21.4006399  17.9809496
  38.3029397  22.4989748  18.7168582  46.1983975  35.4467894  17.9292254
  46.1254146  36.2522865  18.4411559  45.7561368  35.6459859  17.1040275
  45.9873754  34.6839664  11.4395076  45.2041276  35.2261344  11.5333300
  46.6866499  35.2013643  11.8389317  49.2970404  20.4934293  14.0829281
  49.7939104  19.7404255  13.7630351  48.5257386  20.5298610  13.5172490
  57.1500162  26.1974659  15.7247572  57.1390038  27.0799374  15.3541506
  56.2817541  25.8446209  15.5302110  48.6582658  35.3454728  20.0850413
  49.3710630  35.9802192  20.0126314  48.1672687  35.4418594  19.2690415
  50.3800185  29.2505980  11.6567704  49.4456464  29.3707443  11.4872409
  50.5576853  28.3478447  11.3927714  45.8805373  22.6351676  13.8100966
  45.5103161  22.0822716  14.4981871  46.3764466  22.0309810  13.2575966
  53.7672736  25.0923300  12.1917738  54.2333189  25.9251291  12.1178041
  54.2180237  24.6268281  12.8962997  43.7094572  33.0949171  20.9055984
  44.4104031  33.7285654  21.0585378  43.2389687  33.4363903  20.1451623
  51.8348967  31.4367121   9.1903891  52.1108811  31.3223715  10.0997765
  50.9653466  31.0384606   9.1516064  51.7389399  17.4603887  16.2308640
  50.8252479  17.6908113  16.3990847  52.1682501  17.5442331  17.0822672
  51.5095858  25.6493779  18.7308534  50.8567308  25.8969686  18.0760987
  51.8876238  24.8357917  18.3971011  48.4703032  35.6853472  12.8336704
  48.6525426  34.8675128  13.2964456  49.2936018  35.9021164  12.3961594
  48.8045197  34.6121657  10.0951753  49.3332963  34.1014111   9.4821915
  49.0673417  34.2964187  10.9597286  47.5583431  26.3913590  25.2174571
  46.8824068  26.2907719  25.8876946  48.3811065  26.2352803  25.6810568
  39.3062290  32.6285526  17.8387086  39.8915727  31.8829214  17.9714990
  39.1087128  32.9389483  18.7223750  42.1600945  35.6636774  12.8549529
  41.4911320  36.1482901  12.3713569  42.0213815  35.9105994  13.7692907
  33.8979944  25.1991126  16.5591529  33.9364044  24.6654717  17.3528647
  33.3920237  24.6726332  15.9402507  46.3006214  37.6980517  19.4532187
  46.8524522  37.8612139  20.2181272  46.6412407  38.2884955  18.7812212
  41.2770707  20.0455667  20.0554072  41.3412033  20.9070498  19.6431469
  41.2137827  19.4329668  19.3226430  51.1517088  32.5241775  25.3080841
  51.6956992  33.1371733  24.8135796  50.5703933  33.0821353  25.8247854
  37.5288522  23.9255228   9.6345461  37.8241963  23.0165907   9.5812514
  36.6276558  23.9042968   9.3126463  49.4374601  35.6462493  16.4395869
  49.3125740  34.8452232  15.9306815  50.0953692  36.1408686  15.9509839
  41.0582769  22.0011225  15.6173009  40.3369355  22.6147193  15.4780483
  41.8476025  22.5368990  15.5389655  51.5009509  33.4471513  18.0675419
  50.5539845  33.3276864  17.9953746  51.8492282  32.5594011  18.1501681
  43.8609083  19.3365652  21.8913661  44.3843484  19.5827948  22.6539970
  43.6421416  20.1685686  21.4716798  39.2576364  21.6069326   9.7584786
  38.9289070  20.7266705   9.5759892  39.6115734  21.5516995  10.6461175
  48.5055942  33.2424229  14.2679771  48.3580905  32.3140936  14.4487341
  49.3309436  33.2644320  13.7836847  42.3718187  21.8942296  10.1260264
  42.7114259  22.4228217   9.4038872  42.8190307  22.2322702  10.9018830
  52.1090064  34.0652788  15.3544644  53.0336612  33.8595649  15.2169095
  51.9405368  33.8169189  16.2633986  45.0661628  20.2779347  19.5763332
  44.7258448  19.4787160  19.9784011  44.3600634  20.5781058  19.0040165
  45.7178099  17.3628659  18.0290655  46.5404169  16.8889137  17.9069545
  45.9616163  18.1419143  18.5289341  44.3586334  20.3916918   8.3253556
  45.0794696  20.7698170   7.8217273  43.7351638  21.1105794   8.4288534
  48.5017457  21.0962067   9.2611889  48.7181071  21.9786704   8.9600717
  48.0211524  20.7048280   8.5317531  43.2416678  24.0547780  15.8382633
  43.0961259  24.3688083  16.7306915  42.7641882  24.6732680  15.2853532
  45.1013061  21.0450328  15.8863523  45.0874630  20.1491421  15.5495821
  45.8185489  21.0520991  16.5201809  46.9539192  21.4787668  17.9316650
  46.6956970  22.4004739  17.9300981  46.4224232  21.0818102  18.6217114
  51.8985381  34.5838455  10.7106736  52.0722258  34.0184878   9.9580588
  52.3914272  35.3839350  10.5286226  37.7162340  26.5953124  18.7770294
  37.1715808  27.3712932  18.9090569  38.5941690  26.9423929  18.6189416
  44.5049957  19.9264708  11.1551093  44.6265868  18.9981354  11.3541980
  44.2151999  19.9403394  10.2429408  47.3741147  17.6119618  14.2917813
  47.3962844  17.6758952  13.3369792  47.7909206  16.7724127  14.4858319
  57.7524772  27.3474878  12.3297035  58.1955918  26.5982203  11.9316159
  56.8751282  27.3385014  11.9470767  52.8860553  33.9005219   7.8103634
  53.5811458  34.5211912   8.0290949  53.2283703  33.0500571   8.0856012
  38.5028362  25.7223020  21.6700451  37.7610098  25.8705656  22.2565082
  38.1821106  25.9831286  20.8067201  54.7851976  31.3504925   9.3390965
  55.3103300  31.6892198   8.6140285  54.6974329  30.4151940   9.1554099
  46.4472025  35.2638999  21.4680841  46.7559151  35.0188145  22.3403541
  47.2447507  35.4685637  20.9799712  46.4692637  37.4176908  13.6986218
  46.0297627  36.9253287  14.3919075  47.2200754  36.8749876  13.4578293
  38.9484976  33.6088449  13.7010846  39.7742996  33.3092221  13.3209489
  38.5979028  32.8396072  14.1500635  43.9166509  32.9614917  15.7708520
  43.2946518  32.2985622  15.4710747  44.5871376  32.9876049  15.0882167
  37.1493581  31.5274776  14.6599780  36.3125489  31.0996950  14.4783781
  37.1217226  31.7207219  15.5970571  54.4745882  31.9837829  24.6442163
  53.6841426  31.9661967  24.1046662  54.2379237  32.5226122  25.3991199
  54.5943757  28.8330295  21.9574891  54.6441762  28.6680302  22.8990414
  54.4857681  27.9657554  21.5672772  43.4780016  31.5118841   9.2466980
  43.6268136  32.1954305   8.5933653  44.2846459  31.4923931   9.7616436
  51.8847520  24.8161223  23.2734198  52.7857382  24.6767688  22.9818196
  51.9595494  24.9815678  24.2132375  46.2190325  22.1928078  22.1187384
  45.3493634  22.4861644  21.8469973  46.4549805  22.7768523  22.8394648
  56.0961954  31.2527236  22.2016913  55.8046762  31.6157217  23.0380374
  55.4834085  30.5394245  22.0230245  57.2957636  28.8180116  14.7219483
  58.1304528  29.2569920  14.8857043  57.4316765  28.3418769  13.9027729
  54.3449142  26.3759851  20.6696971  54.8203264  26.5687497  19.8615822
  53.4214708  26.4319037  20.4240354  41.2332649  27.5384018  10.2528049
  40.9878691  26.6346348  10.4508259  41.4028563  27.5401169   9.3107527
  48.9229359  18.4107695  19.6352805  49.4411303  19.1468722  19.3099293
  48.5684492  18.7171688  20.4699564  40.5028296  23.2712376   7.7514210
  39.8097541  23.3456731   7.0954246  40.2580048  22.5072720   8.2735727
  49.1741953  14.8307977  15.1553701  49.4543707  14.1631166  15.7814128
  49.9592560  15.0237073  14.6428365  46.9775421  34.0066971   6.7178727
  46.4049389  34.6257158   6.2649199  47.5508215  34.5566333   7.2518649
  53.0450811  23.2525611  18.9025276  53.9968234  23.3523709  18.9237500
  52.8754262  22.4603880  19.4123361  51.0665191  20.3381194  19.0884677
  50.4715123  20.6186207  18.3931166  50.7814887  20.8275095  19.8601418
  50.1972681  34.2904121   7.8487310  51.1303354  34.2249683   8.0520185
  50.1095894  35.1260388   7.3901842  52.8260698  33.6069992   4.8091257
  52.7474329  33.2729855   5.7027015  53.6470365  34.0991760   4.8082730
  55.5238889  26.4731731  18.0167576  55.4915209  25.5347732  18.2027260
  56.1339513  26.5515768  17.2833401  47.3622220  25.3427784   4.0594780
  48.3081325  25.2133992   4.1283198  46.9836465  24.6042446   4.5364208
  55.6733378  23.2642774  18.0625859  55.1572426  22.4801231  17.8755788
  56.5573326  22.9361491  18.2272379  53.3344105  17.0083790  14.0221672
  53.1368926  16.6998878  14.9065004  53.9443810  17.7345429  14.1519602
  61.3415439  27.5347738  17.1573613  62.0718827  27.2733026  17.7181316
  60.7322384  26.7976460  17.1975681  59.4230736  25.6755600  17.7548064
  58.6963900  25.5411565  17.1464556  59.0078023  25.9832429  18.5604782
  47.2460913  29.3945530  25.5195437  48.1663922  29.5724129  25.7135483
  47.2110496  28.4501575  25.3675136  45.5465137  23.2677760   3.9949665
  44.6396593  22.9710873   4.0712379  45.8241118  22.9707578   3.1283951
  36.4643078  24.5884124  14.4448712  36.1445862  23.7349432  14.1523086
  35.9176506  24.8032702  15.2006679  40.2422985  27.3046565  18.1618218
  40.4608995  28.2363672  18.1806252  40.6548759  26.9454539  18.9473022
  47.1627203  17.8114650  10.1493907  46.3527931  17.4661735  10.5249153
  47.8511620  17.5022194  10.7381518  49.0917751  16.8892697  11.7718203
  49.6448790  17.3088150  12.4308226  49.3287838  15.9628445  11.8141159
  44.3163922  20.1264695   4.1361644  45.1783086  20.4519594   4.3957462
  44.5014266  19.3396191   3.6234710  36.3331338  28.2087035  16.4141833
  35.6394809  27.7940988  15.9011788  37.0804329  28.2507572  15.8175252
  52.4696558  18.9993222  11.2796867  51.8895227  19.6578026  10.8974920
  52.2032491  18.1770567  10.8684285  50.9200125  18.3998280  13.4818188
  51.4199903  18.5114814  12.6732507  51.5635733  18.0959332  14.1218996
  44.9782120  26.3076909  26.3686029  44.4949202  27.1077269  26.5749918
  45.0643059  26.3184854  25.4153473  38.2468080  28.1405289  14.2907848
  38.2238768  28.2392976  13.3389731  38.5568717  28.9870440  14.6125014
  40.9055458  30.1981444  18.4054462  41.8598711  30.1665386  18.3384394
  40.7067982  29.7372068  19.2204688  41.4954840  28.7682560  20.9725260
  42.3147729  29.2626639  20.9960097  41.7691648  27.8514528  20.9442828
  51.2521436  21.1593312  10.3353216  50.3647291  21.4442963  10.1173410
  51.6675425  20.9987076   9.4880493  54.6035972  21.1839833  14.0507555
  55.3796362  21.6736286  14.3232172  53.8784107  21.6097888  14.5079424
  57.0408531  21.8967453  15.1081496  57.6353022  21.6563188  14.3974804
  57.1135115  21.1774583  15.7355032  39.2605687  35.7401063  15.4224660
  39.1260155  34.9801464  14.8562658  38.8437749  36.4641963  14.9553449
  50.3964650  30.9237987   4.4301236  51.1000500  31.1287989   5.0458891
  49.6727298  31.4914749   4.6950319  51.2262460  26.6747848  10.5503506
  51.1697661  27.1316400   9.7111138  51.7790802  25.9138533  10.3726349
  55.0367266  22.4637580  11.3753625  54.7804200  22.0634216  12.2061833
  54.4120134  23.1781374  11.2503764  59.3479604  25.2033653  13.8824917
  58.7879162  25.2726843  14.6556479  58.7423107  25.0274638  13.1624413
  42.4174813  36.6370380  15.6343103  42.3007197  37.5815813  15.5321793
  41.5967259  36.3343942  16.0228902  52.3051347  31.3620516   6.4799696
  53.1396951  30.9301715   6.2977171  52.1435690  31.1902530   7.4076590
  51.9597239  27.8652630   7.8456035  51.9046043  27.6996901   6.9044479
  51.3343295  28.5728662   8.0018225  36.7489754  23.1020694  21.6717457
  37.3948618  22.5919648  22.1604682  36.5406905  23.8389376  22.2460882
  49.2743146  30.1701541  27.1709598  50.1434306  30.3442194  26.8096233
  48.7949898  30.9895958  27.0485327  45.2693365  17.3660739   7.4241353
  45.2572035  18.3102578   7.5809624  46.1616787  17.1830884   7.1300815
  43.4429327  37.2898642  18.8499031  44.3456573  37.3222253  19.1665526
  43.2166697  36.3599093  18.8645367  45.1982929  36.0429629  15.5109110
  44.2478560  36.0431491  15.3973482  45.5015415  35.2962363  14.9945145
  49.0845484  13.9603515  11.6787290  48.3177880  13.4062002  11.8243973
  49.4956189  14.0325384  12.5401442  60.9335622  41.8790167  16.5754872
  61.5714032  41.7596915  15.8718213  60.8156465  42.8271011  16.6342825
  57.7425328  41.8317595  16.5116397  57.4043840  41.7158660  15.6236932
  58.6115097  41.4308761  16.4917403  53.6012144  43.6853072  12.5013288
  53.0377009  43.5943009  11.7329576  53.4864539  42.8652976  12.9815781
  58.2245111  42.9852447  22.4702603  58.2133752  42.5905245  21.5983106
  58.3865751  42.2518520  23.0636374  51.1476576  45.1804263  15.3397509
  51.9397868  44.8395088  14.9243808  51.3873226  45.2899238  16.2599662
  59.1811703  47.3524040   7.8127753  58.5299683  47.9378120   7.4261767
  59.9756066  47.8830234   7.8722790  53.1067330  44.4413177   8.2114887
  53.8798206  43.8942164   8.0727763  53.4592729  45.3057426   8.4229349
  54.9452373  45.7689559  21.4181787  54.6542239  46.6735190  21.3028453
  55.5809357  45.8106087  22.1325856  55.8708579  43.1466407  18.0083146
  56.4672152  42.9222430  17.2940109  55.9283551  42.4051153  18.6108594
  55.4433608  40.6005843   5.8433337  55.6959129  40.0787364   5.0816800
  54.5058167  40.4371988   5.9460021  60.4876891  39.6041621  13.6508080
  61.2739980  39.1861044  13.2998498  60.7515595  40.5087713  13.8189729
  60.6586968  45.0414471   8.3496737  60.0232801  45.1149098   9.0617642
  60.3284374  45.6308070   7.6715817  65.8885318  39.5416854  14.5541059
  66.6210490  38.9716071  14.7878888  65.1324674  39.1538455  14.9947565
  55.1629897  42.5033949   8.0457712  55.0466155  41.8278852   8.7138797
  55.2732157  42.0166323   7.2289865  57.5061438  41.9644096  11.7504401
  57.1419645  41.4374717  12.4617323  58.3628553  41.5742565  11.5770887
  63.4110738  33.2538428  19.0135668  63.0794063  34.1233839  18.7896883
  62.8156352  32.9374712  19.6929698  57.1466925  36.9933996   6.7465750
  57.3141327  37.8614232   7.1136221  56.9564094  37.1561277   5.8227039
  59.9042258  45.4550974  18.4131580  59.6042981  46.3576013  18.3047388
  59.5593317  45.1883158  19.2652733  53.3554739  41.9064771  14.4468285
  52.4305236  41.7740985  14.6545977  53.6039152  42.6858991  14.9438227
  63.3039402  37.9733515  16.0929018  62.3956279  37.9048923  15.7987779
  63.2526997  38.4505460  16.9210843  57.1256145  39.4491653   7.7312417
  57.0055771  39.8948704   8.5697897  56.4308734  39.7976971   7.1725955
  50.7163550  41.5498045  15.2812074  50.8455931  41.8032524  16.1951486
  50.0361002  42.1425753  14.9616729  54.8863038  52.2195295  11.3802548
  54.8087067  53.1703120  11.4591029  54.2824681  51.8741167  12.0377474
  57.3780267  39.3923160  24.0363915  56.6013601  39.9517080  24.0266780
  58.0170830  39.8779943  24.5578785  65.1701048  36.1749953  17.8706892
  64.5275428  36.4682486  17.2246686  64.6655976  36.0602873  18.6760088
  62.8241212  39.9213126   8.5592751  63.7359068  40.1540513   8.3840448
  62.3150859  40.5050170   7.9967829  55.6326640  42.2008614  23.5981882
  56.3741324  42.7393658  23.3216706  54.9263625  42.8274902  23.7553434
  61.1081979  44.3437754  22.1954043  61.5165335  43.9020165  21.4508676
  60.3859241  43.7690382  22.4488236  57.4613049  39.2810361  19.5687600
  58.3074244  39.7049774  19.7122249  57.4011687  38.6243985  20.2626163
  61.4310794  44.9038945  15.9506332  60.8019656  45.0684659  15.2482400
  61.0436456  45.3180554  16.7217296  65.3100026  45.8393383  13.3050696
  64.6251064  46.2192284  12.7547729  65.3943875  46.4488709  14.0382644
  60.6112495  36.9414729  21.2268774  60.3673426  37.6956790  20.6903050
  60.8872425  37.3200077  22.0616021  62.5650957  43.4853342  19.9046040
  62.7767853  44.1285101  19.2280421  62.5180706  42.6515658  19.4367970
  60.1677186  36.0971162  16.8082612  59.3061665  36.3952416  17.0999349
  60.1939621  36.3141561  15.8763644  56.9838756  44.6413353  13.2156417
  57.4477101  44.9201056  12.4261040  56.7195554  43.7396797  13.0329508
  53.8762837  44.1884834  16.1536181  54.4464194  44.6172103  15.5153665
  54.4670949  43.9067419  16.8520366  55.9207642  40.7636505  10.0245983
  56.6231685  41.2157549  10.4919909  55.5888270  40.1220324  10.6525876
  54.3688003  39.3548262  24.3997192  53.7386664  40.0364543  24.6332589
  54.2624091  39.2431343  23.4550330  49.6632976  39.0220058  15.3263116
  48.8732030  39.2777586  14.8503227  50.1544223  39.8368396  15.4315157
  63.6796785  46.3625297  18.0768397  64.5014229  45.9605484  17.7951079
  63.6759188  46.2593531  19.0284513  51.6147721  39.3864637  12.2846593
  50.8178884  39.4983331  12.8030088  51.3873313  39.7251289  11.4187483
  57.4453389  45.9109340  20.2329107  57.5097821  46.3729748  21.0687279
  56.7364313  45.2806705  20.3611417  47.9470679  39.2750548  17.7578107
  48.1978717  40.1597558  18.0235683  48.4830227  39.0955150  16.9853199
  71.7702778  42.7064045  14.4253368  71.0166487  42.1371444  14.2697373
  71.9050320  42.6726710  15.3724003  57.1601406  47.5777448  10.1008088
  57.0247081  48.4228983  10.5292936  57.7011219  47.7796725   9.3374022
  53.6468746  33.6569028  26.7622443  53.2535692  33.1035226  27.4370087
  54.4634886  33.9679606  27.1528961  50.6130804  45.0952886  10.6736013
  51.1255324  45.8896136  10.8241578  51.2653517  44.3979176  10.6069614
  52.4225689  48.2118642  12.7558766  52.5992317  49.1336607  12.5679750
  53.2182522  47.8977061  13.1853146  56.5636707  35.0726907  24.3542700
  57.3046420  35.6734060  24.2747162  56.7954630  34.3304544  23.7960742
  51.7078045  40.2583274  22.6320929  51.5931560  39.3568531  22.9328028
  50.8522563  40.5046971  22.2805746  58.7869883  48.2001014  24.2308430
  58.3433737  47.4137393  23.9129334  59.4487096  48.3880165  23.5652321
  53.5457004  49.7296816  18.7569108  54.0964429  49.6013879  17.9846102
  52.7068480  50.0291705  18.4064001  60.8851121  48.4803814  22.2589831
  60.8669596  49.3012695  21.7670100  61.8071041  48.3557889  22.4839972
  57.3424175  45.9947944  23.1013339  57.8752512  45.2336232  22.8712647
  56.8138256  45.7021596  23.8437494  60.5093870  31.1008010  18.6306981
  60.1658139  31.9909651  18.5546092  60.8772833  30.9109667  17.7676566
  48.5779721  43.4241540  11.4495583  49.4154943  43.8338548  11.2329291
  48.7557988  42.4840982  11.4195777  60.4744153  41.0916621   7.1379416
  59.9590776  41.8621225   7.3767804  60.2021461  40.4181757   7.7612478
  58.0591264  35.9366322  12.1964655  57.2032860  35.5473172  12.0170293
  58.4718216  36.0158282  11.3364440  59.5890410  33.4712665  16.5956214
  59.0855206  33.4342800  15.7824020  59.8821017  34.3805408  16.6552871
  55.8333296  33.5551395  15.6022396  56.6986293  33.3594203  15.2428286
  55.9010805  33.3261746  16.5291753  65.4478427  43.8448975   9.0732590
  64.6707870  43.5060135   8.6287752  66.1269908  43.8501599   8.3987555
  60.2630456  38.9643713   8.9639198  59.9580591  39.2789862   9.8149341
  61.2160898  39.0425133   9.0066531  58.7076888  45.1233936  10.6132151
  58.1798249  44.3886696  10.3005389  58.2064390  45.9008613  10.3672120
  63.6869734  43.3182957  15.7299198  63.0293408  44.0082218  15.8179326
  64.4910133  43.7079389  16.0733184  53.4395615  35.7853602  12.9738763
  54.0139367  35.5628784  12.2411956  54.0266598  35.8542297  13.7267364
  62.4975193  41.6727329  13.7803140  63.0107074  42.3057321  14.2824849
  63.1476416  41.0728525  13.4146500  53.7665202  37.8158063   6.9934648
  52.9302515  38.1532750   7.3143923  53.6269972  37.6807043   6.0561785
  55.7418283  32.6594851  11.7013832  55.0882695  32.3443869  11.0770447
  55.6998757  32.0370592  12.4273655  56.8529488  42.9414146   3.6167125
  55.9456550  42.7103400   3.8158274  57.3500520  42.1451766   3.8041106
  59.7597567  51.6511654   6.5363811  59.0859266  51.9543350   7.1448769
  60.1463389  52.4540734   6.1869268  58.9756023  39.1476785  16.0261480
  58.0578585  39.3691732  15.8683168  59.3916167  39.2223095  15.1673187
  59.7591071  40.5468201  11.1564160  60.5062890  41.0589598  10.8471282
  60.0282661  40.2252253  12.0168554  58.0317721  43.0426741   8.1391115
  57.1228941  42.7585774   8.2363584  58.0612805  43.4625820   7.2794421
  63.2636989  46.6533331  11.9082282  62.8099316  45.8124241  11.9647473
  62.6330955  47.2894729  12.2457062  62.2069908  37.5825317  13.1382950
  61.4692665  37.0702703  13.4693192  62.4596682  37.1425698  12.3266227
  61.7069928  48.4909827  12.8432100  61.9992902  49.0514885  12.1244466
  62.2168549  48.7838388  13.5985259  62.3081536  30.3601569  13.7324719
  62.6140412  29.4998932  13.4450634  63.0334140  30.9519189  13.5323713
  48.6005892  40.7632255  12.1206317  48.4030292  40.1701616  11.3957383
  48.0452556  40.4584466  12.8382256  56.5802615  40.6555362  14.2400910
  56.6351225  39.7029198  14.1643387  55.7693817  40.8114801  14.7242208
  57.7293809  44.5835485   5.4779193  57.2913239  43.8671344   5.0184831
  58.4704250  44.8111600   4.9164285  54.5194975  39.2732422  11.9991289
  53.7062841  39.5726592  12.4056481  55.0153970  38.8788110  12.7165771
  56.6703553  49.2690179  13.9325554  56.6279732  49.4951025  13.0034086
  57.5866252  49.0353553  14.0811355  60.1169187  39.7374246  20.8306183
  60.4718575  39.9645719  21.6900648  60.7641318  40.0692623  20.2083438
  65.8466924  42.8592682  11.5355512  65.7084823  43.0494278  10.6076701
  65.4903143  43.6212065  11.9923563  54.0109050  36.8450777  17.6152524
  54.6508429  36.7039536  16.9175487  53.1786581  36.5585291  17.2391126
  65.8736304  44.9269209  16.5466783  66.3072810  44.8344498  17.3949837
  66.5867884  44.9026709  15.9086799  54.7869354  46.1453208  13.7287516
  55.5809952  45.6503528  13.5270091  54.0761046  45.6171071  13.3655222
  59.6064198  48.5271303  18.0799884  59.6601221  49.0962239  18.8477600
  58.7378980  48.6973188  17.7153921  51.0952117  40.2896289   9.8047269
  50.1649706  40.2280745  10.0217231  51.1909589  39.7672242   9.0083910
  51.0137666  36.8151102  12.3925511  51.2744484  37.7296435  12.2834671
  51.8354839  36.3475545  12.5422123  52.4862592  38.2288859  19.5624335
  53.1585645  38.0206221  18.9136984  51.6592378  38.0310945  19.1229567
  66.7351853  44.9692910  19.0799669  66.9287743  45.8738720  19.3258944
  66.6352471  44.5100329  19.9138254  58.3888164  34.8550800  21.5789996
  57.7416079  35.5540750  21.4854472  59.1589179  35.2886944  21.9466244
  61.7966962  45.1199652  24.6540549  61.6452468  44.8910204  23.7370633
  61.7871641  46.0770254  24.6671894  58.5652298  42.6931565  19.6386816
  59.4944358  42.8442725  19.4655783  58.1443328  42.7815586  18.7835462
  57.3640630  46.7182230  17.4085353  57.2251716  46.3501014  18.2811291
  56.5755226  47.2329869  17.2369311  57.9588782  51.8191326   8.7510890
  58.1340538  51.3479369   9.5656513  57.2721570  52.4457092   8.9792151
  58.9145845  46.0963832  14.7974191  58.5795678  46.0564602  15.6931841
  58.4149791  45.4308548  14.3244601  52.8890089  41.5031462  20.3226772
  52.7509887  40.7711701  20.9238311  53.7995013  41.4140362  20.0410960
  61.8505037  43.4419867   5.0711251  61.2334207  42.7166695   4.9744303
  61.3821525  44.2029227   4.7278325  55.5172390  41.2151422  19.8110452
  56.2272008  40.5744614  19.7697070  55.4741698  41.4664316  20.7336633
  63.5059168  48.1518775  22.7317031  63.4471715  47.4677995  22.0647614
  63.9078687  48.8937765  22.2797657  54.2301324  38.2016640  21.6306091
  53.6938681  37.7507378  22.2827688  53.6418032  38.3362548  20.8876556
  52.5249867  54.9680689  15.5250750  52.7646465  55.5999213  16.2029769
  51.6819064  54.6168729  15.8116109  53.6403583  37.6605291   4.1932555
  52.7633049  37.5394092   3.8294802  54.1161336  36.8691369   3.9411444
  63.5076576  46.1158359  20.9631011  62.6203354  45.7784281  21.0857410
  64.0775127  45.3841390  21.1999776  45.1605723  42.4482451  14.2874062
  45.8476763  42.1344181  13.6995078  45.0053852  43.3523815  14.0141314
  49.9640445  37.3372647  18.7159086  49.8798634  36.7298317  17.9809496
  49.1423151  37.8281666  18.7168582  57.0377729  50.7759811  17.9292254
  56.9647901  51.5814783  18.4411559  56.5955122  50.9751777  17.1040275
  56.8267509  50.0131581  11.4395076  56.0435031  50.5553261  11.5333300
  57.5260254  50.5305561  11.8389317  60.1364159  35.8226211  14.0829281
  60.6332858  35.0696173  13.7630351  59.3651140  35.8590527  13.5172490
  67.9893916  41.5266576  15.7247572  67.9783792  42.4091292  15.3541506
  67.1211296  41.1738127  15.5302110  59.4976413  50.6746645  20.0850413
  60.2104385  51.3094110  20.0126314  59.0066441  50.7710511  19.2690415
  61.2193940  44.5797898  11.6567704  60.2850218  44.6999360  11.4872409
  61.3970608  43.6770365  11.3927714  56.7199128  37.9643594  13.8100966
  56.3496915  37.4114634  14.4981871  57.2158220  37.3601727  13.2575966
  64.6066491  40.4215217  12.1917738  65.0726943  41.2543209  12.1178041
  65.0573991  39.9560199  12.8962997  54.5488326  48.4241089  20.9055984
  55.2497786  49.0577572  21.0585378  54.0783441  48.7655820  20.1451623
  62.6742722  46.7659039   9.1903891  62.9502566  46.6515633  10.0997765
  61.8047221  46.3676523   9.1516064  62.5783154  32.7895804  16.2308640
  61.6646233  33.0200031  16.3990847  63.0076255  32.8734248  17.0822672
  62.3489612  40.9785696  18.7308534  61.6961062  41.2261604  18.0760987
  62.7269992  40.1649834  18.3971011  59.3096786  51.0145389  12.8336704
  59.4919181  50.1967045  13.2964456  60.1329772  51.2313082  12.3961594
  59.6438951  49.9413575  10.0951753  60.1726718  49.4306029   9.4821915
  59.9067171  49.6256105  10.9597286  58.3977185  41.7205507  25.2174571
  57.7217822  41.6199637  25.8876946  59.2204819  41.5644721  25.6810568
  50.1456044  47.9577444  17.8387086  50.7309481  47.2121132  17.9714990
  49.9480883  48.2681401  18.7223750  52.9994699  50.9928691  12.8549529
  52.3305075  51.4774819  12.3713569  52.8607569  51.2397912  13.7692907
  44.7373699  40.5283044  16.5591529  44.7757798  39.9946635  17.3528647
  44.2313992  40.0018250  15.9402507  57.1399968  53.0272435  19.4532187
  57.6918276  53.1904056  20.2181272  57.4806161  53.6176873  18.7812212
  52.1164461  35.3747585  20.0554072  52.1805788  36.2362415  19.6431469
  52.0531581  34.7621586  19.3226430  51.5916734  37.4470717  23.7027106
  52.2188773  37.0647794  24.3164630  50.7344653  37.2284919  24.0682798
  61.9910842  47.8533692  25.3080841  62.5350746  48.4663650  24.8135796
  61.4097687  48.4113271  25.8247854  48.3682277  39.2547146   9.6345461
  48.6635718  38.3457825   9.5812514  47.4670312  39.2334886   9.3126463
  60.2768355  50.9754410  16.4395869  60.1519495  50.1744150  15.9306815
  60.9347446  51.4700604  15.9509839  51.8976524  37.3303143  15.6173009
  51.1763109  37.9439110  15.4780483  52.6869779  37.8660908  15.5389655
  62.3403264  48.7763430  18.0675419  61.3933599  48.6568782  17.9953746
  62.6886037  47.8885928  18.1501681  54.7002837  34.6657569  21.8913661
  55.2237239  34.9119866  22.6539970  54.4815170  35.4977604  21.4716798
  50.0970118  36.9361244   9.7584786  49.7682824  36.0558623   9.5759892
  50.4509489  36.8808913  10.6461175  59.3449697  48.5716147  14.2679771
  59.1974659  47.6432854  14.4487341  60.1703190  48.5936237  13.7836847
  53.2111941  37.2234214  10.1260264  53.5508014  37.7520135   9.4038872
  53.6584062  37.5614620  10.9018830  62.9483819  49.3944705  15.3544644
  63.8730366  49.1887567  15.2169095  62.7799122  49.1461106  16.2633986
  55.9055382  35.6071264  19.5763332  55.5652202  34.8079077  19.9784011
  55.1994388  35.9072975  19.0040165  56.5571854  32.6920577  18.0290655
  57.3797923  32.2181055  17.9069545  56.8009917  33.4711061  18.5289341
  55.1980088  35.7208835   8.3253556  55.9188451  36.0990088   7.8217273
  54.5745393  36.4397712   8.4288534  59.3411211  36.4253984   9.2611889
  59.5574826  37.3078622   8.9600717  58.8605278  36.0340198   8.5317531
  54.0810433  39.3839697  15.8382633  53.9355013  39.6980000  16.7306915
  53.6035636  40.0024598  15.2853532  55.9406816  36.3742245  15.8863523
  55.9268384  35.4783339  15.5495821  56.6579244  36.3812909  16.5201809
  57.7932946  36.8079586  17.9316650  57.5350724  37.7296656  17.9300981
  57.2617987  36.4110020  18.6217114  62.7379135  49.9130373  10.7106736
  62.9116013  49.3476795   9.9580588  63.2308026  50.7131268  10.5286226
  48.5556095  41.9245042  18.7770294  48.0109563  42.7004850  18.9090569
  49.4335445  42.2715846  18.6189416  55.3443711  35.2556626  11.1551093
  55.4659623  34.3273272  11.3541980  55.0545754  35.2695312  10.2429408
  58.2134902  32.9411536  14.2917813  58.2356599  33.0050869  13.3369792
  58.6302961  32.1016045  14.4858319  68.5918526  42.6766796  12.3297035
  69.0349672  41.9274121  11.9316159  67.7145036  42.6676932  11.9470767
  63.7254308  49.2297137   7.8103634  64.4205212  49.8503830   8.0290949
  64.0677458  48.3792488   8.0856012  49.3422117  41.0514938  21.6700451
  48.6003853  41.1997573  22.2565082  49.0214861  41.3123204  20.8067201
  65.6245731  46.6796843   9.3390965  66.1497055  47.0184115   8.6140285
  65.5368083  45.7443858   9.1554099  57.2865779  50.5930916  21.4680841
  57.5952906  50.3480063  22.3403541  58.0841261  50.7977555  20.9799712
  57.3086391  52.7468826  13.6986218  56.8691382  52.2545205  14.3919075
  58.0594508  52.2041794  13.4578293  49.7878730  48.9380367  13.7010846
  50.6136750  48.6384139  13.3209489  49.4372782  48.1687989  14.1500635
  54.7560264  48.2906835  15.7708520  54.1340273  47.6277540  15.4710747
  55.4265130  48.3167967  15.0882167  47.9887335  46.8566693  14.6599780
  47.1519244  46.4288868  14.4783781  47.9610981  47.0499137  15.5970571
  54.8284791  36.7688623  25.3641026  54.8772946  37.6450746  24.9818795
  55.3707305  36.2266016  24.7912669  65.3139637  47.3129746  24.6442163
  64.5235180  47.2953885  24.1046662  65.0772991  47.8518040  25.3991199
  65.4337512  44.1622213  21.9574891  65.4835517  43.9972220  22.8990414
  65.3251435  43.2949472  21.5672772  54.3173770  46.8410758   9.2466980
  54.4661891  47.5246223   8.5933653  55.1240214  46.8215848   9.7616436
  62.7241274  40.1453141  23.2734198  63.6251137  40.0059606  22.9818196
  62.7989249  40.3107596  24.2132375  57.0584079  37.5219995  22.1187384
  56.1887389  37.8153561  21.8469973  57.2943560  38.1060440  22.8394648
  66.9355709  46.5819154  22.2016913  66.6440517  46.9449135  23.0380374
  66.3227840  45.8686162  22.0230245  68.1351391  44.1472034  14.7219483
  68.9698282  44.5861838  14.8857043  68.2710520  43.6710687  13.9027729
  65.1842897  41.7051769  20.6696971  65.6597018  41.8979415  19.8615822
  64.2608462  41.7610955  20.4240354  52.0726403  42.8675936  10.2528049
  51.8272445  41.9638266  10.4508259  52.2422318  42.8693086   9.3107527
  59.7623113  33.7399612  19.6352805  60.2805057  34.4760639  19.3099293
  59.4078246  34.0463606  20.4699564  51.3422051  38.6004294   7.7514210
  50.6491296  38.6748649   7.0954246  51.0973803  37.8364637   8.2735727
  60.0135707  30.1599895  15.1553701  60.2937461  29.4923084  15.7814128
  60.7986314  30.3528991  14.6428365  57.8169176  49.3358889   6.7178727
  57.2443143  49.9549076   6.2649199  58.3901970  49.8858250   7.2518649
  63.8844566  38.5817529  18.9025276  64.8361989  38.6815627  18.9237500
  63.7148016  37.7895797  19.4123361  61.9058945  35.6673112  19.0884677
  61.3108877  35.9478125  18.3931166  61.6208642  36.1567013  19.8601418
  61.0366436  49.6196039   7.8487310  61.9697109  49.5541601   8.0520185
  60.9489649  50.4552306   7.3901842  63.6654452  48.9361909   4.8091257
  63.5868084  48.6021773   5.7027015  64.4864119  49.4283677   4.8082730
  66.3632644  41.8023649  18.0167576  66.3308964  40.8639649  18.2027260
  66.9733267  41.8807685  17.2833401  58.2015974  40.6719702   4.0594780
  59.1475079  40.5425910   4.1283198  57.8230219  39.9334363   4.5364208
  66.5127132  38.5934692  18.0625859  65.9966181  37.8093149  17.8755788
  67.3967081  38.2653409  18.2272379  64.1737859  32.3375708  14.0221672
  63.9762680  32.0290796  14.9065004  64.7837565  33.0637346  14.1519602
  72.1809193  42.8639655  17.1573613  72.9112582  42.6024944  17.7181316
  71.5716139  42.1268377  17.1975681  70.2624491  41.0047518  17.7548064
  69.5357654  40.8703483  17.1464556  69.8471777  41.3124347  18.5604782
  58.0854667  44.7237448  25.5195437  59.0057676  44.9016047  25.7135483
  58.0504250  43.7793493  25.3675136  56.3858892  38.5969678   3.9949665
  55.4790347  38.3002791   4.0712379  56.6634873  38.2999496   3.1283951
  47.3036832  39.9176041  14.4448712  46.9839616  39.0641350  14.1523086
  46.7570260  40.1324619  15.2006679  51.0816740  42.6338482  18.1618218
  51.3002749  43.5655590  18.1806252  51.4942513  42.2746457  18.9473022
  58.0020957  33.1406568  10.1493907  57.1921686  32.7953653  10.5249153
  58.6905374  32.8314111  10.7381518  59.9311506  32.2184614  11.7718203
  60.4842544  32.6380068  12.4308226  60.1681592  31.2920363  11.8141159
  55.9544605  38.2071688  27.5520967  55.8541332  39.1566045  27.4833058
  55.7366147  37.8789927  26.6797037  55.1557676  35.4556613   4.1361644
  56.0176840  35.7811511   4.3957462  55.3408020  34.6688109   3.6234710
  47.1725092  43.5378953  16.4141833  46.4788563  43.1232906  15.9011788
  47.9198083  43.5799489  15.8175252  63.3090313  34.3285140  11.2796867
  62.7288982  34.9869944  10.8974920  63.0426245  33.5062484  10.8684285
  61.7593879  33.7290197  13.4818188  62.2593657  33.8406732  12.6732507
  62.4029487  33.4251250  14.1218996  55.8175875  41.6368827  26.3686029
  55.3342957  42.4369187  26.5749918  55.9036814  41.6476772  25.4153473
  49.0861835  43.4697207  14.2907848  49.0632523  43.5684894  13.3389731
  49.3962471  44.3162357  14.6125014  51.7449212  45.5273362  18.4054462
  52.6992466  45.4957304  18.3384394  51.5461736  45.0663985  19.2204688
  52.3348595  44.0974478  20.9725260  53.1541484  44.5918556  20.9960097
  52.6085402  43.1806446  20.9442828  62.0915191  36.4885230  10.3353216
  61.2041046  36.7734881  10.1173410  62.5069180  36.3278993   9.4880493
  65.4429727  36.5131751  14.0507555  66.2190117  37.0028203  14.3232172
  64.7177861  36.9389805  14.5079424  67.8802285  37.2259370  15.1081496
  68.4746776  36.9855106  14.3974804  67.9528869  36.5066501  15.7355032
  50.0999441  51.0692981  15.4224660  49.9653909  50.3093382  14.8562658
  49.6831503  51.7933881  14.9553449  61.2358404  46.2529905   4.4301236
  61.9394254  46.4579907   5.0458891  60.5121053  46.8206667   4.6950319
  62.0656214  42.0039766  10.5503506  62.0091416  42.4608317   9.7111138
  62.6184557  41.2430451  10.3726349  65.8761020  37.7929498  11.3753625
  65.6197955  37.3926133  12.2061833  65.2513888  38.5073292  11.2503764
  70.1873358  40.5325571  13.8824917  69.6272916  40.6018760  14.6556479
  69.5816862  40.3566556  13.1624413  53.2568567  51.9662298  15.6343103
  53.1400951  52.9107731  15.5321793  52.4361013  51.6635860  16.0228902
  63.1445102  46.6912434   6.4799696  63.9790706  46.2593632   6.2977171
  62.9829445  46.5194448   7.4076590  62.7990994  43.1944547   7.8456035
  62.7439798  43.0288819   6.9044479  62.1737049  43.9020580   8.0018225
  47.5883509  38.4312612  21.6717457  48.2342372  37.9211566  22.1604682
  47.3800660  39.1681293  22.2460882  60.1136901  45.4993459  27.1709598
  60.9828061  45.6734111  26.8096233  59.6343652  46.3187876  27.0485327
  56.1087119  32.6952656   7.4241353  56.0965789  33.6394496   7.5809624
  57.0010541  32.5122802   7.1300815  54.2823081  52.6190560  18.8499031
  55.1850328  52.6514170  19.1665526  54.0560451  51.6891011  18.8645367
  56.0376683  51.3721547  15.5109110  55.0872314  51.3723408  15.3973482
  56.3409169  50.6254281  14.9945145  59.9239239  29.2895433  11.6787290
  59.1571635  28.7353920  11.8243973  60.3349944  29.3617302  12.5401442
  51.9281000  35.5780229  25.7692471  52.7912461  35.2217033  25.9795796
  51.3546410  35.2394123  26.4567876  71.7729377  57.2082085  16.5754872
  72.4107787  57.0888832  15.8718213  71.6550220  58.1562929  16.6342825
  68.5819083  57.1609513  16.5116397  68.2437595  57.0450578  15.6236932
  69.4508851  56.7600678  16.4917403  64.4405899  59.0144990  12.5013288
  63.8770764  58.9234926  11.7329576  64.3258294  58.1944894  12.9815781
  69.0638866  58.3144365  22.4702603  69.0527507  57.9197163  21.5983106
  69.2259505  57.5810437  23.0636374  61.9870331  60.5096181  15.3397509
  62.7791623  60.1687006  14.9243808  62.2266981  60.6191156  16.2599662
  65.7846127  61.0981477  21.4181787  65.4935993  62.0027107  21.3028453
  66.4203111  61.1398004  22.1325856  66.7102334  58.4758325  18.0083146
  67.3065906  58.2514348  17.2940109  66.7677306  57.7343071  18.6108594
  71.3270645  54.9333539  13.6508080  72.1133734  54.5152962  13.2998498
  71.5909350  55.8379631  13.8189729  76.7279072  54.8708772  14.5541059
  77.4604244  54.3007989  14.7878888  75.9718428  54.4830372  14.9947565
  68.3455192  57.2936014  11.7504401  67.9813399  56.7666635  12.4617323
  69.2022308  56.9034483  11.5770887  74.2504493  48.5830346  19.0135668
  73.9187817  49.4525757  18.7896883  73.6550106  48.2666630  19.6929698
  70.7436012  60.7842892  18.4131580  70.4436735  61.6867931  18.3047388
  70.3987072  60.5175075  19.2652733  64.1948494  57.2356689  14.4468285
  63.2698990  57.1032903  14.6545977  64.4432907  58.0150908  14.9438227
  74.1433156  53.3025432  16.0929018  73.2350033  53.2340841  15.7987779
  74.0920752  53.7797377  16.9210843  61.5557305  56.8789963  15.2812074
  61.6849686  57.1324441  16.1951486  60.8754756  57.4717671  14.9616729
  68.2174022  54.7215078  24.0363915  67.4407356  55.2808998  24.0266780
  68.8564585  55.2071861  24.5578785  76.0094802  51.5041871  17.8706892
  75.3669183  51.7974404  17.2246686  75.5049731  51.3894791  18.6760088
  66.4720394  57.5300531  23.5981882  67.2135078  58.0685575  23.3216706
  65.7657380  58.1566820  23.7553434  71.9475734  59.6729672  22.1954043
  72.3559090  59.2312082  21.4508676  71.2252995  59.0982299  22.4488236
  68.3006804  54.6102279  19.5687600  69.1467999  55.0341692  19.7122249
  68.2405441  53.9535903  20.2626163  72.2704548  60.2330862  15.9506332
  71.6413411  60.3976576  15.2482400  71.8830210  60.6472472  16.7217296
  71.4506249  52.2706647  21.2268774  71.2067181  53.0248707  20.6903050
  71.7266180  52.6491994  22.0616021  73.4044712  58.8145259  19.9046040
  73.6161607  59.4577019  19.2280421  73.3574460  57.9807576  19.4367970
  71.0070941  51.4263080  16.8082612  70.1455420  51.7244333  17.0999349
  71.0333375  51.6433479  15.8763644  67.8232510  59.9705270  13.2156417
  68.2870856  60.2492973  12.4261040  67.5589308  59.0688715  13.0329508
  64.7156591  59.5176752  16.1536181  65.2857948  59.9464020  15.5153665
  65.3064703  59.2359337  16.8520366  66.7601396  56.0928423  10.0245983
  67.4625440  56.5449466  10.4919909  66.4282025  55.4512242  10.6525876
  65.2081758  54.6840179  24.3997192  64.5780418  55.3656460  24.6332589
  65.1017846  54.5723261  23.4550330  60.5026730  54.3511975  15.3263116
  59.7125784  54.6069504  14.8503227  60.9937978  55.1660313  15.4315157
  74.5190540  61.6917215  18.0768397  75.3407984  61.2897402  17.7951079
  74.5152943  61.5885449  19.0284513  62.4541476  54.7156555  12.2846593
  61.6572639  54.8275249  12.8030088  62.2267068  55.0543207  11.4187483
  68.2847143  61.2401258  20.2329107  68.3491576  61.7021665  21.0687279
  67.5758067  60.6098623  20.3611417  58.7864433  54.6042466  17.7578107
  59.0372472  55.4889476  18.0235683  59.3223982  54.4247067  16.9853199
  64.4862501  48.9860945  26.7622443  64.0929446  48.4327144  27.4370087
  65.3028641  49.2971524  27.1528961  61.4524558  60.4244803  10.6736013
  61.9649079  61.2188054  10.8241578  62.1047271  59.7271094  10.6069614
  67.4030462  50.4018824  24.3542700  68.1440175  51.0025978  24.2747162
  67.6348384  49.6596462  23.7960742  62.5471800  55.5875192  22.6320929
  62.4325315  54.6860449  22.9328028  61.6916317  55.8338888  22.2805746
  69.6263637  63.5292932  24.2308430  69.1827491  62.7429311  23.9129334
  70.2880851  63.7172082  23.5652321  64.3850758  65.0588734  18.7569108
  64.9358184  64.9305797  17.9846102  63.5462234  65.3583623  18.4064001
  71.7244875  63.8095732  22.2589831  71.7063351  64.6304613  21.7670100
  72.6464795  63.6849807  22.4839972  68.1817930  61.3239861  23.1013339
  68.7146266  60.5628150  22.8712647  67.6532011  61.0313513  23.8437494
  71.3487624  46.4299927  18.6306981  71.0051894  47.3201569  18.5546092
  71.7166587  46.2401585  17.7676566  59.4173475  58.7533458  11.4495583
  60.2548697  59.1630466  11.2329291  59.5951743  57.8132900  11.4195777
  68.8985018  51.2658239  12.1964655  68.0426615  50.8765090  12.0170293
  69.3111970  51.3450200  11.3364440  70.4284165  48.8004582  16.5956214
  69.9248960  48.7634718  15.7824020  70.7214772  49.7097325  16.6552871
  66.6727051  48.8843312  15.6022396  67.5380048  48.6886121  15.2428286
  66.7404560  48.6553664  16.5291753  74.5263488  58.6474874  15.7299198
  73.8687163  59.3374136  15.8179326  75.3303887  59.0371306  16.0733184
  64.2789370  51.1145520  12.9738763  64.8533122  50.8920702  12.2411956
  64.8660352  51.1834215  13.7267364  73.3368947  57.0019247  13.7803140
  73.8500829  57.6349239  14.2824849  73.9870171  56.4020443  13.4146500
  66.5812038  47.9886769  11.7013832  65.9276450  47.6735786  11.0770447
  66.5392512  47.3662509  12.4273655  69.8149778  54.4768703  16.0261480
  68.8972339  54.6983650  15.8683168  70.2309922  54.5515013  15.1673187
  73.0463663  52.9117235  13.1382950  72.3086420  52.3994621  13.4693192
  73.2990436  52.4717616  12.3266227  73.1475290  45.6893487  13.7324719
  73.4534167  44.8290850  13.4450634  73.8727895  46.2811107  13.5323713
  59.4399646  56.0924173  12.1206317  59.2424046  55.4993534  11.3957383
  58.8846310  55.7876383  12.8382256  67.4196370  55.9847280  14.2400910
  67.4744980  55.0321116  14.1643387  66.6087572  56.1406719  14.7242208
  65.3588730  54.6024339  11.9991289  64.5456595  54.9018510  12.4056481
  65.8547724  54.2080028  12.7165771  70.9562941  55.0666164  20.8306183
  71.3112329  55.2937637  21.6900648  71.6035073  55.3984541  20.2083438
  64.8502805  52.1742695  17.6152524  65.4902184  52.0331454  16.9175487
  64.0180335  51.8877208  17.2391126  65.6263108  61.4745125  13.7287516
  66.4203707  60.9795445  13.5270091  64.9154801  60.9462988  13.3655222
  70.4457953  63.8563221  18.0799884  70.4994975  64.4254157  18.8477600
  69.5772734  64.0265106  17.7153921  61.9345872  55.6188207   9.8047269
  61.0043460  55.5572662  10.0217231  62.0303344  55.0964160   9.0083910
  61.8531421  52.1443020  12.3925511  62.1138238  53.0588353  12.2834671
  62.6748593  51.6767462  12.5422123  63.3256346  53.5580777  19.5624335
  63.9979400  53.3498139  18.9136984  62.4986133  53.3602863  19.1229567
  77.5745608  60.2984827  19.0799669  77.7681498  61.2030638  19.3258944
  77.4746226  59.8392246  19.9138254  69.2281918  50.1842718  21.5789996
  68.5809833  50.8832668  21.4854472  69.9982934  50.6178862  21.9466244
  72.6360716  60.4491570  24.6540549  72.4846223  60.2202122  23.7370633
  72.6265396  61.4062172  24.6671894  69.4046053  58.0223483  19.6386816
  70.3338113  58.1734642  19.4655783  68.9837083  58.1107504  18.7835462
  68.2034384  62.0474147  17.4085353  68.0645470  61.6792932  18.2811291
  67.4148981  62.5621787  17.2369311  69.7539600  61.4255750  14.7974191
  69.4189432  61.3856520  15.6931841  69.2543545  60.7600466  14.3244601
  63.7283844  56.8323380  20.3226772  63.5903642  56.1003619  20.9238311
  64.6388767  56.7432280  20.0410960  66.3566144  56.5443339  19.8110452
  67.0665763  55.9036531  19.7697070  66.3135452  56.7956234  20.7336633
  74.3452923  63.4810693  22.7317031  74.2865469  62.7969913  22.0647614
  74.7472441  64.2229683  22.2797657  65.0695078  53.5308557  21.6306091
  64.5332435  53.0799296  22.2827688  64.4811787  53.6654466  20.8876556
  74.3470330  61.4450277  20.9631011  73.4597109  61.1076198  21.0857410
  74.9168881  60.7133308  21.1999776  55.9999477  57.7774368  14.2874062
  56.6870517  57.4636098  13.6995078  55.8447606  58.6815733  14.0141314
  60.8034199  52.6664565  18.7159086  60.7192388  52.0590234  17.9809496
  59.9816906  53.1573583  18.7168582  67.8771484  66.1051729  17.9292254
  67.8041655  66.9106700  18.4411559  67.4348877  66.3043695  17.1040275
  70.9757913  51.1518128  14.0829281  71.4726613  50.3988091  13.7630351
  70.2044895  51.1882445  13.5172490  78.8287671  56.8558494  15.7247572
  78.8177547  57.7383209  15.3541506  77.9605050  56.5030045  15.5302110
  70.3370167  66.0038563  20.0850413  71.0498139  66.6386028  20.0126314
  69.8460196  66.1002429  19.2690415  67.5592882  53.2935511  13.8100966
  67.1890670  52.7406552  14.4981871  68.0551975  52.6893645  13.2575966
  65.3882081  63.7533006  20.9055984  66.0891540  64.3869489  21.0585378
  64.9177196  64.0947738  20.1451623  73.4176908  48.1187722  16.2308640
  72.5039988  48.3491949  16.3990847  73.8470010  48.2026166  17.0822672
  73.1883367  56.3077614  18.7308534  72.5354817  56.5553521  18.0760987
  73.5663747  55.4941752  18.3971011  69.2370940  57.0497425  25.2174571
  68.5611577  56.9491554  25.8876946  70.0598574  56.8936639  25.6810568
  60.9849799  63.2869361  17.8387086  61.5703236  62.5413049  17.9714990
  60.7874637  63.5973318  18.7223750  55.5767453  55.8574962  16.5591529
  55.6151553  55.3238552  17.3528647  55.0707746  55.3310167  15.9402507
  67.9793723  68.3564352  19.4532187  68.5312031  68.5195974  20.2181272
  68.3199916  68.9468790  18.7812212  62.9558216  50.7039502  20.0554072
  63.0199542  51.5654333  19.6431469  62.8925336  50.0913504  19.3226430
  62.4310488  52.7762635  23.7027106  63.0582527  52.3939712  24.3164630
  61.5738407  52.5576837  24.0682798  72.8304597  63.1825610  25.3080841
  73.3744501  63.7955568  24.8135796  72.2491442  63.7405188  25.8247854
  59.2076031  54.5839064   9.6345461  59.5029472  53.6749742   9.5812514
  58.3064067  54.5626803   9.3126463  62.7370278  52.6595060  15.6173009
  62.0156864  53.2731028  15.4780483  63.5263534  53.1952825  15.5389655
  73.1797018  64.1055348  18.0675419  72.2327354  63.9860699  17.9953746
  73.5279791  63.2177846  18.1501681  65.5396592  49.9949487  21.8913661
  66.0630993  50.2411783  22.6539970  65.3208925  50.8269522  21.4716798
  60.9363873  52.2653161   9.7584786  60.6076579  51.3850540   9.5759892
  61.2903243  52.2100830  10.6461175  64.0505696  52.5526131  10.1260264
  64.3901768  53.0812053   9.4038872  64.4977816  52.8906537  10.9018830
  66.7449137  50.9363182  19.5763332  66.4045957  50.1370995  19.9784011
  66.0388143  51.2364893  19.0040165  67.3965608  48.0212494  18.0290655
  68.2191678  47.5472973  17.9069545  67.6403672  48.8002978  18.5289341
  66.0373843  51.0500753   8.3253556  66.7582205  51.4282006   7.8217273
  65.4139147  51.7689630   8.4288534  70.1804966  51.7545902   9.2611889
  70.3968580  52.6370540   8.9600717  69.6999033  51.3632115   8.5317531
  64.9204187  54.7131615  15.8382633  64.7748768  55.0271918  16.7306915
  64.4429391  55.3316515  15.2853532  66.7800570  51.7034163  15.8863523
  66.7662139  50.8075256  15.5495821  67.4972998  51.7104827  16.5201809
  68.6326701  52.1371503  17.9316650  68.3744479  53.0588574  17.9300981
  68.1011741  51.7401938  18.6217114  59.3949849  57.2536959  18.7770294
  58.8503317  58.0296767  18.9090569  60.2729199  57.6007764  18.6189416
  66.1837466  50.5848543  11.1551093  66.3053377  49.6565190  11.3541980
  65.8939508  50.5987229  10.2429408  69.0528656  48.2703454  14.2917813
  69.0750353  48.3342787  13.3369792  69.4696715  47.4307962  14.4858319
  60.1815871  56.3806856  21.6700451  59.4397607  56.5289491  22.2565082
  59.8608615  56.6415121  20.8067201  68.1259534  65.9222834  21.4680841
  68.4346660  65.6771981  22.3403541  68.9235016  66.1269472  20.9799712
  60.6272485  64.2672284  13.7010846  61.4530505  63.9676056  13.3209489
  60.2766537  63.4979907  14.1500635  65.5954018  63.6198753  15.7708520
  64.9734027  62.9569458  15.4710747  66.2658885  63.6459885  15.0882167
  58.8281090  62.1858611  14.6599780  57.9912998  61.7580785  14.4783781
  58.8004735  62.3791054  15.5970571  65.6678546  52.0980541  25.3641026
  65.7166701  52.9742664  24.9818795  66.2101060  51.5557934  24.7912669
  76.1533391  62.6421664  24.6442163  75.3628935  62.6245803  24.1046662
  75.9166746  63.1809958  25.3991199  76.2731266  59.4914130  21.9574891
  76.3229271  59.3264138  22.8990414  76.1645190  58.6241389  21.5672772
  73.5635029  55.4745058  23.2734198  74.4644891  55.3351523  22.9818196
  73.6383003  55.6399513  24.2132375  67.8977834  52.8511913  22.1187384
  67.0281143  53.1445479  21.8469973  68.1337314  53.4352358  22.8394648
  77.7749463  61.9111072  22.2016913  77.4834271  62.2741052  23.0380374
  77.1621594  61.1978080  22.0230245  76.0236651  57.0343686  20.6696971
  76.4990773  57.2271333  19.8615822  75.1002217  57.0902872  20.4240354
  62.9120158  58.1967854  10.2528049  62.6666200  57.2930184  10.4508259
  63.0816072  58.1985004   9.3107527  70.6016868  49.0691530  19.6352805
  71.1198812  49.8052557  19.3099293  70.2472001  49.3755523  20.4699564
  62.1815805  53.9296211   7.7514210  61.4885050  54.0040566   7.0954246
  61.9367557  53.1656555   8.2735727  70.8529462  45.4891813  15.1553701
  71.1331216  44.8215002  15.7814128  71.6380069  45.6820908  14.6428365
  74.7238320  53.9109447  18.9025276  75.6755743  54.0107544  18.9237500
  74.5541771  53.1187715  19.4123361  72.7452700  50.9965030  19.0884677
  72.1502632  51.2770043  18.3931166  72.4602396  51.4858931  19.8601418
  77.2026398  57.1315566  18.0167576  77.1702718  56.1931567  18.2027260
  77.8127022  57.2099603  17.2833401  77.3520887  53.9226610  18.0625859
  76.8359935  53.1385066  17.8755788  78.2360835  53.5945326  18.2272379
  75.0131614  47.6667625  14.0221672  74.8156435  47.3582713  14.9065004
  75.6231319  48.3929264  14.1519602  81.1018245  56.3339436  17.7548064
  80.3751409  56.1995401  17.1464556  80.6865532  56.6416264  18.5604782
  68.9248421  60.0529365  25.5195437  69.8451431  60.2307964  25.7135483
  68.8898005  59.1085411  25.3675136  58.1430586  55.2467959  14.4448712
  57.8233371  54.3933267  14.1523086  57.5964015  55.4616537  15.2006679
  61.9210494  57.9630400  18.1618218  62.1396504  58.8947508  18.1806252
  62.3336268  57.6038374  18.9473022  68.8414712  48.4698485  10.1493907
  68.0315440  48.1245570  10.5249153  69.5299129  48.1606029  10.7381518
  70.7705260  47.5476532  11.7718203  71.3236299  47.9671986  12.4308226
  71.0075346  46.6212280  11.8141159  66.7938359  53.5363606  27.5520967
  66.6935086  54.4857963  27.4833058  66.5759901  53.2081845  26.6797037
  58.0118846  58.8670871  16.4141833  57.3182318  58.4524823  15.9011788
  58.7591837  58.9091407  15.8175252  74.1484067  49.6577057  11.2796867
  73.5682736  50.3161861  10.8974920  73.8820000  48.8354402  10.8684285
  72.5987634  49.0582115  13.4818188  73.0987412  49.1698650  12.6732507
  73.2423242  48.7543168  14.1218996  66.6569629  56.9660745  26.3686029
  66.1736711  57.7661105  26.5749918  66.7430568  56.9768689  25.4153473
  59.9255589  58.7989124  14.2907848  59.9026277  58.8976812  13.3389731
  60.2356226  59.6454275  14.6125014  62.5842967  60.8565279  18.4054462
  63.5386220  60.8249222  18.3384394  62.3855490  60.3955903  19.2204688
  63.1742349  59.4266395  20.9725260  63.9935238  59.9210474  20.9960097
  63.4479157  58.5098364  20.9442828  72.9308945  51.8177148  10.3353216
  72.0434800  52.1026798  10.1173410  73.3462934  51.6570911   9.4880493
  76.2823481  51.8423669  14.0507555  77.0583871  52.3320121  14.3232172
  75.5571616  52.2681723  14.5079424  78.7196040  52.5551288  15.1081496
  79.3140531  52.3147024  14.3974804  78.7922624  51.8358418  15.7355032
  60.9393196  66.3984899  15.4224660  60.8047664  65.6385300  14.8562658
  60.5225258  67.1225799  14.9553449  64.0962322  67.2954216  15.6343103
  63.9794706  68.2399648  15.5321793  63.2754768  66.9927777  16.0228902
  58.4277263  53.7604529  21.6717457  59.0736127  53.2503483  22.1604682
  58.2194414  54.4973211  22.2460882  70.9530655  60.8285377  27.1709598
  71.8221815  61.0026029  26.8096233  70.4737407  61.6479794  27.0485327
  66.9480874  48.0244574   7.4241353  66.9359544  48.9686414   7.5809624
  67.8404296  47.8414719   7.1300815  65.1216836  67.9482478  18.8499031
  66.0244082  67.9806088  19.1665526  64.8954206  67.0182929  18.8645367
  70.7632993  44.6187351  11.6787290  69.9965389  44.0645837  11.8243973
  71.1743698  44.6909219  12.5401442  62.7674754  50.9072146  25.7692471
  63.6306216  50.5508951  25.9795796  62.1940165  50.5686041  26.4567876
  79.0567776  70.0506996  24.0363915  78.2801110  70.6100916  24.0266780
  79.6958339  70.5363779  24.5578785  76.0475512  70.0132097  24.3997192
  75.4174173  70.6948378  24.6332589  75.9411600  69.9015179  23.4550330
  75.3256255  64.3152863  26.7622443  74.9323201  63.7619062  27.4370087
  76.1422395  64.6263441  27.1528961  78.2424216  65.7310742  24.3542700
  78.9833929  66.3317895  24.2747162  78.4742139  64.9888380  23.7960742
  73.3865554  70.9167109  22.6320929  73.2719069  70.0152367  22.9328028
  72.5310072  71.1630806  22.2805746  80.0675673  65.5134636  21.5789996
  79.4203588  66.2124585  21.4854472  80.8376688  65.9470780  21.9466244
  75.9088833  68.8600475  21.6306091  75.3726190  68.4091213  22.2827688
  75.3205541  68.9946384  20.8876556  71.6427954  67.9956483  18.7159086
  71.5586143  67.3882152  17.9809496  70.8210660  68.4865501  18.7168582
  80.0764694  72.3789343  25.2174571  79.4005331  72.2783472  25.8876946
  80.8992328  72.2228556  25.6810568  73.7951970  66.0331420  20.0554072
  73.8593297  66.8946251  19.6431469  73.7319090  65.4205422  19.3226430
  73.2704243  68.1054552  23.7027106  73.8976282  67.7231630  24.3164630
  72.4132162  67.8868754  24.0682798  76.3790346  65.3241405  21.8913661
  76.9024748  65.5703701  22.6539970  76.1602679  66.1561439  21.4716798
  71.0209626  71.7098773  21.6700451  70.2791362  71.8581409  22.2565082
  70.7002370  71.9707039  20.8067201  76.5072300  67.4272458  25.3641026
  76.5560455  68.3034581  24.9818795  77.0494814  66.8849851  24.7912669
  78.7371588  68.1803831  22.1187384  77.8674898  68.4737397  21.8469973
  78.9731069  68.7644276  22.8394648  77.6332114  68.8655523  27.5520967
  77.5328841  69.8149880  27.4833058  77.4153656  68.5373762  26.6797037
  77.4963384  72.2952662  26.3686029  77.0130466  73.0953022  26.5749918
  77.5824323  72.3060607  25.4153473  69.2671018  69.0896447  21.6717457
  69.9129881  68.5795401  22.1604682  69.0588169  69.8265129  22.2460882
  73.6068509  66.2364064  25.7692471  74.4699970  65.8800869  25.9795796
  73.0333919  65.8977959  26.4567876  47.9476130   9.8771219  10.9553736
  47.5039984   9.0907598  10.6374641  48.6093343  10.0650370  10.2897627
  50.0457368  10.1574019   8.9835138  50.0275843  10.9782900   8.4915407
  50.9677288  10.0328094   9.2085279  46.5030422   7.6718149   9.8258646
  47.0358759   6.9106437   9.5957954  45.9744503   7.3791800  10.5682801
  50.9573209   6.7969857  11.3785856  50.8058715   6.5680409  10.4615940
  50.9477888   7.7540459  11.3917201  52.6665415   9.8288980   9.4562338
  52.6077961   9.1448200   8.7892921  53.0684934  10.5707970   9.0042964
  52.6682822   7.7928564   7.6876317  51.7809601   7.4554486   7.8102716
  53.2381374   7.0611595   7.9245083  48.6582659  12.3516850   6.8095719
  49.3710632  12.9864315   6.7371621  48.1672688  12.4480716   5.9935721
  47.5583432   3.3975712  11.9419878  46.8824069   3.2969841  12.6122253
  48.3811066   3.2414926  12.4055875  46.3006215  14.7042640   6.1777494
  46.8524523  14.8674261   6.9426579  46.6412408  15.2947077   5.5057518
  51.1517089   9.5303897  12.0326148  51.6956993  10.1433855  11.5381103
  50.5703934  10.0883476  12.5493161  46.4472026  12.2701121   8.1926148
  46.7559153  12.0250268   9.0648848  47.2447508  12.4747760   7.7045018
  54.4745883   8.9899951  11.3687469  53.6841427   8.9724090  10.8291969
  54.2379238   9.5288245  12.1236506  54.5943759   5.8392418   8.6820198
  54.6441763   5.6742425   9.6235721  54.4857682   4.9719677   8.2918079
  56.0961955   8.2589359   8.9262219  55.8046764   8.6219340   9.7625680
  55.4834087   7.5456367   8.7475551  47.2460914   6.4007653  12.2440744
  48.1663923   6.5786252  12.4380790  47.2110497   5.4563698  12.0920443
  44.9782122   3.3139032  13.0931335  44.4949203   4.1139392  13.2995224
  45.0643061   3.3246977  12.1398779  49.2743148   7.1763664  13.8954904
  50.1434307   7.3504316  13.5341539  48.7949899   7.9958081  13.7730634
  57.7425330  18.8379718   3.2361704  57.4043841  18.7220783   2.3482239
  58.6115098  18.4370883   3.2162710  58.2245113  19.9914570   9.1947909
  58.2133754  19.5967368   8.3228413  58.3865752  19.2580642   9.7881681
  51.1476577  22.1866386   2.0642815  51.9397869  21.8457211   1.6489114
  51.3873228  22.2961361   2.9844969  54.9452374  22.7751682   8.1427093
  54.6542240  23.6797312   8.0273760  55.5809358  22.8168209   8.8571163
  55.8708581  20.1528530   4.7328453  56.4672153  19.9284552   4.0185416
  55.9283552  19.4113276   5.3353901  59.9042259  22.4613097   5.1376887
  59.6042982  23.3638136   5.0292694  59.5593318  22.1945280   5.9898040
  53.3554740  18.9126894   1.1713591  52.4305237  18.7803108   1.3791283
  53.6039154  19.6921113   1.6683534  50.7163551  18.5560167   2.0057380
  50.8455933  18.8094646   2.9196792  50.0361003  19.1487875   1.6862036
  54.8863039  29.2257417  -1.8952145  54.8087068  30.1765242  -1.8163665
  54.2824682  28.8803290  -1.2377219  57.3780269  16.3985283  10.7609222
  56.6013603  16.9579203  10.7512086  58.0170832  16.8842066  11.2824092
  55.6326641  19.2070736  10.3227189  56.3741325  19.7455780  10.0462012
  54.9263626  19.8337025  10.4798740  61.1081980  21.3499877   8.9199350
  61.5165337  20.9082287   8.1753982  60.3859242  20.7752504   9.1733543
  57.4613051  16.2872483   6.2932907  58.3074246  16.7111897   6.4367556
  57.4011688  15.6306108   6.9871470  61.4310795  21.9101067   2.6751639
  60.8019658  22.0746781   1.9727707  61.0436457  22.3242677   3.4462603
  60.6112496  13.9476852   7.9514081  60.3673428  14.7018912   7.4148356
  60.8872426  14.3262199   8.7861328  62.5650959  20.4915464   6.6291346
  62.7767854  21.1347224   5.9525727  62.5180707  19.6577781   6.1613276
  56.9838757  21.6475475  -0.0598276  57.4477103  21.9263178  -0.8493653
  56.7195555  20.7458920  -0.2425185  53.8762838  21.1946957   2.8781487
  54.4464195  21.6234225   2.2398972  54.4670950  20.9129542   3.5765673
  54.3688005  16.3610384  11.1242499  53.7386665  17.0426665  11.3577895
  54.2624092  16.2493466  10.1795637  63.6796787  23.3687420   4.8013704
  64.5014230  22.9667607   4.5196385  63.6759189  23.2655654   5.7529819
  57.4453390  22.9171463   6.9574414  57.5097823  23.3791870   7.7932586
  56.7364314  22.2868828   7.0856724  47.9470680  16.2812671   4.4823414
  48.1978718  17.1659681   4.7480989  48.4830228  16.1017272   3.7098505
  53.6468747  10.6631150  13.4867750  53.2535693  10.1097349  14.1615394
  54.4634888  10.9741729  13.8774267  52.4225690  25.2180765  -0.5195927
  52.5992318  26.1398729  -0.7074943  53.2182523  24.9039184  -0.0901548
  56.5636708  12.0789029  11.0788006  57.3046422  12.6796182  10.9992469
  56.7954631  11.3366667  10.5206049  51.7078046  17.2645397   9.3566236
  51.5931561  16.3630654   9.6573335  50.8522564  17.5109093   9.0051052
  58.7869884  25.2063137  10.9553736  58.3433738  24.4199515  10.6374641
  59.4487098  25.3942287  10.2897627  53.5457005  26.7358938   5.4814415
  54.0964430  26.6076002   4.7091409  52.7068481  27.0353827   5.1309308
  60.8851122  25.4865937   8.9835138  60.8669597  26.3074818   8.4915407
  61.8071042  25.3620012   9.2085279  57.3424176  23.0010066   9.8258646
  57.8752513  22.2398354   9.5957954  56.8138257  22.7083718  10.5682801
  56.5802617  17.6617484   0.9646217  56.6351226  16.7091321   0.8888693
  55.7693819  17.8176924   1.4487515  56.6703554  26.2752301   0.6570860
  56.6279733  26.5013147  -0.2720608  57.5866253  26.0415676   0.8056661
  60.1169188  16.7436369   7.5551489  60.4718576  16.9707842   8.4145955
  60.7641319  17.0754746   6.9328745  54.0109051  13.8512900   4.3397830
  54.6508431  13.7101659   3.6420794  53.1786582  13.5647413   3.9636432
  54.7869355  23.1515330   0.4532823  55.5809954  22.6565650   0.2515398
  54.0761048  22.6233193   0.0900528  59.6064200  25.5333426   4.8045191
  59.6601222  26.1024362   5.5722906  58.7378981  25.7035311   4.4399228
  52.4862593  15.2350982   6.2869642  53.1585647  15.0268344   5.6382291
  51.6592380  15.0373068   5.8474874  58.3888165  11.8612923   8.3035303
  57.7416080  12.5602872   8.2099779  59.1589180  12.2949067   8.6711551
  61.7966963  22.1261775  11.3785856  61.6452469  21.8972327  10.4615940
  61.7871643  23.0832376  11.3917201  58.5652299  19.6993688   6.3632122
  59.4944359  19.8504847   6.1901090  58.1443329  19.7877709   5.5080769
  57.3640631  23.7244352   4.1330660  57.2251717  23.3563137   5.0056598
  56.5755227  24.2391992   3.9614618  57.9588783  28.8253449  -4.5243803
  58.1340539  28.3541492  -3.7098181  57.2721571  29.4519215  -4.2962543
  58.9145846  23.1025955   1.5219498  58.5795679  23.0626725   2.4177148
  58.4149792  22.4370671   1.0489908  52.8890090  18.5093585   7.0472079
  52.7509888  17.7773824   7.6483618  53.7995014  18.4202485   6.7656267
  55.5172391  18.2213544   6.5355759  56.2272010  17.5806736   6.4942377
  55.4741699  18.4726439   7.4581939  63.5059170  25.1580898   9.4562338
  63.4471716  24.4740118   8.7892921  63.9078688  25.8999888   9.0042964
  54.2301325  15.2078762   8.3551398  53.6938682  14.7569501   9.0072994
  53.6418033  15.3424671   7.6121862  52.5249868  31.9742811   2.2496057
  52.7646467  32.6061336   2.9275075  51.6819065  31.6230851   2.5361416
  63.5076577  23.1220482   7.6876317  62.6203356  22.7846403   7.8102716
  64.0775128  22.3903513   7.9245083  49.9640446  14.3434770   5.4404393
  49.8798635  13.7360439   4.7054802  49.1423153  14.8343788   5.4413889
  57.0377730  27.7821934   4.6537561  56.9647902  28.5876905   5.1656865
  56.5955123  27.9813900   3.8285582  56.8267510  27.0193704  -1.8359618
  56.0435032  27.5615384  -1.7421393  57.5260255  27.5367684  -1.4365377
  59.4976414  27.6808768   6.8095719  60.2104386  28.3156233   6.7371621
  59.0066443  27.7772634   5.9935721  54.5488327  25.4303211   7.6301290
  55.2497787  26.0639694   7.7830684  54.0783442  25.7717943   6.8696929
  59.3096787  28.0207512  -0.4417989  59.4919182  27.2029168   0.0209763
  60.1329773  28.2375204  -0.8793099  58.3977186  18.7267630  11.9419878
  57.7217823  18.6261759  12.6122253  59.2204820  18.5706844  12.4055875
  50.1456045  24.9639566   4.5632393  50.7309482  24.2183254   4.6960297
  49.9480884  25.2743523   5.4469057  52.9994701  27.9990814  -0.4205165
  52.3305076  28.4836941  -0.9041125  52.8607570  28.2460034   0.4938214
  57.1399969  30.0334557   6.1777494  57.6918277  30.1966179   6.9426579
  57.4806163  30.6238995   5.5057518  52.1164462  12.3809707   6.7799378
  52.1805789  13.2424538   6.3676776  52.0531583  11.7683709   6.0471737
  51.5916735  14.4532840  10.4272413  52.2188774  14.0709917  11.0409937
  50.7344654  14.2347042  10.7928105  61.9910844  24.8595815  12.0326148
  62.5350748  25.4725773  11.5381103  61.4097688  25.4175393  12.5493161
  60.2768357  27.9816533   3.1641176  60.1519496  27.1806273   2.6552121
  60.9347448  28.4762726   2.6755146  62.3403265  25.7825553   4.7920726
  61.3933600  25.6630904   4.7199053  62.6886038  24.8948051   4.8746987
  54.7002838  11.6719692   8.6158968  55.2237240  11.9181988   9.3785277
  54.4815172  12.5039727   8.1962105  59.3449698  25.5778269   0.9925078
  59.1974661  24.6494977   1.1732648  60.1703192  25.5998360   0.5082153
  62.9483820  26.4006828   2.0789951  63.8730368  26.1949689   1.9414402
  62.7799123  26.1523229   2.9879292  55.9055383  12.6133387   6.3008638
  55.5652204  11.8141200   6.7029318  55.1994390  12.9135098   5.7285471
  54.0810434  16.3901820   2.5627940  53.9355015  16.7042123   3.4552221
  53.6035638  17.0086720   2.0098839  57.7932948  13.8141708   4.6561957
  57.5350725  14.7358779   4.6546287  57.2617988  13.4172143   5.3462421
  48.5556096  18.9307164   5.5015601  48.0109564  19.7066972   5.6335875
  49.4335446  19.2777969   5.3434722  49.3422118  18.0577061   8.3945758
  48.6003854  18.2059696   8.9810388  49.0214862  18.3185326   7.5312507
  57.2865781  27.5993039   8.1926148  57.5952907  27.3542186   9.0648848
  58.0841263  27.8039677   7.7045018  57.3086393  29.7530949   0.4231524
  56.8691383  29.2607327   1.1164381  58.0594510  29.2103916   0.1823600
  49.7878732  25.9442489   0.4256153  50.6136752  25.6446261   0.0454796
  49.4372784  25.1750112   0.8745941  54.7560265  25.2968958   2.4953826
  54.1340274  24.6339663   2.1956054  55.4265132  25.3230090   1.8127474
  47.9887337  23.8628816   1.3845086  47.1519245  23.4350990   1.2029087
  47.9610982  24.0561259   2.3215877  54.8284792  13.7750746  12.0886332
  54.8772948  14.6512868  11.7064102  55.3707306  13.2328139  11.5157975
  65.3139638  24.3191869  11.3687469  64.5235182  24.3016008  10.8291969
  65.0772993  24.8580163  12.1236506  65.4337513  21.1684335   8.6820198
  65.4835518  21.0034343   9.6235721  65.3251436  20.3011594   8.2918079
  62.7241275  17.1515263   9.9979505  63.6251138  17.0121728   9.7063502
  62.7989250  17.3169718  10.9377682  57.0584081  14.5282118   8.8432691
  56.1887390  14.8215684   8.5715279  57.2943561  15.1122563   9.5639954
  66.9355710  23.5881277   8.9262219  66.6440518  23.9511257   9.7625680
  66.3227841  22.8748285   8.7475551  58.0854668  21.7299570  12.2440744
  59.0057678  21.9078169  12.4380790  58.0504251  20.7855616  12.0920443
  51.0816741  19.6400605   4.8863525  51.3002751  20.5717713   4.9051559
  51.4942515  19.2808579   5.6718329  55.9544606  15.2133811  14.2766274
  55.8541333  16.1628168  14.2078365  55.7366148  14.8852050  13.4042344
  47.1725093  20.5441075   3.1387140  46.4788565  20.1295028   2.6257094
  47.9198084  20.5861612   2.5420559  55.8175876  18.6430950  13.0931335
  55.3342958  19.4431310  13.2995224  55.9036815  18.6538894  12.1398779
  51.7449214  22.5335484   5.1299769  52.6992467  22.5019427   5.0629701
  51.5461737  22.0726108   5.9449995  52.3348596  21.1036600   7.6970567
  53.1541485  21.5980679   7.7205404  52.6085404  20.1868568   7.6688134
  50.0999442  28.0755104   2.1469967  49.9653910  27.3155505   1.5807965
  49.6831505  28.7996004   1.6798756  53.2568568  28.9724421   2.3588410
  53.1400952  29.9169853   2.2567100  52.4361015  28.6697982   2.7474209
  47.5883510  15.4374734   8.3962764  48.2342374  14.9273688   8.8849989
  47.3800661  16.1743416   8.9706189  60.1136902  22.5055582  13.8954904
  60.9828062  22.6796234  13.5341539  59.6343654  23.3249998  13.7730634
  54.2823082  29.6252683   5.5744338  55.1850329  29.6576293   5.8910833
  54.0560453  28.6953134   5.5890674  56.0376684  28.3783669   2.2354417
  55.0872315  28.3785531   2.1218789  56.3409171  27.6316404   1.7190451
  51.9281001  12.5842351  12.4937778  52.7912463  12.2279156  12.7041103
  51.3546412  12.2456246  13.1813182  68.5819084  34.1671636   3.2361704
  68.2437596  34.0512700   2.3482239  69.4508852  33.7662801   3.2162710
  64.4405900  36.0207112  -0.7741405  63.8770765  35.9297049  -1.5425118
  64.3258295  35.2007017  -0.2938913  69.0638867  35.3206487   9.1947909
  69.0527508  34.9259286   8.3228413  69.2259507  34.5872560   9.7881681
  61.9870332  37.5158304   2.0642815  62.7791624  37.1749128   1.6489114
  62.2266982  37.6253279   2.9844969  65.7846128  38.1043599   8.1427093
  65.4935994  39.0089230   8.0273760  66.4203113  38.1460127   8.8571163
  66.7102335  35.4820448   4.7328453  67.3065907  35.2576470   4.0185416
  66.7677307  34.7405193   5.3353901  70.7436013  37.7905015   5.1376887
  70.4436737  38.6930054   5.0292694  70.3987073  37.5237198   5.9898040
  64.1948495  34.2418812   1.1713591  63.2698991  34.1095026   1.3791283
  64.4432908  35.0213031   1.6683534  61.5557306  33.8852085   2.0057380
  61.6849687  34.1386564   2.9196792  60.8754757  34.4779793   1.6862036
  68.2174023  31.7277201  10.7609222  67.4407357  32.2871121  10.7512086
  68.8564586  32.2133983  11.2824092  66.4720395  34.5362654  10.3227189
  67.2135080  35.0747698  10.0462012  65.7657381  35.1628943  10.4798740
  71.9475735  36.6791794   8.9199350  72.3559091  36.2374205   8.1753982
  71.2252996  36.1044422   9.1733543  68.3006805  31.6164401   6.2932907
  69.1468000  32.0403815   6.4367556  68.2405443  30.9598025   6.9871470
  72.2704550  37.2392985   2.6751639  71.6413412  37.4038699   1.9727707
  71.8830212  37.6534595   3.4462603  71.4506250  29.2768769   7.9514081
  71.2067182  30.0310830   7.4148356  71.7266181  29.6554117   8.7861328
  73.4044713  35.8207382   6.6291346  73.6161608  36.4639142   5.9525727
  73.3574461  34.9869698   6.1613276  67.8232511  36.9767393  -0.0598276
  68.2870857  37.2555096  -0.8493653  67.5589310  36.0750838  -0.2425185
  64.7156593  36.5238875   2.8781487  65.2857950  36.9526143   2.2398972
  65.3064704  36.2421459   3.5765673  65.2081759  31.6902302  11.1242499
  64.5780420  32.3718583  11.3577895  65.1017847  31.5785384  10.1795637
  60.5026732  31.3574098   2.0508423  59.7125785  31.6131627   1.5748533
  60.9937979  32.1722436   2.1560463  74.5190541  38.6979337   4.8013704
  75.3407985  38.2959525   4.5196385  74.5152944  38.5947571   5.7529819
  62.4541477  31.7218677  -0.9908101  61.6572640  31.8337372  -0.4724605
  62.2267069  32.0605330  -1.8567210  68.2847145  38.2463381   6.9574414
  68.3491577  38.7083788   7.7932586  67.5758068  37.6160745   7.0856724
  58.7864434  31.6104589   4.4823414  59.0372473  32.4951598   4.7480989
  59.3223983  31.4309190   3.7098505  64.4862502  25.9923068  13.4867750
  64.0929447  25.4389266  14.1615394  65.3028642  26.3033646  13.8774267
  61.4524560  37.4306926  -2.6018681  61.9649080  38.2250176  -2.4513116
  62.1047272  36.7333217  -2.6685079  67.4030463  27.4080947  11.0788006
  68.1440176  28.0088100  10.9992469  67.6348386  26.6658585  10.5206049
  62.5471801  32.5937314   9.3566236  62.4325316  31.6922571   9.6573335
  61.6916319  32.8401011   9.0051052  69.6263639  40.5355055  10.9553736
  69.1827493  39.7491433  10.6374641  70.2880852  40.7234205  10.2897627
  64.3850760  42.0650856   5.4814415  64.9358185  41.9367920   4.7091409
  63.5462236  42.3645745   5.1309308  71.7244877  40.8157854   8.9835138
  71.7063352  41.6366736   8.4915407  72.6464797  40.6911930   9.2085279
  68.1817931  38.3301984   9.8258646  68.7146268  37.5690272   9.5957954
  67.6532012  38.0375636  10.5682801  59.4173476  35.7595580  -1.8259110
  60.2548698  36.1692589  -2.0425402  59.5951744  34.8195023  -1.8558916
  59.4399647  33.0986296  -1.1548377  59.2424047  32.5055656  -1.8797310
  58.8846311  32.7938506  -0.4372438  67.4196371  32.9909402   0.9646217
  67.4744981  32.0383239   0.8888693  66.6087573  33.1468841   1.4487515
  70.9562943  32.0728286   7.5551489  71.3112330  32.2999760   8.4145955
  71.6035074  32.4046663   6.9328745  64.8502806  29.1804817   4.3397830
  65.4902185  29.0393577   3.6420794  64.0180336  28.8939331   3.9636432
  65.6263110  38.4807248   0.4532823  66.4203708  37.9857568   0.2515398
  64.9154802  37.9525111   0.0900528  70.4457954  40.8625343   4.8045191
  70.4994976  41.4316280   5.5722906  69.5772736  41.0327228   4.4399228
  61.8531422  29.1505142  -0.8829183  62.1138240  30.0650476  -0.9920022
  62.6748595  28.6829585  -0.7332570  63.3256348  30.5642900   6.2869642
  63.9979401  30.3560262   5.6382291  62.4986134  30.3664986   5.8474874
  69.2281920  27.1904841   8.3035303  68.5809835  27.8894790   8.2099779
  69.9982935  27.6240984   8.6711551  72.6360718  37.4553693  11.3785856
  72.4846224  37.2264244  10.4615940  72.6265397  38.4124294  11.3917201
  69.4046054  35.0285605   6.3632122  70.3338114  35.1796765   6.1901090
  68.9837084  35.1169626   5.5080769  68.2034386  39.0536270   4.1330660
  68.0645471  38.6855054   5.0056598  67.4148982  39.5683909   3.9614618
  69.7539601  38.4317873   1.5219498  69.4189433  38.3918643   2.4177148
  69.2543547  37.7662588   1.0489908  63.7283845  33.8385503   7.0472079
  63.5903643  33.1065741   7.6483618  64.6388768  33.7494403   6.7656267
  66.3566145  33.5505462   6.5355759  67.0665764  32.9098654   6.4942377
  66.3135454  33.8018357   7.4581939  74.3452924  40.4872815   9.4562338
  74.2865470  39.8032035   8.7892921  74.7472443  41.2291805   9.0042964
  65.0695079  30.5370680   8.3551398  64.5332436  30.0861418   9.0072994
  64.4811788  30.6716589   7.6121862  74.3470331  38.4512399   7.6876317
  73.4597110  38.1138321   7.8102716  74.9168883  37.7195430   7.9245083
  55.9999479  34.7836491   1.0119369  56.6870518  34.4698221   0.4240384
  55.8447607  35.6877856   0.7386620  60.8034201  29.6726687   5.4404393
  60.7192389  29.0652357   4.7054802  59.9816907  30.1635706   5.4413889
  67.8771485  43.1113852   4.6537561  67.8041656  43.9168823   5.1656865
  67.4348878  43.3105817   3.8285582  70.3370168  43.0100686   6.8095719
  71.0498141  43.6448150   6.7371621  69.8460197  43.1064552   5.9935721
  65.3882082  40.7595129   7.6301290  66.0891541  41.3931612   7.7830684
  64.9177197  41.1009861   6.8696929  69.2370941  34.0559548  11.9419878
  68.5611578  33.9553677  12.6122253  70.0598575  33.8998761  12.4055875
  60.9849800  40.2931484   4.5632393  61.5703237  39.5475172   4.6960297
  60.7874638  40.6035441   5.4469057  55.5767455  32.8637084   3.2836836
  55.6151554  32.3300675   4.0773954  55.0707748  32.3372290   2.6647813
  67.9793724  45.3626475   6.1777494  68.5312032  45.5258096   6.9426579
  68.3199917  45.9530913   5.5057518  62.9558217  27.7101625   6.7799378
  63.0199543  28.5716456   6.3676776  62.8925337  27.0975626   6.0471737
  62.4310490  29.7824757  10.4272413  63.0582528  29.4001835  11.0409937
  61.5738408  29.5638959  10.7928105  72.8304598  40.1887732  12.0326148
  73.3744502  40.8017691  11.5381103  72.2491443  40.7467311  12.5493161
  59.2076032  31.5901186  -3.6409233  59.5029473  30.6811865  -3.6942179
  58.3064068  31.5688926  -3.9628230  62.7370279  29.6657183   2.3418316
  62.0156865  30.2793151   2.2025789  63.5263535  30.2014948   2.2634962
  73.1797019  41.1117471   4.7920726  72.2327355  40.9922822   4.7199053
  73.5279793  40.2239969   4.8746987  65.5396593  27.0011610   8.6158968
  66.0630995  27.2473906   9.3785277  65.3208926  27.8331644   8.1962105
  66.7449138  27.9425305   6.3008638  66.4045958  27.1433118   6.7029318
  66.0388144  28.2427015   5.7285471  64.9204188  31.7193738   2.5627940
  64.7748769  32.0334041   3.4552221  64.4429392  32.3378638   2.0098839
  68.6326702  29.1433626   4.6561957  68.3744480  30.0650697   4.6546287
  68.1011742  28.7464060   5.3462421  59.3949851  34.2599082   5.5015601
  58.8503319  35.0358890   5.6335875  60.2729200  34.6069887   5.3434722
  60.1815872  33.3868978   8.3945758  59.4397608  33.5351614   8.9810388
  59.8608617  33.6477244   7.5312507  68.1259535  42.9284957   8.1926148
  68.4346662  42.6834103   9.0648848  68.9235017  43.1331595   7.7045018
  60.6272486  41.2734407   0.4256153  61.4530506  40.9738179   0.0454796
  60.2766538  40.5042029   0.8745941  65.5954019  40.6260875   2.4953826
  64.9734029  39.9631580   2.1956054  66.2658886  40.6522007   1.8127474
  58.8281091  39.1920734   1.3845086  57.9912999  38.7642908   1.2029087
  58.8004737  39.3853177   2.3215877  65.6678547  29.1042663  12.0886332
  65.7166702  29.9804786  11.7064102  66.2101061  28.5620056  11.5157975
  76.1533392  39.6483787  11.3687469  75.3628936  39.6307925  10.8291969
  75.9166747  40.1872080  12.1236506  76.2731267  36.4976253   8.6820198
  76.3229272  36.3326260   9.6235721  76.1645191  35.6303512   8.2918079
  73.5635030  32.4807181   9.9979505  74.4644893  32.3413646   9.7063502
  73.6383004  32.6461636  10.9377682  67.8977835  29.8574036   8.8432691
  67.0281145  30.1507602   8.5715279  68.1337316  30.4414481   9.5639954
  77.7749464  38.9173194   8.9262219  77.4834273  39.2803175   9.7625680
  77.1621596  38.2040203   8.7475551  62.9120159  35.2029976  -3.0226644
  62.6666201  34.2992306  -2.8246434  63.0816074  35.2047127  -3.9647166
  68.9248423  37.0591488  12.2440744  69.8451432  37.2370087  12.4380790
  68.8898006  36.1147533  12.0920443  58.1430588  32.2530082   1.1694018
  57.8233372  31.3995390   0.8768392  57.5964016  32.4678660   1.9251986
  61.9210495  34.9692523   4.8863525  62.1396505  35.9009630   4.9051559
  62.3336269  34.6100497   5.6718329  66.7938361  30.5425728  14.2766274
  66.6935088  31.4920085  14.2078365  66.5759903  30.2143967  13.4042344
  58.0118848  35.8732993   3.1387140  57.3182319  35.4586946   2.6257094
  58.7591839  35.9153530   2.5420559  66.6569631  33.9722867  13.0931335
  66.1736712  34.7723227  13.2995224  66.7430570  33.9830812  12.1398779
  59.9255590  35.8051247   1.0153155  59.9026278  35.9038934   0.0635038
  60.2356227  36.6516398   1.3370321  62.5842968  37.8627402   5.1299769
  63.5386222  37.8311344   5.0629701  62.3855492  37.4018026   5.9449995
  63.1742350  36.4328518   7.6970567  63.9935239  36.9272597   7.7205404
  63.4479158  35.5160486   7.6688134  60.9393197  43.4047021   2.1469967
  60.8047665  42.6447422   1.5807965  60.5225259  44.1287921   1.6798756
  64.0962323  44.3016338   2.3588410  63.9794707  45.2461771   2.2567100
  63.2754769  43.9989900   2.7474209  58.4277265  30.7666652   8.3962764
  59.0736128  30.2565606   8.8849989  58.2194416  31.5035333   8.9706189
  70.9530657  37.8347499  13.8954904  71.8221816  38.0088152  13.5341539
  70.4737408  38.6541916  13.7730634  65.1216837  44.9544600   5.5744338
  66.0244084  44.9868211   5.8910833  64.8954207  44.0245051   5.5890674
  62.7674756  27.9134269  12.4937778  63.6306217  27.5571074  12.7041103
  62.1940166  27.5748164  13.1813182  79.0567778  47.0569118  10.7609222
  78.2801112  47.6163038  10.7512086  79.6958341  47.5425901  11.2824092
  76.0475514  47.0194220  11.1242499  75.4174174  47.7010501  11.3577895
  75.9411601  46.9077301  10.1795637  75.3256256  41.3214986  13.4867750
  74.9323202  40.7681184  14.1615394  76.1422397  41.6325564  13.8774267
  78.2424217  42.7372865  11.0788006  78.9833931  43.3380018  10.9992469
  78.4742140  41.9950502  10.5206049  73.3865555  47.9229232   9.3566236
  73.2719070  47.0214489   9.6573335  72.5310073  48.1692929   9.0051052
  80.0675674  42.5196758   8.3035303  79.4203589  43.2186708   8.2099779
  80.8376689  42.9532902   8.6711551  75.9088834  45.8662597   8.3551398
  75.3726191  45.4153336   9.0072994  75.3205542  46.0008506   7.6121862
  71.6427955  45.0018605   5.4404393  71.5586144  44.3944275   4.7054802
  70.8210662  45.4927623   5.4413889  80.0764695  49.3851465  11.9419878
  79.4005332  49.2845595  12.6122253  80.8992329  49.2290679  12.4055875
  73.7951971  43.0393542   6.7799378  73.8593298  43.9008373   6.3676776
  73.7319092  42.4267544   6.0471737  73.2704244  45.1116675  10.4272413
  73.8976283  44.7293752  11.0409937  72.4132163  44.8930877  10.7928105
  76.3790347  42.3303527   8.6158968  76.9024749  42.5765824   9.3785277
  76.1602681  43.1623562   8.1962105  71.0209627  48.7160896   8.3945758
  70.2791363  48.8643531   8.9810388  70.7002371  48.9769162   7.5312507
  76.5072301  44.4334581  12.0886332  76.5560457  45.3096704  11.7064102
  77.0494815  43.8911974  11.5157975  78.7371590  45.1865953   8.8432691
  77.8674899  45.4799519   8.5715279  78.9731070  45.7706398   9.5639954
  77.6332115  45.8717646  14.2766274  77.5328842  46.8212003  14.2078365
  77.4153657  45.5435885  13.4042344  77.4963385  49.3014785  13.0931335
  77.0130467  50.1015145  13.2995224  77.5824324  49.3122730  12.1398779
  69.2671019  46.0958570   8.3962764  69.9129883  45.5857523   8.8849989
  69.0588170  46.8327251   8.9706189  73.6068510  43.2426187  12.4937778
  74.4699972  42.8862991  12.7041103  73.0333921  42.9040081  13.1813182
   6.7340248  65.7001925  54.2517445   5.9803956  65.1309323  54.0961450
   6.8687789  65.6664589  55.1988080   0.8104393  65.8530561  51.3619589
   0.6722292  66.0432157  50.4340778   0.4540612  66.6149944  51.8187640
   0.8373773  67.9207088  56.3730860   1.2710279  67.8282377  57.2213914
   1.5505354  67.8964589  55.7350876   1.6989322  67.9630789  58.9063746
   1.8925212  68.8676599  59.1523021   1.5989941  67.5038208  59.7402331
   2.9531386  64.5204455  55.5511649   2.9421262  65.4029171  55.1805583
   2.0848765  64.1676006  55.3566187   3.5555995  65.6704675  52.1561112
   3.9987142  64.9212000  51.7580236   2.6782506  65.6614811  51.7734844
   0.5883200  69.6734722  49.1655042   1.1134524  70.0121995  48.4404362
   0.5005552  68.7381737  48.9818176   3.0988860  67.1409913  54.5483560
   3.9335752  67.5799717  54.7121120   3.2347989  66.6648566  53.7291806
   1.3270113  64.7961528  57.8431653   1.2946433  63.8577528  58.0291337
   1.9370737  64.8745564  57.1097478   1.4764601  61.5872571  57.8889936
   0.9603650  60.8031028  57.7019865   2.3604550  61.2591288  58.0536456
   7.1446663  65.8577535  56.9837690   7.8750051  65.5962823  57.5445393
   6.5353608  65.1206257  57.0239758   5.2261960  63.9985397  57.5812141
   4.4995123  63.8641362  56.9728633   4.8109247  64.3062226  58.3868859
   2.8439755  60.2197249  54.9345573   3.4384246  59.9792985  54.2238881
   2.9166338  59.5004380  55.5619109   0.8398490  60.7867377  51.2017702
   0.5835424  60.3864013  52.0325910   0.2151358  61.5011171  51.0767841
   5.1510828  63.5263450  53.7088994   4.5910386  63.5956640  54.4820556
   4.5454331  63.3504435  52.9888490   9.2141962  71.5768225  58.8399745
   8.8825287  72.4463636  58.6160960   8.6187575  71.2604509  59.5193775
  10.9732272  74.4979750  57.6970969  10.3306652  74.7912283  57.0510763
  10.4687200  74.3832670  58.5024165   6.3125094  69.4237807  58.4571058
   5.9689363  70.3139448  58.3810169   6.6804056  69.2339464  57.5940643
   5.3921634  71.7942462  56.4220291   4.8886430  71.7572597  55.6088097
   5.6852241  72.7035204  56.4816948   1.5449507  70.9824648  51.5277909
   0.8913919  70.6673665  50.9034524   1.5029981  70.3600389  52.2537732
   8.1112759  68.6831366  53.5588796   8.4171636  67.8228729  53.2714711
   8.8365364  69.2748986  53.3587790   8.3814377  71.1125601  56.0572717
   7.4677457  71.3429828  56.2254924   8.8107479  71.1964045  56.9086749
   2.3603078  71.0150374  57.8554732   3.1829147  70.5410852  57.7333622
   2.6041141  71.7940857  58.3553418   4.0166126  71.2641333  54.1181890
   4.0387822  71.3280666  53.1633869   4.4334185  70.4245842  54.3122396
   5.5654337  72.0629409  59.4616882   6.0836281  72.7990436  59.1363370
   5.2109470  72.3693403  60.2963641   5.8166931  68.4829692  54.9817778
   6.0968685  67.8152881  55.6078205   6.6017538  68.6758787  54.4692442
   9.9769083  70.6605504  53.8485749   9.7793904  70.3520593  54.7329081
  10.5868788  71.3867143  53.9783679   3.8052181  71.4636365  49.9757984
   2.9952909  71.1183449  50.3513230   4.4936598  71.1543908  50.5645595
   5.7342729  70.5414411  51.5982280   6.2873768  70.9609865  52.2572303
   5.9712816  69.6150159  51.6405236   9.1121536  72.6514936  51.1060944
   8.5320206  73.3099741  50.7238997   8.8457469  71.8292281  50.6948362
   7.5625103  72.0519994  53.3082265   8.0624881  72.1636529  52.4996584
   8.2060711  71.7481047  53.9483073  13.6833509  75.5489167  54.9345573
  14.2778000  75.3084903  54.2238881  13.7560093  74.8296298  55.5619109
   5.7270462  67.6125230  51.5051367   4.9602858  67.0583716  51.6508050
   6.1381167  67.6847098  52.3665519   6.7340249  42.7064047  40.9762752
   5.9803957  42.1371445  40.8206756   6.8687790  42.6726712  41.9233387
   0.8104394  42.8592684  38.0864895   0.6722293  43.0494280  37.1586085
   0.4540613  43.6212067  38.5432947   0.8373774  44.9269211  43.0976167
   1.2710281  44.8344500  43.9459221   1.5505355  44.9026711  42.4596183
   1.6989324  44.9692911  45.6309052   1.8925214  45.8738722  45.8768327
   1.5989942  44.5100331  46.4647637   2.9531387  41.5266578  42.2756956
   2.9421263  42.4091293  41.9050889   2.0848766  41.1738129  42.0811493
   3.5555997  42.6766797  38.8806419   3.9987143  41.9274123  38.4825542
   2.6782507  42.6676934  38.4980151   0.5883201  46.6796844  35.8900348
   1.1134525  47.0184117  35.1649668   0.5005554  45.7443860  35.7063483
   0.3974982  44.1622214  48.5084275   0.4472987  43.9972222  49.4499798
   0.2888906  43.2949473  48.1182156   1.8993179  46.5819156  48.7526296
   1.6077987  46.9449137  49.5889757   1.2865310  45.8686164  48.5739628
   3.0988861  44.1472036  41.2728867   3.9335753  44.5861840  41.4366427
   3.2347990  43.6710689  40.4537112   1.3270114  41.8023650  44.5676960
   1.2946434  40.8639651  44.7536643   1.9370738  41.8807687  43.8342784
   1.4764603  38.5934694  44.6135243   0.9603651  37.8093150  44.4265172
   2.3604551  38.2653410  44.7781762   7.1446664  42.8639657  43.7082996
   7.8750052  42.6024945  44.2690700   6.5353609  42.1268379  43.7485064
   5.2261961  41.0047520  44.3057448   4.4995125  40.8703485  43.6973939
   4.8109248  41.3124348  45.1114166   2.8439756  37.2259372  41.6590879
   3.4384247  36.9855108  40.9484187   2.9166340  36.5066503  42.2864415
   0.8398491  37.7929500  37.9263009   0.5835425  37.3926135  38.7571217
   0.2151359  38.5073294  37.8013148   5.1510829  40.5325573  40.4334300
   4.5910387  40.6018762  41.2065862   4.5454332  40.3566557  39.7133797
   6.7366847  57.2082087  43.1264256   7.3745257  57.0888834  42.4227596
   6.6187690  58.1562931  43.1852208   3.5456554  57.1609515  43.0625781
   3.2075065  57.0450580  42.1746316   4.4146322  56.7600680  43.0426787
   4.0276337  58.3144367  49.0211986   4.0164977  57.9197165  48.1492490
   4.1896976  57.5810439  49.6145758   4.9842928  62.6815959  34.3637137
   4.3330908  63.2670039  33.9771150   5.7787291  63.2122154  34.4232174
   0.7483598  61.0981478  47.9691170   0.4573464  62.0027109  47.8537837
   1.3840582  61.1398006  48.6835240   1.6739805  58.4758327  44.5592530
   2.2703377  58.2514349  43.8449493   1.7314776  57.7343072  45.1617978
   1.2464833  55.9297762  32.3942721   1.4990354  55.4079284  31.6326184
   0.3089392  55.7663908  32.4969405   6.2908116  54.9333541  40.2017464
   7.0771205  54.5152964  39.8507881   6.5546820  55.8379633  40.3699113
   6.4618193  60.3706391  34.9006121   5.8264026  60.4441017  35.6127026
   6.1315600  60.9599990  34.2225200  11.6916543  54.8708774  41.1050443
  12.4241715  54.3007991  41.3388272  10.9355899  54.4830374  41.5456948
   0.9661122  57.8325868  34.5967096   0.8497380  57.1570772  35.2648180
   1.0763382  57.3458242  33.7799249   3.3092663  57.2936015  38.3013785
   2.9450870  56.7666636  39.0126707   4.1659778  56.9034484  38.1280271
   9.2141963  48.5830348  45.5645051   8.8825288  49.4525759  45.3406266
   8.6187577  48.2666632  46.2439082   2.9498150  52.3225915  33.2975134
   3.1172552  53.1906151  33.6645605   2.7595319  52.4853197  32.3736423
   5.7073483  60.7842894  44.9640964   5.4074206  61.6867933  44.8556771
   5.3624542  60.5175077  45.8162117   9.1070627  53.3025434  42.6438401
   8.1987504  53.2340843  42.3497162   9.0558222  53.7797379  43.4720227
   2.9287370  54.7783573  34.2821800   2.8086996  55.2240623  35.1207281
   2.2339959  55.1268890  33.7235339   3.1811492  54.7215080  50.5873299
   2.4044826  55.2809000  50.5776163   3.8202055  55.2071863  51.1088169
   8.6272437  55.2505046  35.1102134   9.5390293  55.4832432  34.9349832
   8.1182084  55.8342090  34.5477213   1.4357865  57.5300533  50.1491266
   2.1772549  58.0685577  49.8726089   0.7294850  58.1566822  50.3062817
   6.9113204  59.6729674  48.7463427   7.3196560  59.2312084  48.0018059
   6.1890466  59.0982301  48.9997620   3.2644274  54.6102280  46.1196984
   4.1105470  55.0341694  46.2631633   3.2042912  53.9535905  46.8135547
   7.2342019  60.2330864  42.5015716   6.6050881  60.3976578  41.7991784
   6.8467681  60.6472474  43.2726680  11.1131251  61.1685302  39.8560080
  10.4282289  61.5484203  39.3057113  11.1975100  61.7780629  40.5892027
   6.4143720  52.2706649  47.7778158   6.1704652  53.0248709  47.2412433
   6.6903650  52.6491996  48.6125405   8.3682182  58.8145261  46.4555423
   8.5799078  59.4577021  45.7789804   8.3211931  57.9807578  45.9877353
   5.9708411  51.4263082  43.3591995   5.1092890  51.7244335  43.6508733
   5.9970846  51.6433481  42.4273028   2.7869981  59.9705272  39.7665801
   3.2508326  60.2492975  38.9770424   2.5226779  59.0688717  39.5838892
   1.7238867  56.0928425  36.5755366   2.4262910  56.5449468  37.0429293
   1.3919495  55.4512243  37.2035259   9.4828010  61.6917216  44.6277781
  10.3045454  61.2897404  44.3460462   9.4790413  61.5885451  45.5793896
   3.2484614  61.2401260  46.7838491   3.3129046  61.7021667  47.6196663
   2.5395538  60.6098625  46.9120801  17.5734003  58.0355965  40.9762752
  16.8197712  57.4663363  40.8206756  17.7081545  58.0018629  41.9233387
   2.9632631  62.9069367  36.6517471   2.8278306  63.7520903  37.0802319
   3.5042444  63.1088645  35.8883405   2.3667932  50.4018826  50.9052083
   3.1077645  51.0025979  50.8256546   2.5985855  49.6596464  50.3470126
   4.5901108  63.5292934  50.7817813   4.1464962  62.7429312  50.4638718
   5.2518321  63.7172084  50.1161704   6.6882346  63.8095734  48.8099215
   6.6700821  64.6304615  48.3179484   7.6102266  63.6849809  49.0349356
   3.1455400  61.3239863  49.6522723   3.6783737  60.5628151  49.4222031
   2.6169481  61.0313515  50.3946878   6.3125095  46.4299929  45.1816365
   5.9689364  47.3201571  45.1055475   6.6804058  46.2401587  44.3185950
   6.2775378  56.4208540  33.6888800   5.7622001  57.1913145  33.9277187
   6.0052686  55.7473676  34.3121861   3.8622489  51.2658241  38.7474038
   3.0064085  50.8765091  38.5679677   4.2749441  51.3450202  37.8873824
   5.3921635  48.8004584  43.1465598   4.8886431  48.7634719  42.3333403
   5.6852242  49.7097327  43.2062255   1.6364521  48.8843314  42.1531780
   2.5017518  48.6886123  41.7937669   1.7042030  48.6553666  43.0801137
  11.2509652  59.1740895  35.6241973  10.4739095  58.8352054  35.1797136
  11.9301133  59.1793518  34.9496939   6.0661681  54.2935632  35.5148581
   5.7611816  54.6081781  36.3658724   7.0192123  54.3717052  35.5575914
   4.5108113  60.4525856  37.1641535   3.9829474  59.7178615  36.8514773
   4.0095615  61.2300532  36.9181503   9.4900959  58.6474876  42.2808581
   8.8324633  59.3374138  42.3688710  10.2941358  59.0371308  42.6242568
   8.3006418  57.0019249  40.3312523   8.8138299  57.6349241  40.8334233
   8.9507641  56.4020444  39.9655883   1.5449508  47.9886771  38.2523216
   0.8913920  47.6735788  37.6279831   1.5029982  47.3662511  38.9783039
   2.6560713  58.2706066  30.1676508   1.7487775  58.0395319  30.3667657
   3.1531745  57.4743685  30.3550490   5.5628792  66.9803573  33.0873194
   4.8890491  67.2835270  33.6958152   5.9494614  67.7832653  32.7378651
   4.7787248  54.4768704  42.5770864   3.8609810  54.6983651  42.4192552
   5.1947392  54.5515015  41.7182571   5.5622296  55.8760120  37.7073544
   6.3094115  56.3881517  37.3980666   5.8313886  55.5544173  38.5677938
   3.8348946  58.3718661  34.6900498   2.9260166  58.0877694  34.7872968
   3.8644030  58.7917739  33.8303805   9.0668214  61.9825250  38.4591666
   8.6130541  61.1416160  38.5156856   8.4362181  62.6186649  38.7966446
   8.0101133  52.9117236  39.6892333   7.2723890  52.3994622  40.0202576
   8.2627907  52.4717618  38.8775610   7.5101153  63.8201747  39.3941484
   7.8024127  64.3806804  38.6753850   8.0199774  64.1130308  40.1494643
   8.1112761  45.6893488  40.2834103   8.4171637  44.8290852  39.9960018
   8.8365365  46.2811108  40.0833096   2.3833840  55.9847281  40.7910294
   2.4382450  55.0321118  40.7152770   1.5725042  56.1406720  41.2751592
   3.5325034  59.9127404  32.0288577   3.0944464  59.1963263  31.5694214
   4.2735475  60.1403519  31.4673668   2.4734778  64.5982098  40.4834937
   2.4310957  64.8242944  39.5543469   3.3897477  64.3645473  40.6320738
   5.9200412  55.0666166  47.3815566   6.2749800  55.2937639  48.2410032
   6.5672543  55.3984542  46.7592822  11.6498149  58.1884601  38.0864895
  11.5116048  58.3786197  37.1586085  11.2934368  58.9503984  38.5432947
  11.6767529  60.2561128  43.0976167  12.1104035  60.1636418  43.9459221
  12.3899109  60.2318629  42.4596183   5.4095423  63.8563223  44.6309268
   5.4632446  64.4254159  45.3986983   4.5410205  64.0265108  44.2663305
  12.5383078  60.2984829  45.6309052  12.7318968  61.2030640  45.8768327
  12.4383696  59.8392248  46.4647637   4.1919389  50.1842720  48.1299380
   3.5447304  50.8832669  48.0363856   4.9620404  50.6178864  48.4975628
   7.5998187  60.4491572  51.2049933   7.4483693  60.2202124  50.2880017
   7.5902866  61.4062173  51.2181278   4.3683523  58.0223485  46.1896199
   5.2975583  58.1734644  46.0165167   3.9474553  58.1107505  45.3344846
   3.1671855  62.0474149  43.9594737   3.0282941  61.6792933  44.8320675
   2.3786451  62.5621788  43.7878695   3.7620007  67.1483245  35.3020274
   3.9371763  66.6771289  36.1165896   3.0752795  67.7749012  35.5301534
   4.7177070  61.4255752  41.3483575   4.3826903  61.3856522  42.2441225
   4.2181016  60.7600468  40.8753985   7.6536262  58.7711786  31.6220634
   7.0365432  58.0458614  31.5253687   7.1852750  59.5321146  31.2787709
   1.3203615  56.5443341  46.3619836   2.0303233  55.9036533  46.3206454
   1.2772923  56.7956236  47.2846016   9.3090393  63.4810694  49.2826415
   9.2502940  62.7969915  48.6156998   9.7109912  64.2229684  48.8307041
   9.3107801  61.4450278  47.5140394   8.4234579  61.1076200  47.6366793
   9.8806352  60.7133310  47.7509160   2.8408954  66.1051731  44.4801638
   2.7679126  66.9106702  44.9920942   2.3986347  66.3043697  43.6549659
   2.6298734  65.3423501  37.9904459   1.8466256  65.8845181  38.0842684
   3.3291479  65.8597480  38.3898700   5.9395384  51.1518130  40.6338665
   6.4364083  50.3988093  40.3139735   5.1682365  51.1882447  40.0681874
  13.7925141  56.8558496  42.2756956  13.7815018  57.7383211  41.9050889
  12.9242521  56.5030047  42.0811493   5.3007638  66.0038565  46.6359796
   6.0135610  66.6386030  46.5635698   4.8097666  66.1002431  45.8199798
   7.0225165  59.9089817  38.2077088   6.0881443  60.0291280  38.0381792
   7.2001833  59.0062284  37.9437098   2.5230353  53.2935513  40.3610349
   2.1528140  52.7406554  41.0491255   3.0189445  52.6893647  39.8085349
  10.4097716  55.7507137  38.7427122  10.8758168  56.5835128  38.6687425
  10.8605216  55.2852118  39.4472381   8.4773947  62.0950958  35.7413274
   8.7533791  61.9807553  36.6507148   7.6078446  61.6968443  35.7025447
   8.3814379  48.1187724  42.7818023   7.4677458  48.3491951  42.9500230
   8.8107480  48.2026168  43.6332056   8.1520837  56.3077616  45.2817917
   7.4992287  56.5553523  44.6270370   8.5301217  55.4941754  44.9480395
   5.1128011  66.3437309  39.3846088   5.2950406  65.5258965  39.8473840
   5.9360997  66.5605001  38.9470978   5.4470177  65.2705494  36.6461136
   5.9757943  64.7597949  36.0331298   5.7098396  64.9548024  37.5106669
   4.2008410  57.0497427  51.7683955   3.5249047  56.9491556  52.4386330
   5.0236044  56.8936640  52.2319952   2.9431193  68.3564354  46.0041571
   3.4949501  68.5195976  46.7690656   3.2837387  68.9468792  45.3321595
   7.7942067  63.1825612  51.8590225   8.3381971  63.7955570  51.3645180
   7.2128912  63.7405190  52.3757238   6.0799580  66.3046330  42.9905253
   5.9550720  65.5036070  42.4816198   6.7378671  66.7992523  42.5019223
   8.1434489  64.1055350  44.6184803   7.1964824  63.9860701  44.5463130
   8.4917262  63.2177848  44.7011064   0.5034062  49.9949489  48.4423045
   1.0268464  50.2411785  49.2049354   0.2846395  50.8269523  48.0226182
   5.1480922  63.9008066  40.8189155   5.0005884  62.9724773  40.9996725
   5.9734416  63.9228157  40.3346230   8.7515044  64.7236625  41.9054028
   9.6761591  64.5179486  41.7678479   8.5830347  64.4753026  42.8143369
   1.7086607  50.9363184  46.1272715   1.3683427  50.1370997  46.5293395
   1.0025613  51.2364895  45.5549548   2.3603079  48.0212496  44.5800038
   3.1829148  47.5472974  44.4578929   2.6041142  48.8002980  45.0798725
   1.0011313  51.0500755  34.8762940   1.7219676  51.4282007  34.3726657
   0.3776618  51.7689631  34.9797918   5.1442436  51.7545904  35.8121272
   5.3606051  52.6370542  35.5110100   4.6636503  51.3632117  35.0826914
   1.7438041  51.7034165  42.4372906   1.7299609  50.8075258  42.1005204
   2.4610469  51.7104829  43.0711192   3.5964171  52.1371505  44.4826034
   3.3381949  53.0588576  44.4810364   3.0649212  51.7401940  45.1726498
   8.5410360  65.2422292  37.2616119   8.7147238  64.6768715  36.5089972
   9.0339251  66.0423187  37.0795609   1.1474937  50.5848545  37.7060477
   1.2690848  49.6565191  37.9051364   0.8576979  50.5987231  36.7938792
   4.0166127  48.2703456  40.8427196   4.0387824  48.3342789  39.8879176
   4.4334186  47.4307964  41.0367703  14.3949751  58.0058715  38.8806419
  14.8380897  57.2566040  38.4825542  13.5176262  57.9968851  38.4980151
   9.5285533  64.5589057  34.3613018  10.2236437  65.1795749  34.5800332
   9.8708683  63.7084408  34.6365395  11.4276956  62.0088762  35.8900348
  11.9528280  62.3476035  35.1649668  11.3399308  61.0735777  35.7063483
   3.0897004  65.9222836  48.0190225   3.3984131  65.6771983  48.8912925
   3.8872486  66.1269474  47.5309095   3.1117616  68.0760745  40.2495601
   2.6722607  67.5837124  40.9428458   3.8625733  67.5333713  40.0087677
   0.6316016  52.0980542  51.9150409   0.6804172  52.9742665  51.5328179
   1.1738530  51.5557936  51.3422052  11.1170862  62.6421666  51.1951546
  10.3266405  62.6245805  50.6556046  10.8804216  63.1809959  51.9500583
  11.2368737  59.4914132  48.5084275  11.2866742  59.3264140  49.4499798
  11.1282660  58.6241391  48.1182156   8.5272499  55.4745060  49.8243582
   9.4282362  55.3351525  49.5327579   8.6020474  55.6399515  50.7641759
   2.8615304  52.8511915  48.6696768   1.9918614  53.1445481  48.3979356
   3.0974785  53.4352360  49.3904031  12.7386934  61.9111074  48.7526296
  12.4471742  62.2741054  49.5889757  12.1259065  61.1978082  48.5739628
  13.9382616  59.4763953  41.2728867  14.7729507  59.9153757  41.4366427
  14.0741745  59.0002607  40.4537112  10.9874122  57.0343688  47.2206354
  11.4628243  57.2271335  46.4125206  10.0639687  57.0902874  46.9749738
   5.5654338  49.0691532  46.1862188   6.0836282  49.8052559  45.8608677
   5.2109471  49.3755525  47.0208947   5.8166932  45.4891814  41.7063085
   6.0968686  44.8215003  42.3323511   6.6017539  45.6820910  41.1937749
   3.6200401  64.6650808  33.2688111   3.0474368  65.2840995  32.8158583
   4.1933195  65.2150170  33.8028033   9.6875791  53.9109448  45.4534660
  10.6393214  54.0107546  45.4746884   9.5179241  53.1187717  45.9632744
   7.7090170  50.9965032  45.6394061   7.1140102  51.2770044  44.9440549
   7.4239867  51.4858932  46.4110802   6.8397661  64.9487958  34.3996693
   7.7728334  64.8833520  34.6029569   6.7520874  65.7844225  33.9411226
   9.4685677  64.2653829  31.3600641   9.3899309  63.9313692  32.2536399
  10.2895344  64.7575597  31.3592113  12.1663869  57.1315568  44.5676960
  12.1340189  56.1931569  44.7536643  12.7764492  57.2099605  43.8342784
   4.0047199  56.0011621  30.6104164   4.9506304  55.8717829  30.6792582
   3.6261444  55.2626283  31.0873592  12.3158357  53.9226611  44.6135243
  11.7997406  53.1385068  44.4265172  13.1998306  53.5945328  44.7781762
   9.9769084  47.6667627  40.5731055   9.7793905  47.3582715  41.4574387
  10.5868790  48.3929266  40.7028985  17.9840418  58.1931575  43.7082996
  18.7143807  57.9316863  44.2690700  17.3747364  57.4560297  43.7485064
  16.0655716  56.3339437  44.3057448  15.3388879  56.1995402  43.6973939
  15.6503002  56.6416266  45.1114166   3.8885892  60.0529367  52.0704821
   4.8088901  60.2307966  52.2644867   3.8535475  59.1085412  51.9184520
   2.1890117  53.9261597  30.5459049   1.2821572  53.6294710  30.6221762
   2.4666098  53.6291415  29.6793335   3.8052182  48.4698487  36.7003290
   2.9952911  48.1245572  37.0758536   4.4936599  48.1606031  37.2890902
   5.7342731  47.5476534  38.3227587   6.2873769  47.9671987  38.9817610
   5.9712817  46.6212282  38.3650543   1.7575830  53.5363608  54.1030351
   1.6572557  54.4857965  54.0342442   1.5397372  53.2081846  53.2306421
   0.9588901  50.7848533  30.6871028   1.8208065  51.1103431  30.9466845
   1.1439245  49.9980029  30.1744094   9.1121538  49.6577059  37.8306251
   8.5320207  50.3161863  37.4484303   8.8457470  48.8354404  37.4193669
   7.5625104  49.0582117  40.0327571   8.0624882  49.1698651  39.2241890
   8.2060712  48.7543170  40.6728380   1.6207100  56.9660746  52.9195412
   1.1374182  57.7661107  53.1259301   1.7068039  56.9768691  51.9662856
   7.8946416  51.8177149  36.8862599   7.0072271  52.1026800  36.6682794
   8.3100405  51.6570913  36.0389876  11.2460952  51.8423670  40.6016939
  12.0221342  52.3320123  40.8741555  10.5209086  52.2681725  41.0588808
  13.6833511  52.5551290  41.6590879  14.2778001  52.3147026  40.9484187
  13.7560094  51.8358420  42.2864415   7.0389629  61.5821824  30.9810619
   7.7425479  61.7871827  31.5968275   6.3152278  62.1498586  31.2459703
   7.8687440  57.3331685  37.1012889   7.8122641  57.7900237  36.2620522
   8.4215782  56.5722370  36.9235732  11.6792245  53.1221417  37.9263009
  11.4229180  52.7218053  38.7571217  11.0545113  53.8365211  37.8013148
  15.9904583  55.8617491  40.4334300  15.4304141  55.9310680  41.2065862
  15.3848087  55.6858475  39.7133797   8.9476327  62.0204353  33.0309079
   9.7821931  61.5885552  32.8486554   8.7860670  61.8486367  33.9585974
   8.6022219  58.5236467  34.3965419   8.5471023  58.3580738  33.4553863
   7.9768274  59.2312500  34.5527608   5.9168126  60.8285378  53.7218981
   6.7859286  61.0026031  53.3605616   5.4374877  61.6479795  53.5994711
   1.9118344  48.0244576  33.9750737   1.8997014  48.9686416  34.1319008
   2.8041766  47.8414721  33.6810198   1.8407908  66.7013466  42.0618494
   0.8903539  66.7015328  41.9482866   2.1440394  65.9546201  41.5454528
   5.7270464  44.6187352  38.2296674   4.9602860  44.0645839  38.3753356
   6.1381169  44.6909221  39.0910825  17.5760602  72.5374004  43.1264256
  18.2139012  72.4180752  42.4227596  17.4581445  73.4854848  43.1852208
  14.3850308  72.4901433  43.0625781  14.0468820  72.3742497  42.1746316
  15.2540076  72.0892598  43.0426787  10.2437124  74.3436909  39.0522672
   9.6801989  74.2526846  38.2838959  10.1289519  73.5236813  39.5325164
  14.8670091  73.6436284  49.0211986  14.8558732  73.2489083  48.1492490
  15.0290730  72.9102357  49.6145758  12.5133559  73.8050245  44.5592530
  13.1097131  73.5806267  43.8449493  12.5708531  73.0634990  45.1617978
  12.0858587  71.2589680  32.3942721  12.3384108  70.7371201  31.6326184
  11.1483146  71.0955825  32.4969405  17.1301870  70.2625458  40.2017464
  17.9164959  69.8444881  39.8507881  17.3940575  71.1671550  40.3699113
  17.3011948  75.6998309  34.9006121  16.6657781  75.7732935  35.6127026
  16.9709354  76.2891907  34.2225200  22.5310297  70.2000691  41.1050443
  23.2635469  69.6299908  41.3388272  21.7749653  69.8122292  41.5456948
  11.8054876  73.1617786  34.5967096  11.6891134  72.4862689  35.2648180
  11.9157136  72.6750160  33.7799249  14.1486417  72.6227933  38.3013785
  13.7844624  72.0958554  39.0126707  15.0053533  72.2326402  38.1280271
  20.0535718  63.9122266  45.5645051  19.7219042  64.7817677  45.3406266
  19.4581331  63.5958550  46.2439082  13.7891904  67.6517833  33.2975134
  13.9566306  68.5198069  33.6645605  13.5989073  67.8145114  32.3736423
  16.5467237  76.1134812  44.9640964  16.2467960  77.0159850  44.8556771
  16.2018297  75.8466995  45.8162117   9.9979719  72.5648608  40.9977668
   9.0730215  72.4324823  41.2055360  10.2464132  73.3442828  41.4947611
  19.9464381  68.6317352  42.6438401  19.0381258  68.5632760  42.3497162
  19.8951977  69.1089297  43.4720227  13.7681125  70.1075490  34.2821800
  13.6480750  70.5532541  35.1207281  13.0733713  70.4560808  33.7235339
   7.3588530  72.2081882  41.8321457   7.4880911  72.4616361  42.7460869
   6.6785981  72.8009590  41.5126113  14.0205247  70.0506997  50.5873299
  13.2438581  70.6100918  50.5776163  14.6595810  70.5363780  51.1088169
  21.8126027  66.8333790  44.4216275  21.1700408  67.1266323  43.7756070
  21.3080956  66.7186711  45.2269472  19.4666191  70.5796963  35.1102134
  20.3784047  70.8124350  34.9349832  18.9575838  71.1634008  34.5477213
  12.2751619  72.8592451  50.1491266  13.0166303  73.3977495  49.8726089
  11.5688605  73.4858739  50.3062817  17.7506959  75.0021591  48.7463427
  18.1590315  74.5604002  48.0018059  17.0284220  74.4274219  48.9997620
  14.1038029  69.9394198  46.1196984  14.9499224  70.3633612  46.2631633
  14.0436666  69.2827822  46.8135547  18.0735773  75.5622782  42.5015716
  17.4444636  75.7268496  41.7991784  17.6861435  75.9764391  43.2726680
  21.9525005  76.4977220  39.8560080  21.2676043  76.8776121  39.3057113
  22.0368855  77.1072546  40.5892027  17.2537474  67.5998566  47.7778158
  17.0098406  68.3540627  47.2412433  17.5297405  67.9783914  48.6125405
  19.2075937  74.1437179  46.4555423  19.4192832  74.7868939  45.7789804
  19.1605685  73.3099495  45.9877353  16.8102166  66.7554999  43.3591995
  15.9486645  67.0536253  43.6508733  16.8364601  66.9725398  42.4273028
  13.6263735  75.2997190  39.7665801  14.0902081  75.5784893  38.9770424
  13.3620533  74.3980634  39.5838892  12.5632621  71.4220342  36.5755366
  13.2656665  71.8741386  37.0429293  12.2313250  70.7804161  37.2035259
  11.0112983  70.0132099  50.9506576  10.3811643  70.6948380  51.1841972
  10.9049071  69.9015181  50.0059714   6.3057955  69.6803895  41.8772500
   5.5157009  69.9361423  41.4012610   6.7969203  70.4952233  41.9824540
  20.3221765  77.0209134  44.6277781  21.1439209  76.6189321  44.3460462
  20.3184168  76.9177368  45.5793896   8.2572701  70.0448474  38.8355976
   7.4603864  70.1567168  39.3539472   8.0298293  70.3835126  37.9696867
   4.5895658  69.9334385  44.3087491   4.8403697  70.8181395  44.5745066
   5.1255207  69.7538987  43.5362582  28.4127758  73.3647883  40.9762752
  27.6591466  72.7955281  40.8206756  28.5475299  73.3310547  41.9233387
  10.2893726  64.3152865  53.3131827   9.8960671  63.7619063  53.9879471
  11.1059866  64.6263443  53.7038344  13.2061687  65.7310744  50.9052083
  13.9471400  66.3317897  50.8256546  13.4379609  64.9888382  50.3470126
   8.3503025  70.9167111  49.1830313   8.2356540  70.0152368  49.4837412
   7.4947542  71.1630808  48.8315129  17.1518850  61.7591847  45.1816365
  16.8083119  62.6493488  45.1055475  17.5197812  61.5693504  44.3185950
  17.1169132  71.7500458  33.6888800  16.6015756  72.5205063  33.9277187
  16.8446441  71.0765594  34.3121861  14.7016243  66.5950159  38.7474038
  13.8457840  66.2057009  38.5679677  15.1143195  66.6742119  37.8873824
  16.2315390  64.1296502  43.1465598  15.7280185  64.0926637  42.3333403
  16.5245997  65.0389245  43.2062255  12.4758276  64.2135232  42.1531780
  13.3411273  64.0178040  41.7937669  12.5435785  63.9845583  43.0801137
  22.0903406  74.5032813  35.6241973  21.3132849  74.1643972  35.1797136
  22.7694887  74.5085436  34.9496939  16.9055435  69.6227550  35.5148581
  16.6005571  69.9373699  36.3658724  17.8585878  69.7008970  35.5575914
  20.3294713  73.9766794  42.2808581  19.6718388  74.6666055  42.3688710
  21.1335112  74.3663226  42.6242568  10.0820595  66.4437440  39.5248147
  10.6564347  66.2212621  38.7921340  10.6691577  66.5126134  40.2776748
  19.1400172  72.3311166  40.3312523  19.6532054  72.9641158  40.8334233
  19.7901396  71.7312362  39.9655883  10.4090182  68.4741901  33.5444032
   9.5727494  68.8116587  33.8653307  10.2694952  68.3390880  32.6071169
  12.3843263  63.3178688  38.2523216  11.7307675  63.0027706  37.6279831
  12.3423737  62.6954429  38.9783039  13.4954467  73.5997984  30.1676508
  12.5881529  73.3687237  30.3667657  13.9925499  72.8035603  30.3550490
  15.6181003  69.8060622  42.5770864  14.7003564  70.0275569  42.4192552
  16.0341147  69.8806932  41.7182571  16.4016051  71.2052038  37.7073544
  17.1487870  71.7173435  37.3980666  16.6707640  70.8836090  38.5677938
  14.6742701  73.7010578  34.6900498  13.7653920  73.4169611  34.7872968
  14.7037785  74.1209657  33.8303805  19.9061968  77.3117168  38.4591666
  19.4524295  76.4708078  38.5156856  19.2755935  77.9478566  38.7966446
  18.8494888  68.2409154  39.6892333  18.1117645  67.7286540  40.0202576
  19.1021661  67.8009536  38.8775610  18.9506515  61.0185406  40.2834103
  19.2565392  60.1582769  39.9960018  19.6759120  61.6103026  40.0833096
   5.2430871  71.4216093  38.6715700   5.0455271  70.8285453  37.9466767
   4.6877535  71.1168303  39.3891639  13.2227595  71.3139199  40.7910294
  13.2776205  70.3613035  40.7152770  12.4118797  71.4698638  41.2751592
  14.3718789  75.2419322  32.0288577  13.9338219  74.5255181  31.5694214
  15.1129230  75.4695437  31.4673668  11.1619955  69.9316259  38.5500672
  10.3487820  70.2310429  38.9565865  11.6578949  69.5371948  39.2675155
  16.7594167  70.3958083  47.3815566  17.1143554  70.6229556  48.2410032
  17.4066298  70.7276460  46.7592822  22.4891903  73.5176519  38.0864895
  22.3509802  73.7078115  37.1586085  22.1328122  74.2795902  38.5432947
  10.6534030  67.5034614  44.1661907  11.2933409  67.3623373  43.4684871
   9.8211560  67.2169128  43.7900509  22.5161283  75.5853046  43.0976167
  22.9497790  75.4928335  43.9459221  23.2292864  75.5610547  42.4596183
   7.7377097  70.9480126  36.3556653   6.8074685  70.8864582  36.5726615
   7.8334569  70.4256079  35.5593294   7.6562646  67.4734939  38.9434894
   7.9169463  68.3880273  38.8344055   8.4779818  67.0059382  39.0931507
   9.1287571  68.8872696  46.1133719   9.8010625  68.6790059  45.4646368
   8.3017358  68.6894782  45.6738951  23.3776833  75.6276747  45.6309052
  23.5712723  76.5322557  45.8768327  23.2777451  75.1684166  46.4647637
  15.0313143  65.5134637  48.1299380  14.3841058  66.2124587  48.0363856
  15.8014159  65.9470781  48.4975628  18.4391941  75.7783490  51.2049933
  18.2877448  75.5494041  50.2880017  18.4296621  76.7354091  51.2181278
  15.2077278  73.3515402  46.1896199  16.1369338  73.5026562  46.0165167
  14.7868308  73.4399423  45.3344846   9.5315069  72.1615299  46.8736156
   9.3934867  71.4295538  47.4747695  10.4419992  72.0724200  46.5920344
  18.4930016  74.1003704  31.6220634  17.8759187  73.3750532  31.5253687
  18.0246505  74.8613064  31.2787709  12.1597369  71.8735259  46.3619836
  12.8696988  71.2328451  46.3206454  12.1166677  72.1248154  47.2846016
  10.8726303  68.8600477  48.1815475  10.3363660  68.4091215  48.8337071
  10.2843012  68.9946385  47.4385939  10.2828562  68.3189128  30.7441939
   9.4058029  68.1977929  30.3804185  10.7586315  67.5275206  30.4920827
  20.1501555  76.7742196  47.5140394  19.2628334  76.4368118  47.6366793
  20.7200106  76.0425227  47.7509160   6.6065424  67.9956484  45.2668470
   6.5223613  67.3882154  44.5318879   5.7848131  68.4865503  45.2677966
  16.7789138  66.4810048  40.6338665  17.2757838  65.7280010  40.3139735
  16.0076120  66.5174365  40.0681874  24.6318896  72.1850413  42.2756956
  24.6208772  73.0675129  41.9050889  23.7636275  71.8321964  42.0811493
  17.8618919  75.2381735  38.2077088  16.9275198  75.3583198  38.0381792
  18.0395588  74.3354202  37.9437098  13.3624107  68.6227431  40.3610349
  12.9921895  68.0698471  41.0491255  13.8583200  68.0185564  39.8085349
  21.2491470  71.0799054  38.7427122  21.7151923  71.9127046  38.6687425
  21.6998971  70.6144036  39.4472381  19.3167702  77.4242876  35.7413274
  19.5927545  77.3099470  36.6507148  18.4472200  77.0260361  35.7025447
  19.2208133  63.4479641  42.7818023  18.3071213  63.6783868  42.9500230
  19.6501235  63.5318085  43.6332056  18.9914592  71.6369533  45.2817917
  18.3386042  71.8845441  44.6270370  19.3694972  70.8233672  44.9480395
  15.0402165  72.3789344  51.7683955  14.3642802  72.2783474  52.4386330
  15.8629799  72.2228558  52.2319952   1.3798678  71.1866881  43.1100913
   1.4182778  70.6530472  43.9038031   0.8738971  70.6602087  42.4911890
   8.7589441  66.0331422  46.6063455   8.8230767  66.8946253  46.1940853
   8.6956561  65.4205423  45.8735814   8.2341713  68.1054554  50.2536490
   8.8613752  67.7231631  50.8674014   7.3769632  67.8868756  50.6192182
   5.0107256  69.9130983  36.1854844   5.3060697  69.0041662  36.1321898
   4.1095292  69.8918723  35.8635847   8.5401503  67.9886980  42.1682393
   7.8188089  68.6022948  42.0289866   9.3294759  68.5244745  42.0899039
  11.3427817  65.3241406  48.4423045  11.8662218  65.5703703  49.2049354
  11.1240150  66.1561441  48.0226182   6.7395098  67.5945081  36.3094170
   6.4107804  66.7142460  36.1269275   7.0934468  67.5392750  37.1970559
   9.8536921  67.8818051  36.6769647  10.1932993  68.4103972  35.9548256
  10.3009041  68.2198457  37.4528214  12.5480362  66.2655101  46.1272715
  12.2077182  65.4662915  46.5293395  11.8419368  66.5656812  45.5549548
  13.1996833  63.3504414  44.5800038  14.0222903  62.8764892  44.4578929
  13.4434897  64.1294898  45.0798725  11.8405068  66.3792672  34.8762940
  12.5613430  66.7573925  34.3726657  11.2170372  67.0981549  34.9797918
  15.9836191  67.0837821  35.8121272  16.1999805  67.9662459  35.5110100
  15.5030258  66.6924035  35.0826914  10.7235412  70.0423535  42.3892017
  10.5779993  70.3563838  43.2816298  10.2460616  70.6608435  41.8362916
  12.5831795  67.0326083  42.4372906  12.5693364  66.1367176  42.1005204
  13.3004223  67.0396746  43.0711192  14.4357926  67.4663423  44.4826034
  14.1775704  68.3880493  44.4810364  13.9042966  67.0693857  45.1726498
  11.9868691  65.9140463  37.7060477  12.1084602  64.9857109  37.9051364
  11.6970733  65.9279149  36.7938792  14.8559881  63.5995373  40.8427196
  14.8781578  63.6634706  39.8879176  15.2727940  62.7599882  41.0367703
  25.2343506  73.3350633  38.8806419  25.6774652  72.5857958  38.4825542
  24.3570016  73.3260769  38.4980151   5.9847096  71.7098775  48.2209835
   5.2428832  71.8581411  48.8074465   5.6639840  71.9707041  47.3576584
  22.2670710  77.3380680  35.8900348  22.7922034  77.6767953  35.1649668
  22.1793063  76.4027695  35.7063483  11.4709771  67.4272460  51.9150409
  11.5197926  68.3034583  51.5328179  12.0132285  66.8849853  51.3422052
  21.9564616  77.9713583  51.1951546  21.1660160  77.9537722  50.6556046
  21.7197971  78.5101877  51.9500583  22.0762491  74.8206050  48.5084275
  22.1260496  74.6556057  49.4499798  21.9676415  73.9533309  48.1182156
  19.3666254  70.8036978  49.8243582  20.2676116  70.6643443  49.5327579
  19.4414228  70.9691433  50.7641759  13.7009059  68.1803833  48.6696768
  12.8312368  68.4737399  48.3979356  13.9368539  68.7644278  49.3904031
  23.5780688  77.2402991  48.7526296  23.2865496  77.6032972  49.5889757
  22.9652819  76.5270000  48.5739628  24.7776370  74.8055871  41.2728867
  25.6123262  75.2445675  41.4366427  24.9135499  74.3294524  40.4537112
  21.8267876  72.3635606  47.2206354  22.3021998  72.5563252  46.4125206
  20.9033442  72.4194792  46.9749738   8.7151383  73.5259773  36.8037433
   8.4697425  72.6222103  37.0017643   8.8847297  73.5276924  35.8616911
  16.4048093  64.3983450  46.1862188  16.9230037  65.1344476  45.8608677
  16.0503226  64.7047443  47.0208947   7.9847030  69.2588131  34.3023594
   7.2916275  69.3332486  33.6463630   7.7398782  68.4948474  34.8245111
  16.6560687  60.8183732  41.7063085  16.9362441  60.1506921  42.3323511
  17.4411294  61.0112828  41.1937749  20.5269545  69.2401366  45.4534660
  21.4786968  69.3399464  45.4746884  20.3572996  68.4479635  45.9632744
  18.5483925  66.3256949  45.6394061  17.9533857  66.6061962  44.9440549
  18.2633622  66.8150850  46.4110802  23.0057623  72.4607486  44.5676960
  22.9733943  71.5223486  44.7536643  23.6158247  72.5391522  43.8342784
  14.8440954  71.3303539  30.6104164  15.7900059  71.2009747  30.6792582
  14.4655199  70.5918201  31.0873592  23.1552112  69.2518529  44.6135243
  22.6391160  68.4676986  44.4265172  24.0392060  68.9237246  44.7781762
  20.8162839  62.9959545  40.5731055  20.6187660  62.6874633  41.4574387
  21.4262544  63.7221184  40.7028985  28.8234173  73.5223493  43.7082996
  29.5537561  73.2608781  44.2690700  28.2141118  72.7852214  43.7485064
  26.9049470  71.6631355  44.3057448  26.1782634  71.5287320  43.6973939
  26.4896757  71.9708184  45.1114166  14.7279647  75.3821285  52.0704821
  15.6482656  75.5599884  52.2644867  14.6929230  74.4377330  51.9184520
  13.0283871  69.2553515  30.5459049  12.1215327  68.9586628  30.6221762
  13.3059852  68.9583333  29.6793335   3.9461812  70.5759878  40.9958095
   3.6264596  69.7225187  40.7032469   3.3995240  70.7908457  41.7516063
  14.6445937  63.7990405  36.7003290  13.8346665  63.4537490  37.0758536
  15.3330354  63.4897949  37.2890902  16.5736485  62.8768452  38.3227587
  17.1267524  63.2963905  38.9817610  16.8106572  61.9504200  38.3650543
  12.5969584  68.8655525  54.1030351  12.4966311  69.8149882  54.0342442
  12.3791126  68.5373764  53.2306421  11.7982656  66.1140450  30.6871028
  12.6601820  66.4395349  30.9466845  11.9833000  65.3271946  30.1744094
  19.9515292  64.9868977  37.8306251  19.3713961  65.6453781  37.4484303
  19.6851225  64.1646321  37.4193669  18.4018859  64.3874034  40.0327571
  18.9018637  64.4990569  39.2241890  19.0454467  64.0835087  40.6728380
  12.4600854  72.2952664  52.9195412  11.9767936  73.0953024  53.1259301
  12.5461793  72.3060609  51.9662856  18.7340170  67.1469067  36.8862599
  17.8466025  67.4318718  36.6682794  19.1494159  66.9862831  36.0389876
  22.0854706  67.1715588  40.6016939  22.8615097  67.6612041  40.8741555
  21.3602841  67.5973642  41.0588808  24.5227265  67.8843207  41.6590879
  25.1171756  67.6438943  40.9484187  24.5953849  67.1650338  42.2864415
  18.7081194  72.6623603  37.1012889  18.6516395  73.1192154  36.2620522
  19.2609536  71.9014288  36.9235732  22.5186000  68.4513335  37.9263009
  22.2622934  68.0509971  38.7571217  21.8938868  69.1657129  37.8013148
  26.8298338  71.1909408  40.4334300  26.2697896  71.2602598  41.2065862
  26.2241841  71.0150393  39.7133797  19.7870081  77.3496271  33.0309079
  20.6215685  76.9177469  32.8486554  19.6254424  77.1778285  33.9585974
  19.4415973  73.8528384  34.3965419  19.3864777  73.6872656  33.4553863
  18.8162029  74.5604417  34.5527608   4.2308488  69.0896449  48.2226841
   4.8767352  68.5795403  48.7114066   4.0225639  69.8265130  48.7970266
  16.7561880  76.1577296  53.7218981  17.6253040  76.3317948  53.3605616
  16.2768632  76.9771713  53.5994711  12.7512099  63.3536493  33.9750737
  12.7390769  64.2978333  34.1319008  13.6435521  63.1706639  33.6810198
  16.5664218  59.9479270  38.2296674  15.7996614  59.3937757  38.3753356
  16.9774923  60.0201139  39.0910825   8.5705979  66.2364066  52.3201855
   9.4337441  65.8800871  52.5305180   7.9971390  65.8977961  53.0077259
  30.8929472  79.2414183  45.5645051  30.5612797  80.1109594  45.3406266
  30.2975086  78.9250467  46.2439082  32.6519782  82.1625708  44.4216275
  32.0094162  82.4558241  43.7756070  32.1474710  82.0478628  45.2269472
  27.9912604  77.0883764  45.1816365  27.6476873  77.9785406  45.1055475
  28.3591567  76.8985422  44.3185950  27.0709144  79.4588420  43.1465598
  26.5673940  79.4218555  42.3333403  27.3639751  80.3681162  43.2062255
  23.2237017  78.6470606  38.2523216  22.5701429  78.3319623  37.6279831
  23.1817491  78.0246347  38.9783039  29.7900270  76.3477324  40.2834103
  30.0959146  75.4874687  39.9960018  30.5152874  76.9394944  40.0833096
  30.0601888  78.7771559  42.7818023  29.1464967  79.0075786  42.9500230
  30.4894989  78.8610003  43.6332056  24.0390588  78.6796332  44.5800038
  24.8616657  78.2056810  44.4578929  24.2828651  79.4586815  45.0798725
  25.6953636  78.9287291  40.8427196  25.7175333  78.9926624  39.8879176
  26.1121695  78.0891800  41.0367703  27.2441847  79.7275367  46.1862188
  27.7623791  80.4636394  45.8608677  26.8896980  80.0339360  47.0208947
  27.4954441  76.1475650  41.7063085  27.7756195  75.4798839  42.3323511
  28.2805048  76.3404745  41.1937749  31.6556593  78.3251462  40.5731055
  31.4581414  78.0166551  41.4574387  32.2656299  79.0513101  40.7028985
  25.4839691  79.1282322  36.7003290  24.6740420  78.7829407  37.0758536
  26.1724108  78.8189866  37.2890902  27.4130240  78.2060369  38.3227587
  27.9661278  78.6255823  38.9817610  27.6500326  77.2796117  38.3650543
  30.7909047  80.3160894  37.8306251  30.2107716  80.9745698  37.4484303
  30.5244979  79.4938239  37.4193669  29.2412613  79.7165952  40.0327571
  29.7412391  79.8282487  39.2241890  29.8848221  79.4127005  40.6728380
  35.3621020  83.2135125  41.6590879  35.9565510  82.9730861  40.9484187
  35.4347603  82.4942256  42.2864415  27.4057973  75.2771188  38.2296674
  26.6390369  74.7229674  38.3753356  27.8168678  75.3493056  39.0910825
   6.7340250  19.7126170  27.7008059   5.9803959  19.1433568  27.5452063
   6.8687791  19.6788834  28.6478693   0.8104396  19.8654806  24.8110202
   0.6722294  20.0556402  23.8831391   0.4540615  20.6274189  25.2678253
   0.8373775  21.9331333  29.8221474   1.2710282  21.8406622  30.6704528
   1.5505356  21.9088834  29.1841490   1.6989325  21.9755034  32.3554359
   1.8925215  22.8800845  32.6013634   1.5989943  21.5162453  33.1892944
   2.9531388  18.5328701  29.0002263   2.9421264  19.4153416  28.6296196
   2.0848767  18.1800251  28.8056800   3.5555998  19.6828920  25.6051726
   3.9987144  18.9336245  25.2070849   2.6782508  19.6739056  25.2225458
   0.5883202  23.6858967  22.6145655   1.1134527  24.0246240  21.8894975
   0.5005555  22.7505982  22.4308790   0.3974984  21.1684337  35.2329581
   0.4472988  21.0034344  36.1745104   0.2888907  20.3011596  34.8427462
   1.8993180  23.5881279  35.4771603   1.6077989  23.9511259  36.3135064
   1.2865312  22.8748287  35.2984935   3.0988863  21.1534158  27.9974173
   3.9335754  21.5923962  28.1611734   3.2347991  20.6772812  27.1782419
   1.3270115  18.8085773  31.2922266   1.2946436  17.8701774  31.4781950
   1.9370739  18.8869810  30.5588091   1.4764604  15.5996816  31.3380549
   0.9603653  14.8155273  31.1510478   2.3604552  15.2715533  31.5027069
   7.1446665  19.8701780  30.4328303   7.8750054  19.6087068  30.9936006
   6.5353611  19.1330502  30.4730371   5.2261962  18.0109642  31.0302754
   4.4995126  17.8765607  30.4219246   4.8109249  18.3186471  31.8359472
   2.8439757  14.2321495  28.3836186   3.4384248  13.9917231  27.6729494
   2.9166341  13.5128625  29.0109722   0.8398492  14.7991622  24.6508316
   0.5835426  14.3988258  25.4816523   0.2151360  15.5135416  24.5258455
   5.1510830  17.5387695  27.1579607   4.5910388  17.6080885  27.9311169
   4.5454333  17.3628680  26.4379103   6.7366849  34.2144209  29.8509563
   7.3745258  34.0950957  29.1472903   6.6187691  35.1625053  29.9097515
   3.5456555  34.1671637  29.7871087   3.2075066  34.0512702  28.8991622
   4.4146323  33.7662803  29.7672094   4.0276338  35.3206489  35.7457293
   4.0164979  34.9259287  34.8737797   4.1896977  34.5872562  36.3391064
   4.9842929  39.6878082  21.0882443   4.3330909  40.2732162  20.7016457
   5.7787292  40.2184276  21.1477481   0.7483599  38.1043601  34.6936477
   0.4573465  39.0089232  34.5783143   1.3840583  38.1460129  35.4080546
   1.6739806  35.4820450  31.2837837   2.2703378  35.2576472  30.5694800
   1.7314777  34.7405195  31.8863284   1.2464834  32.9359885  19.1188028
   1.4990355  32.4141406  18.3571491   0.3089393  32.7726030  19.2214711
   6.2908117  31.9395663  26.9262771   7.0771206  31.5215086  26.5753188
   6.5546821  32.8441755  27.0944419   6.4618194  37.3768514  21.6251428
   5.8264027  37.4503140  22.3372332   6.1315601  37.9662112  20.9470507
  11.6916544  31.8770896  27.8295749  12.4241716  31.3070113  28.0633579
  10.9355900  31.4892497  28.2702255   0.9661123  34.8387991  21.3212403
   0.8497381  34.1632894  21.9893487   1.0763383  34.3520365  20.5044556
   3.3092664  34.2998138  25.0259092   2.9450871  33.7728759  25.7372013
   4.1659780  33.9096607  24.8525577   9.2141964  25.5892471  32.2890358
   8.8825289  26.4587881  32.0651573   8.6187578  25.2728755  32.9684388
   2.9498151  29.3288038  20.0220440   3.1172553  30.1968274  20.3890911
   2.7595320  29.4915319  19.0981730   5.7073484  37.7905017  31.6886271
   5.4074207  38.6930055  31.5802078   5.3624544  37.5237200  32.5407424
   9.1070628  30.3087557  29.3683708   8.1987505  30.2402965  29.0742469
   9.0558224  30.7859502  30.1965533   2.9287372  31.7845695  21.0067107
   2.8086997  32.2302746  21.8452587   2.2339960  32.1331013  20.4480645
   3.1811494  31.7277202  37.3118605   2.4044828  32.2871122  37.3021470
   3.8202057  32.2133985  37.8333475  10.9732274  28.5103995  31.1461582
  10.3306654  28.8036528  30.5001376  10.4687203  28.3956915  31.9514779
   8.6272438  32.2567168  21.8347441   9.5390294  32.4894555  21.6595139
   8.1182085  32.8404212  21.2722520   1.4357866  34.5362656  36.8736572
   2.1772550  35.0747700  36.5971396   0.7294851  35.1628944  37.0308124
   6.9113206  36.6791796  35.4708734   7.3196562  36.2374207  34.7263366
   6.1890467  36.1044424  35.7242927   3.2644276  31.6164403  32.8442291
   4.1105471  32.0403816  32.9876940   3.2042913  30.9598027  33.5380854
   7.2342020  37.2392987  29.2261023   6.6050883  37.4038701  28.5237090
   6.8467682  37.6534596  29.9971987  11.1131252  38.1747425  26.5805386
  10.4282290  38.5546326  26.0302420  11.1975101  38.7842751  27.3137334
   6.4143721  29.2768771  34.5023464   6.1704653  30.0310832  33.9657740
   6.6903651  29.6554119  35.3370711   8.3682184  35.8207384  33.1800730
   8.5799079  36.4639144  32.5035111   8.3211932  34.9869700  32.7122660
   5.9708413  28.4325204  30.0837302   5.1092892  28.7306458  30.3754040
   5.9970847  28.6495603  29.1518335   2.7869982  36.9767395  26.4911108
   3.2508328  37.2555098  25.7015730   2.5226780  36.0750839  26.3084198
   1.7238868  33.0990547  23.3000673   2.4262911  33.5511591  23.7674599
   1.3919497  32.4574366  23.9280566   9.4828012  38.6979339  31.3523087
  10.3045455  38.2959526  31.0705769   9.4790414  38.5947573  32.3039203
   3.2484615  38.2463382  33.5083798   3.3129048  38.7083790  34.3441970
   2.5395539  37.6160747  33.6366108  17.5734005  35.0418088  27.7008059
  16.8197713  34.4725486  27.5452063  17.7081546  35.0080752  28.6478693
   2.9632633  39.9131490  23.3762778   2.8278307  40.7583026  23.8047626
   3.5042445  40.1150767  22.6128712   2.3667933  27.4080949  37.6297390
   3.1077647  28.0088102  37.5501852   2.5985856  26.6658587  37.0715432
   4.5901109  40.5355056  37.5063120   4.1464963  39.7491435  37.1884025
   5.2518323  40.7234207  36.8407011   6.6882347  40.8157856  35.5344521
   6.6700823  41.6366737  35.0424791   7.6102267  40.6911931  35.7594663
   3.1455401  38.3301986  36.3768030   3.6783738  37.5690274  36.1467338
   2.6169482  38.0375638  37.1192184   6.3125096  23.4362052  31.9061672
   5.9689366  24.3263693  31.8300782   6.6804059  23.2463709  31.0431257
   6.2775379  33.4270663  20.4134107   5.7622002  34.1975267  20.6522494
   6.0052687  32.7535799  21.0367168   3.8622490  28.2720364  25.4719345
   3.0064086  27.8827214  25.2924984   4.2749442  28.3512324  24.6119131
   5.3921637  25.8066707  29.8710905   4.8886432  25.7696842  29.0578710
   5.6852244  26.7159450  29.9307561   1.6364523  25.8905437  28.8777086
   2.5017519  25.6948245  28.5182976   1.7042031  25.6615788  29.8046443
  11.2509653  36.1803017  22.3487280  10.4739096  35.8414177  21.9042442
  11.9301134  36.1855641  21.6742245   6.0661682  31.2997755  22.2393888
   5.7611818  31.6143904  23.0904031   7.0192124  31.3779175  22.2821221
   4.5108114  37.4587978  23.8886842   3.9829476  36.7240738  23.5760079
   4.0095617  38.2362655  23.6426810   9.4900960  35.6536999  29.0053888
   8.8324634  36.3436260  29.0934017  10.2941359  36.0433431  29.3487874
   8.3006419  34.0081371  27.0557830   8.8138301  34.6411363  27.5579540
   8.9507643  33.4082567  26.6901190   1.5449509  24.9948893  24.9768523
   0.8913922  24.6797911  24.3525138   1.5029983  24.3724634  25.7028346
   2.6560714  35.2768188  16.8921815   1.7487776  35.0457442  17.0912964
   3.1531746  34.4805808  17.0795796   5.5628793  43.9865696  19.8118501
   4.8890492  44.2897392  20.4203459   5.9494615  44.7894776  19.4623958
   4.7787250  31.4830827  29.3016170   3.8609811  31.7045774  29.1437858
   5.1947393  31.5577137  28.4427878   5.5622297  32.8822243  24.4318851
   6.3094116  33.3943640  24.1225973   5.8313887  32.5606295  25.2923244
   3.8348948  35.3780783  21.4145805   2.9260167  35.0939816  21.5118275
   3.8644031  35.7979862  20.5549112   9.0668215  38.9887373  25.1836972
   8.6130542  38.1478283  25.2402163   8.4362182  39.6248771  25.5211753
   8.0101135  29.9179359  26.4137640   7.2723891  29.4056745  26.7447882
   8.2627908  29.4779740  25.6020917   7.5101154  40.8263870  26.1186791
   7.8024129  41.3868927  25.3999156   8.0199775  41.1192431  26.8739950
   8.1112762  22.6955611  27.0079409   8.4171639  21.8352974  26.7205324
   8.8365367  23.2873231  26.8078403   2.3833842  32.9909404  27.5155600
   2.4382451  32.0383240  27.4398077   1.5725044  33.1468843  27.9996899
   3.5325035  36.9189527  18.7533883   3.0944465  36.2025386  18.2939521
   4.2735476  37.1465642  18.1918975   2.4734779  41.6044221  27.2080244
   2.4310958  41.8305067  26.2788776   3.3897478  41.3707595  27.3566045
   5.9200413  32.0728288  34.1060873   6.2749801  32.2999761  34.9655339
   6.5672545  32.4046665  33.4838128  11.6498150  35.1946724  24.8110202
  11.5116049  35.3848320  23.8831391  11.2934369  35.9566107  25.2678253
  11.6767530  37.2623251  29.8221474  12.1104036  37.1698540  30.6704528
  12.3899111  37.2380752  29.1841490   5.4095425  40.8625345  31.3554574
   5.4632447  41.4316281  32.1232290   4.5410206  41.0327230  30.9908611
  12.5383079  37.3046952  32.3554359  12.7318969  38.2092762  32.6013634
  12.4383698  36.8454371  33.1892944   4.1919390  27.1904842  34.8544686
   3.5447305  27.8894792  34.7609163   4.9620406  27.6240986  35.2220934
   7.5998188  37.4553694  37.9295240   7.4483694  37.2264246  37.0125323
   7.5902868  38.4124296  37.9426585   4.3683524  35.0285607  32.9141506
   5.2975584  35.1796767  32.7410473   3.9474554  35.1169628  32.0590153
   3.1671856  39.0536272  30.6840044   3.0282942  38.6855056  31.5565982
   2.3786452  39.5683911  30.5124001   3.7620008  44.1545368  22.0265580
   3.9371764  43.6833411  22.8411203   3.0752796  44.7811134  22.2546841
   4.7177071  38.4317874  28.0728881   4.3826904  38.3918644  28.9686531
   4.2181017  37.7662590  27.5999292   7.6536263  35.7773909  18.3465941
   7.0365434  35.0520737  18.2498994   7.1852752  36.5383269  18.0033015
   1.3203616  33.5505464  33.0865142   2.0303235  32.9098656  33.0451761
   1.2772924  33.8018359  34.0091323   9.3090395  40.4872817  36.0071721
   9.2502941  39.8032037  35.3402304   9.7109913  41.2291807  35.5552347
   9.3107802  38.4512401  34.2385701   8.4234581  38.1138323  34.3612100
   9.8806353  37.7195432  34.4754466   2.8408955  43.1113853  31.2046944
   2.7679127  43.9168825  31.7166249   2.3986348  43.3105819  30.3794966
   2.6298735  42.3485623  24.7149766   1.8466257  42.8907304  24.8087990
   3.3291480  42.8659603  25.1144007   5.9395385  28.1580253  27.3583971
   6.4364085  27.4050215  27.0385041   5.1682367  28.1944569  26.7927181
  13.7925143  33.8620618  29.0002263  13.7815019  34.7445334  28.6296196
  12.9242522  33.5092169  28.8056800   5.3007639  43.0100687  33.3605103
   6.0135611  43.6448152  33.2881004   4.8097668  43.1064553  32.5445105
   7.0225166  36.9151940  24.9322395   6.0881445  37.0353402  24.7627099
   7.2001834  36.0124407  24.6682404   2.5230354  30.2997636  27.0855656
   2.1528141  29.7468676  27.7736561   3.0189446  29.6955769  26.5330656
  10.4097717  32.7569259  25.4672429  10.8758169  33.5897251  25.3932731
  10.8605218  32.2914241  26.1717687   8.4773948  39.1013081  22.4658581
   8.7533792  38.9869675  23.3752455   7.6078447  38.7030565  22.4270754
   8.3814380  25.1249846  29.5063330   7.4677460  25.3554073  29.6745537
   8.8107481  25.2088290  30.3577362   8.1520838  33.3139738  32.0063224
   7.4992289  33.5615646  31.3515677   8.5301218  32.5003876  31.6725701
   5.1128012  43.3499431  26.1091394   5.2950407  42.5321087  26.5719147
   5.9360998  43.5667124  25.6716284   5.4470178  42.2767617  23.3706443
   5.9757944  41.7660071  22.7576605   5.7098397  41.9610147  24.2351976
   4.2008411  34.0559549  38.4929261   3.5249048  33.9553679  39.1631636
   5.0236045  33.8998763  38.9565258   2.9431194  45.3626477  32.7286877
   3.4949502  45.5258098  33.4935962   3.2837388  45.9530915  32.0566902
   7.7942069  40.1887734  38.5835532   8.3381973  40.8017693  38.0890486
   7.2128913  40.7467313  39.1002545   6.0799582  43.3108452  29.7150559
   5.9550721  42.5098192  29.2061505   6.7378673  43.8054646  29.2264529
   8.1434490  41.1117472  31.3430109   7.1964825  40.9922824  31.2708436
   8.4917263  40.2239970  31.4256371   0.5034063  27.0011611  35.1668351
   1.0268465  27.2473908  35.9294661   0.2846397  27.8331646  34.7471489
   5.1480923  40.9070189  27.5434462   5.0005886  39.9786896  27.7242032
   5.9734417  40.9290279  27.0591537   8.7515045  41.7298747  28.6299334
   9.6761593  41.5241609  28.4923786   8.5830348  41.4815148  29.5388676
   1.7086608  27.9425306  32.8518022   1.3683429  27.1433119  33.2538702
   1.0025615  28.2427017  32.2794855   2.3603080  25.0274619  31.3045345
   3.1829150  24.5535097  31.1824235   2.6041144  25.8065103  31.8044031
   1.0011315  28.0562877  21.6008247   1.7219677  28.4344130  21.0971963
   0.3776619  28.7751754  21.7043225   5.1442438  28.7608026  22.5366579
   5.3606052  29.6432664  22.2355407   4.6636505  28.3694240  21.8072221
   1.7438042  28.7096287  29.1618213   1.7299611  27.8137381  28.8250511
   2.4610470  28.7166951  29.7956499   3.5964173  29.1433628  31.2071341
   3.3381950  30.0650698  31.2055671   3.0649213  28.7464062  31.8971805
   8.5410361  42.2484415  23.9861426   8.7147239  41.6830837  23.2335278
   9.0339253  43.0485310  23.8040916   1.1474938  27.5910668  24.4305783
   1.2690849  26.6627314  24.6296671   0.8576980  27.6049354  23.5184099
   4.0166128  25.2765578  27.5672503   4.0387825  25.3404911  26.6124483
   4.4334187  24.4370087  27.7613009  14.3949752  35.0120838  25.6051726
  14.8380899  34.2628163  25.2070849  13.5176263  35.0030974  25.2225458
   9.5285534  41.5651179  21.0858324  10.2236438  42.1857872  21.3045639
   9.8708684  40.7146530  21.3610702  11.4276957  39.0150885  22.6145655
  11.9528281  39.3538157  21.8894975  11.3399309  38.0797900  22.4308790
   3.0897006  42.9284958  34.7435532   3.3984132  42.6834105  35.6158231
   3.8872488  43.1331597  34.2554402   3.1117618  45.0822868  26.9740908
   2.6722608  44.5899247  27.6673765   3.8625735  44.5395836  26.7332983
   0.6316017  29.1042665  38.6395716   0.6804173  29.9804788  38.2573485
   1.1738532  28.5620058  38.0667359  11.1170863  39.6483788  37.9196853
  10.3266407  39.6307927  37.3801352  10.8804218  40.1872082  38.6745889
  11.2368738  36.4976255  35.2329581  11.2866743  36.3326262  36.1745104
  11.1282661  35.6303514  34.8427462   8.5272500  32.4807183  36.5488888
   9.4282363  32.3413648  36.2572886   8.6020475  32.6461638  37.4887066
   2.8615306  29.8574037  35.3942074   1.9918615  30.1507604  35.1224663
   3.0974786  30.4414482  36.1149338  13.9382617  36.4826076  27.9974173
  14.7729509  36.9215880  28.1611734  14.0741746  36.0064729  27.1782419
  10.9874123  34.0405811  33.9451661  11.4628245  34.2333457  33.1370512
  10.0639688  34.0964997  33.6995045   5.5654340  26.0753654  32.9107495
   6.0836283  26.8114681  32.5853983   5.2109472  26.3817648  33.7454254
   5.8166934  22.4953937  28.4308391   6.0968688  21.8277126  29.0568818
   6.6017541  22.6883033  27.9183055   3.6200402  41.6712931  19.9933418
   3.0474369  42.2903118  19.5403890   4.1933196  42.2212293  20.5273340
   9.6875792  30.9171571  32.1779967  10.6393215  31.0169669  32.1992191
   9.5179243  30.1249839  32.6878051   7.7090172  28.0027154  32.3639367
   7.1140104  28.2832167  31.6685856   7.4239868  28.4921055  33.1356109
   6.8397662  41.9550081  21.1242000   7.7728335  41.8895643  21.3274876
   6.7520875  42.7906348  20.6656533   9.4685679  41.2715951  18.0845948
   9.3899310  40.9375815  18.9781706  10.2895346  41.7637719  18.0837420
  12.1663870  34.1377691  31.2922266  12.1340190  33.1993691  31.4781950
  12.7764494  34.2161727  30.5588091   4.0047201  33.0073744  17.3349470
   4.9506305  32.8779952  17.4037888   3.6261446  32.2688406  17.8118898
  12.3158358  30.9288734  31.3380549  11.7997407  30.1447191  31.1510478
  13.1998307  30.6007451  31.5027069   9.9769085  24.6729750  27.2976362
   9.7793906  24.3644838  28.1819694  10.5868791  25.3991389  27.4274292
  17.9840420  35.1993697  30.4328303  18.7143808  34.9378986  30.9936006
  17.3747365  34.4622419  30.4730371  16.0655717  33.3401560  31.0302754
  15.3388880  33.2057525  30.4219246  15.6503004  33.6478389  31.8359472
   3.8885893  37.0591490  38.7950127   4.8088903  37.2370089  38.9890174
   3.8535476  36.1147535  38.6429827   2.1890118  30.9323720  17.2704355
   1.2821573  30.6356833  17.3467069   2.4666099  30.6353538  16.4038642
   3.8052184  25.4760610  23.4248597   2.9952912  25.1307695  23.8003843
   4.4936601  25.1668153  24.0136208   5.7342732  24.5538657  25.0472893
   6.2873771  24.9734110  25.7062917   5.9712818  23.6274405  25.0895849
   1.7575831  30.5425730  40.8275657   1.6572558  31.4920087  40.7587748
   1.5397373  30.2143969  39.9551727   0.9588903  27.7910655  17.4116335
   1.8208067  28.1165554  17.6712152   1.1439247  27.0042151  16.8989400
   9.1121539  26.6639182  24.5551558   8.5320208  27.3223986  24.1729610
   8.8457472  25.8416526  24.1438975   7.5625105  26.0644239  26.7572878
   8.0624884  26.1760774  25.9487197   8.2060713  25.7605292  27.3973686
   1.6207101  33.9722869  39.6440719   1.1374183  34.7723229  39.8504608
   1.7068040  33.9830814  38.6908163   7.8946417  28.8239272  23.6107906
   7.0072272  29.1088923  23.3928101   8.3100406  28.6633035  22.7635183
  11.2460953  28.8485793  27.3262245  12.0221343  29.3382245  27.5986862
  10.5209087  29.2743847  27.7834115  13.6833512  29.5613412  28.3836186
  14.2778003  29.3209148  27.6729494  13.7560095  28.8420543  29.0109722
   7.0389630  38.5883947  17.7055926   7.7425481  38.7933949  18.3213582
   6.3152279  39.1560709  17.9705009   7.8687441  34.3393808  23.8258196
   7.8122642  34.7962359  22.9865829   8.4215783  33.5784493  23.6481039
  11.6792247  30.1283540  24.6508316  11.4229181  29.7280176  25.4816523
  11.0545115  30.8427334  24.5258455  15.9904585  32.8679613  27.1579607
  15.4304143  32.9372802  27.9311169  15.3848088  32.6920598  26.4379103
   8.9476328  39.0266476  19.7554386   9.7821932  38.5947674  19.5731861
   8.7860671  38.8548490  20.6831280   8.6022220  35.5298589  21.1210725
   8.5471024  35.3642861  20.1799169   7.9768275  36.2374622  21.2772915
   5.9168127  37.8347501  40.4464288   6.7859287  38.0088153  40.0850923
   5.4374879  38.6541918  40.3240017   1.9118346  25.0306698  20.6996044
   1.8997015  25.9748538  20.8564315   2.8041767  24.8476844  20.4055505
   1.8407910  43.7075589  28.7863800   0.8903541  43.7077450  28.6728173
   2.1440396  42.9608323  28.2699835   5.7270465  21.6249475  24.9541980
   4.9602861  21.0707962  25.0998663   6.1381170  21.6971344  25.8156132
  17.5760603  49.5436127  29.8509563  18.2139013  49.4242874  29.1472903
  17.4581446  50.4916971  29.9097515  14.3850309  49.4963555  29.7871087
  14.0468821  49.3804620  28.8991622  15.2540077  49.0954720  29.7672094
  10.2437125  51.3499032  25.7767978   9.6801990  51.2588968  25.0084266
  10.1289520  50.5298936  26.2570471  14.8670092  50.6498407  35.7457293
  14.8558733  50.2551205  34.8737797  15.0290732  49.9164479  36.3391064
   7.7901557  52.8450223  28.6152199   8.5822849  52.5041048  28.1998498
   8.0298207  52.9545198  29.5354352  15.8236684  55.0169999  21.0882443
  15.1724663  55.6024080  20.7016457  16.6181046  55.5476194  21.1477481
   9.7492311  52.1059136  21.4869578  10.5223187  51.5588123  21.3482453
  10.1017710  52.9703386  21.6984039  11.5877353  53.4335519  34.6936477
  11.2967219  54.3381150  34.5783143  12.2234338  53.4752046  35.4080546
  12.5133560  50.8112367  31.2837837  13.1097133  50.5868390  30.5694800
  12.5708532  50.0697113  31.8863284  12.0858589  48.2651803  19.1188028
  12.3384109  47.7433324  18.3571491  11.1483148  48.1017948  19.2214711
  17.1301871  47.2687581  26.9262771  17.9164961  46.8507004  26.5753188
  17.3940576  48.1733673  27.0944419  17.3011949  52.7060431  21.6251428
  16.6657782  52.7795058  22.3372332  16.9709355  53.2954030  20.9470507
  11.8054877  50.1679908  21.3212403  11.6891135  49.4924812  21.9893487
  11.9157137  49.6812282  20.5044556  14.1486418  49.6290056  25.0259092
  13.7844626  49.1020677  25.7372013  15.0053534  49.2388525  24.8525577
  13.7891905  44.6579955  20.0220440  13.9566308  45.5260192  20.3890911
  13.5989074  44.8207237  19.0981730  16.5467238  53.1196934  31.6886271
  16.2467962  54.0221973  31.5802078  16.2018298  52.8529117  32.5407424
   9.9979720  49.5710731  27.7222975   9.0730216  49.4386945  27.9300667
  10.2464133  50.3504950  28.2192917  19.9464382  45.6379474  29.3683708
  19.0381260  45.5694883  29.0742469  19.8951978  46.1151419  30.1965533
  13.7681126  47.1137613  21.0067107  13.6480751  47.5594664  21.8452587
  13.0733715  47.4622930  20.4480645   7.3588531  49.2144005  28.5566764
   7.4880912  49.4678484  29.4706176   6.6785982  49.8071713  28.2371419
  11.5288018  59.8841255  24.6557238  11.4512048  60.8349080  24.7345719
  10.9249662  59.5387127  25.3132165  19.4666192  47.5859086  21.8347441
  20.3784048  47.8186473  21.6595139  18.9575839  48.1696130  21.2722520
  12.2751620  49.8654573  36.8736572  13.0166305  50.4039617  36.5971396
  11.5688606  50.4920862  37.0308124  17.7506960  52.0083714  35.4708734
  18.1590316  51.5666124  34.7263366  17.0284222  51.4336341  35.7242927
  14.1038030  46.9456321  32.8442291  14.9499225  47.3695734  32.9876940
  14.0436668  46.2889945  33.5380854  18.0735775  52.5684904  29.2261023
  17.4444637  52.7330619  28.5237090  17.6861437  52.9826514  29.9971987
  19.2075938  51.1499301  33.1800730  19.4192833  51.7931061  32.5035111
  19.1605686  50.3161618  32.7122660  16.8102167  43.7617122  30.0837302
  15.9486646  44.0598376  30.3754040  16.8364602  43.9787521  29.1518335
  13.6263737  52.3059313  26.4911108  14.0902082  52.5847015  25.7015730
  13.3620535  51.4042757  26.3084198  10.5187818  51.8530794  29.4290871
  11.0889175  52.2818062  28.7908355  11.1095929  51.5713379  30.1275057
  12.5632623  48.4282465  23.3000673  13.2656666  48.8803509  23.7674599
  12.2313251  47.7866284  23.9280566  11.0112984  47.0194221  37.6751882
  10.3811645  47.7010502  37.9087279  10.9049072  46.9077303  36.7305020
   6.3057957  46.6866018  28.6017806   5.5157011  46.9423546  28.1257917
   6.7969204  47.5014355  28.7069847  20.3221766  54.0271257  31.3523087
  21.1439210  53.6251444  31.0705769  20.3184169  53.9239491  32.3039203
   8.2572702  47.0510597  25.5601283   7.4603865  47.1629291  26.0784779
   8.0298294  47.3897249  24.6942174  14.0878370  53.5755300  33.5083798
  14.1522802  54.0375707  34.3441970  13.3789293  52.9452665  33.6366108
   4.5895660  46.9396508  31.0332797   4.8403698  47.8243518  31.2990373
   5.1255208  46.7601110  30.2607889  13.8026387  55.2423407  23.3762778
  13.6672062  56.0874943  23.8047626  14.3436200  55.4442685  22.6128712
  10.2893727  41.3214987  40.0377133   9.8960672  40.7681186  40.7124777
  11.1059867  41.6325566  40.4283651   7.2555785  52.7598846  23.9490703
   7.7680305  53.5542096  24.0996268   7.9078497  52.0625136  23.8824305
   9.0650669  55.8764602  26.0313456   9.2417298  56.7982567  25.8434440
   9.8607503  55.5623021  26.4607836   8.3503026  47.9229234  35.9075620
   8.2356541  47.0214491  36.2082718   7.4947544  48.1692930  35.5560436
  15.4294864  55.8646974  37.5063120  14.9858718  55.0783353  37.1884025
  16.0912077  56.0526125  36.8407011  10.1881985  57.3942776  32.0323799
  10.7389410  57.2659839  31.2600793   9.3493461  57.6937665  31.6818691
  17.5276102  56.1449774  35.5344521  17.5094577  56.9658655  35.0424791
  18.4496022  56.0203849  35.7594663  13.9849156  53.6593903  36.3768030
  14.5177493  52.8982192  36.1467338  13.4563237  53.3667555  37.1192184
   5.2204701  51.0887500  24.7250274   6.0579923  51.4984508  24.5083981
   5.3982969  50.1486942  24.6950468  17.1169133  48.7562580  20.4134107
  16.6015757  49.5267185  20.6522494  16.8446442  48.0827717  21.0367168
  14.7016245  43.6012281  25.4719345  13.8457841  43.2119132  25.2924984
  15.1143196  43.6804242  24.6119131  16.2315391  41.1358625  29.8710905
  15.7280187  41.0988760  29.0578710  16.5245998  42.0451367  29.9307561
  12.4758277  41.2197354  28.8777086  13.3411274  41.0240163  28.5182976
  12.5435786  40.9907706  29.8046443  16.9055437  46.6289673  22.2393888
  16.6005572  46.9435822  23.0904031  17.8585879  46.7071092  22.2821221
  15.3501869  52.7879896  23.8886842  14.8223230  52.0532655  23.5760079
  14.8489371  53.5654572  23.6426810  10.0820596  43.4499562  26.2493453
  10.6564348  43.2274744  25.5166646  10.6691579  43.5188257  27.0022055
  19.1400173  49.3373289  27.0557830  19.6532055  49.9703281  27.5579540
  19.7901397  48.7374485  26.6901190  10.4090183  45.4804023  20.2689339
   9.5727495  45.8178710  20.5898613  10.2694953  45.3453003  19.3316476
  12.3843264  40.3240811  24.9768523  11.7307676  40.0089828  24.3525138
  12.3423738  39.7016552  25.7028346  13.4954469  50.6060106  16.8921815
  12.5881530  50.3749360  17.0912964  13.9925501  49.8097725  17.0795796
  16.4022548  59.3157613  19.8118501  15.7284246  59.6189310  20.4203459
  16.7888370  60.1186694  19.4623958  15.6181004  46.8122745  29.3016170
  14.7003566  47.0337692  29.1437858  16.0341148  46.8869055  28.4427878
  16.4016052  48.2114160  24.4318851  17.1487871  48.7235558  24.1225973
  16.6707642  47.8898213  25.2923244  14.6742702  50.7072701  21.4145805
  13.7653921  50.4231734  21.5118275  14.7037786  51.1271780  20.5549112
  19.9061970  54.3179291  25.1836972  19.4524297  53.4770200  25.2402163
  19.2755936  54.9540689  25.5211753  18.8494889  45.2471277  26.4137640
  18.1117646  44.7348663  26.7447882  19.1021663  44.8071658  25.6020917
  18.3494909  56.1555787  26.1186791  18.6417883  56.7160844  25.3999156
  18.8593529  56.4484348  26.8739950  18.9506516  38.0247529  27.0079409
  19.2565393  37.1644892  26.7205324  19.6759121  38.6165149  26.8078403
   5.2430873  48.4278215  25.3961007   5.0455272  47.8347576  24.6712074
   4.6877537  48.1230425  26.1136946  13.2227596  48.3201322  27.5155600
  13.2776206  47.3675158  27.4398077  12.4118798  48.4760761  27.9996899
  14.3718790  52.2481445  18.7533883  13.9338220  51.5317304  18.2939521
  15.1129231  52.4757560  18.1918975  11.1619956  46.9378381  25.2745979
  10.3487822  47.2372552  25.6811171  11.6578950  46.5434070  25.9920461
  13.3128534  56.9336138  27.2080244  13.2704713  57.1596985  26.2788776
  14.2291233  56.6999513  27.3566045  10.6534031  44.5096737  30.8907214
  11.2933410  44.3685496  30.1930177   9.8211561  44.2231250  30.5145816
  11.4294335  53.8099167  27.0042207  12.2234933  53.3149487  26.8024781
  10.7186027  53.2817030  26.6409912  16.2489179  56.1917263  31.3554574
  16.3026202  56.7608199  32.1232290  15.3803961  56.3619148  30.9908611
   7.7377098  47.9542249  23.0801959   6.8074686  47.8926705  23.2971921
   7.8334570  47.4318202  22.2838600   7.6562647  44.4797062  25.6680201
   7.9169465  45.3942395  25.5589361   8.4779820  44.0121504  25.8176814
   9.1287573  45.8934819  32.8379025   9.8010626  45.6852181  32.1891674
   8.3017359  45.6956905  32.3984258  23.3776834  52.6338869  32.3554359
  23.5712724  53.5384680  32.6013634  23.2777452  52.1746288  33.1892944
  15.0313145  42.5196760  34.8544686  14.3841060  43.2186710  34.7609163
  15.8014160  42.9532904  35.2220934  18.4391943  52.7845612  37.9295240
  18.2877449  52.5556164  37.0125323  18.4296622  53.7416214  37.9426585
  15.2077279  50.3577525  32.9141506  16.1369339  50.5088684  32.7410473
  14.7868309  50.4461546  32.0590153  14.0065611  54.3828189  30.6840044
  13.8676696  54.0146974  31.5565982  13.2180207  54.8975829  30.5124001
  14.6013763  59.4837286  22.0265580  14.7765518  59.0125329  22.8411203
  13.9146551  60.1103052  22.2546841  15.5570826  53.7609792  28.0728881
  15.2220659  53.7210562  28.9686531  15.0574772  53.0954508  27.5999292
   9.5315070  49.1677422  33.5981463   9.3934868  48.4357661  34.1993002
  10.4419993  49.0786322  33.3165650  18.4930018  51.1065826  18.3465941
  17.8759188  50.3812655  18.2498994  18.0246506  51.8675187  18.0033015
  12.1597371  48.8797381  33.0865142  12.8696989  48.2390574  33.0451761
  12.1166679  49.1310276  34.0091323  20.1484149  55.8164735  36.0071721
  20.0896695  55.1323955  35.3402304  20.5503668  56.5583725  35.5552347
  10.8726305  45.8662599  34.9060782  10.3363662  45.4153338  35.5582378
  10.2843013  46.0008508  34.1631246   9.1674848  62.6326649  28.8005440
   9.4071446  63.2645173  29.4784459   8.3244044  62.2814689  29.0870800
  10.2828563  45.3251251  17.4687245   9.4058030  45.2040051  17.1049492
  10.7586317  44.5337329  17.2166134  20.1501556  53.7804319  34.2385701
  19.2628335  53.4430240  34.3612100  20.7200108  53.0487350  34.4754466
   1.8030704  50.1128410  27.5628752   2.4901743  49.7990140  26.9749768
   1.6478832  51.0169775  27.2896004   6.6065426  45.0018607  31.9913776
   6.5223614  44.3944276  31.2564186   5.7848132  45.4927625  31.9923273
  13.6802710  58.4405771  31.2046944  13.6072881  59.2460742  31.7166249
  13.2380103  58.6397737  30.3794966  13.4692489  57.6777541  24.7149766
  12.6860011  58.2199221  24.8087990  14.1685235  58.1951521  25.1144007
  16.7789140  43.4872170  27.3583971  17.2757839  42.7342133  27.0385041
  16.0076121  43.5236487  26.7927181  16.1401393  58.3392605  33.3605103
  16.8529366  58.9740070  33.2881004  15.6491422  58.4356471  32.5445105
  17.8618920  52.2443858  24.9322395  16.9275199  52.3645320  24.7627099
  18.0395589  51.3416324  24.6682404  13.3624108  45.6289553  27.0855656
  12.9921896  45.0760594  27.7736561  13.8583201  45.0247687  26.5330656
  11.1913307  56.0887048  34.1810674  11.8922766  56.7223531  34.3340068
  10.7208422  56.4301780  33.4206313  19.3167703  54.4304998  22.4658581
  19.5927547  54.3161593  23.3752455  18.4472201  54.0322483  22.4270754
  18.9914593  48.6431656  32.0063224  18.3386043  48.8907563  31.3515677
  19.3694973  47.8295794  31.6725701  15.9521767  58.6791349  26.1091394
  16.1344161  57.8613005  26.5719147  16.7754753  58.8959041  25.6716284
  16.2863932  57.6059534  23.3706443  16.8151699  57.0951989  22.7576605
  16.5492152  57.2902064  24.2351976   6.7881025  55.6223404  31.1141776
   7.3734462  54.8767091  31.2469681   6.5905863  55.9327360  31.9978440
   9.6419680  58.6574651  26.1304219   8.9730055  59.1420779  25.6468259
   9.5032550  58.9043871  27.0447597   1.3798680  48.1929004  29.8346220
   1.4182779  47.6592594  30.6283338   0.8738973  47.6664209  29.2157197
  13.7824949  60.6918394  32.7286877  14.3343257  60.8550016  33.4935962
  14.1231142  61.2822832  32.0566902   8.7589442  43.0393544  33.3308762
   8.8230769  43.9008375  32.9186160   8.6956562  42.4267546  32.5981120
   8.2341715  45.1116677  36.9781796   8.8613753  44.7293754  37.5919320
   7.3769633  44.8930879  37.3437489  18.6335823  55.5179652  38.5835532
  19.1775727  56.1309610  38.0890486  18.0522668  56.0759230  39.1002545
   5.0107257  46.9193106  22.9100151   5.3060698  46.0103784  22.8567205
   4.1095293  46.8980845  22.5881153  16.9193336  58.6400370  29.7150559
  16.7944476  57.8390110  29.2061505  17.5772427  59.1346563  29.2264529
   8.5401504  44.9949102  28.8927700   7.8188090  45.6085070  28.7535173
   9.3294760  45.5306867  28.8144346  18.9828244  56.4409390  31.3430109
  18.0358580  56.3214741  31.2708436  19.3311018  55.5531888  31.4256371
  11.3427818  42.3303529  35.1668351  11.8662220  42.5765826  35.9294661
  11.1240151  43.1623564  34.7471489   6.7395099  44.6007204  23.0339476
   6.4107805  43.7204582  22.8514582   7.0934470  44.5454872  23.9215865
  15.9874678  56.2362106  27.5434462  15.8399640  55.3078814  27.7242032
  16.8128171  56.2582197  27.0591537   9.8536922  44.8880173  23.4014954
  10.1932995  45.4166095  22.6793562  10.3009043  45.2260579  24.1773520
  12.5480363  43.2717224  32.8518022  12.2077183  42.4725037  33.2538702
  11.8419369  43.5718935  32.2794855  13.1996835  40.3566536  31.3045345
  14.0222904  39.8827015  31.1824235  13.4434898  41.1357020  31.8044031
  11.8405069  43.3854795  21.6008247  12.5613432  43.7636048  21.0971963
  11.2170373  44.1043672  21.7043225  15.9836192  44.0899944  22.5366579
  16.1999806  44.9724582  22.2355407  15.5030259  43.6986157  21.8072221
  10.7235413  47.0485657  29.1137324  10.5779994  47.3625960  30.0061605
  10.2460617  47.6670557  28.5608222  12.5831796  44.0388205  29.1618213
  12.5693365  43.1429298  28.8250511  13.3004224  44.0458869  29.7956499
  14.4357927  44.4725545  31.2071341  14.1775705  45.3942616  31.2055671
  13.9042967  44.0755980  31.8971805  19.3804116  57.5776332  23.9861426
  19.5540993  57.0122755  23.2335278  19.8733007  58.3777227  23.8040916
   5.1981076  49.5891002  32.0524985   4.6534544  50.3650809  32.1845259
   6.0760425  49.9361806  31.8944106  11.9868692  42.9202585  24.4305783
  12.1084603  41.9919232  24.6296671  11.6970735  42.9341271  23.5184099
  14.8559883  40.6057496  27.5672503  14.8781579  40.6696829  26.6124483
  15.2727942  39.7662004  27.7613009  20.3679288  56.8943097  21.0858324
  21.0630193  57.5149790  21.3045639  20.7102438  56.0438448  21.3610702
   5.9847097  48.7160898  34.9455142   5.2428834  48.8643533  35.5319772
   5.6639842  48.9769163  34.0821891  13.9290760  58.2576876  34.7435532
  14.2377887  58.0126023  35.6158231  14.7266242  58.4623514  34.2554402
  13.9511372  60.4114786  26.9740908  13.5116362  59.9191164  27.6673765
  14.7019489  59.8687753  26.7332983   6.4303711  56.6026327  26.9765536
   7.2561731  56.3030098  26.5964180   6.0797763  55.8333949  27.4255325
  11.3985244  55.9552795  29.0463210  10.7765254  55.2923500  28.7465438
  12.0690111  55.9813927  28.3636858   4.6312316  54.5212653  27.9354470
   3.7944225  54.0934827  27.7538471   4.6035962  54.7145096  28.8725261
  11.4709772  44.4334583  38.6395716  11.5197927  45.3096706  38.2573485
  12.0132286  43.8911976  38.0667359  21.9564617  54.9775706  37.9196853
  21.1660161  54.9599845  37.3801352  21.7197972  55.5164000  38.6745889
  22.0762493  51.8268172  35.2329581  22.1260497  51.6618180  36.1745104
  21.9676416  50.9595431  34.8427462  10.9598751  54.5056718  22.5221670
  11.1086872  55.1892182  21.8688343  11.7665195  54.4861808  23.0371126
  13.7009060  45.1865955  35.3942074  12.8312370  45.4799521  35.1224663
  13.9368541  45.7706400  36.1149338  23.5780689  54.2465114  35.4771603
  23.2865498  54.6095094  36.3135064  22.9652821  53.5332122  35.2984935
  21.8267878  49.3697729  33.9451661  22.3021999  49.5625375  33.1370512
  20.9033443  49.4256914  33.6995045   8.7151384  50.5321896  23.5282739
   8.4697426  49.6284226  23.7262949   8.8847299  50.5339046  22.5862217
  16.4048094  41.4045572  32.9107495  16.9230038  42.1406599  32.5853983
  16.0503227  41.7109565  33.7454254   7.9847032  46.2650253  21.0268901
   7.2916277  46.3394608  20.3708937   7.7398784  45.5010597  21.5490418
  16.6560688  37.8245855  28.4308391  16.9362442  37.1569044  29.0568818
  17.4411295  38.0174950  27.9183055  14.4594157  57.0004849  19.9933418
  13.8868124  57.6195036  19.5403890  15.0326950  57.5504210  20.5273340
  18.5483926  43.3319072  32.3639367  17.9533858  43.6124085  31.6685856
  18.2633623  43.8212973  33.1356109  17.6791417  57.2841999  21.1242000
  18.6122090  57.2187560  21.3274876  17.5914629  58.1198266  20.6656533
  20.3079433  56.6007869  18.0845948  20.2293065  56.2667733  18.9781706
  21.1289100  57.0929637  18.0837420  14.8440955  48.3365661  17.3349470
  15.7900060  48.2071869  17.4037888  14.4655200  47.5980323  17.8118898
  14.7279648  52.3883407  38.7950127  15.6482657  52.5662006  38.9890174
  14.6929231  51.4439453  38.6429827  13.0283872  46.2615638  17.2704355
  12.1215328  45.9648750  17.3467069  13.3059853  45.9645456  16.4038642
   3.9461813  47.5822001  27.7203402   3.6264597  46.7287309  27.4277776
   3.3995241  47.7970579  28.4761369   7.7241720  50.2984442  31.4372908
   7.9427730  51.2301550  31.4560942   8.1367494  49.9392416  32.2227712
  14.6445938  40.8052527  23.4248597  13.8346666  40.4599612  23.8003843
  15.3330355  40.4960071  24.0136208  16.5736486  39.8830574  25.0472893
  17.1267525  40.3026028  25.7062917  16.8106573  38.9566322  25.0895849
  12.5969586  45.8717648  40.8275657  12.4966313  46.8212005  40.7587748
  12.3791128  45.5435887  39.9551727  11.7982657  43.1202573  17.4116335
  12.6601821  43.4457471  17.6712152  11.9833001  42.3334069  16.8989400
  19.9515293  41.9931099  24.5551558  19.3713963  42.6515903  24.1729610
  19.6851226  41.1708444  24.1438975  18.4018860  41.3936157  26.7572878
  18.9018638  41.5052692  25.9487197  19.0454468  41.0897210  27.3973686
  12.4600856  49.3014787  39.6440719  11.9767937  50.1015147  39.8504608
  12.5461795  49.3122732  38.6908163   5.7286815  51.1343166  27.5662538
   5.7057503  51.2330854  26.6144421   6.0387452  51.9808317  27.8879704
   8.3874193  53.1919321  31.6809153   9.3417447  53.1603264  31.6139084
   8.1886717  52.7309945  32.4959379   8.9773575  51.7620437  34.2479950
   9.7966464  52.2564516  34.2714788   9.2510383  50.8452406  34.2197518
  18.7340172  44.1531190  23.6107906  17.8466027  44.4380840  23.3928101
  19.1494161  43.9924953  22.7635183   6.7424422  58.7338941  28.6979351
   6.6078890  57.9739342  28.1317349   6.3256484  59.4579841  28.2308140
  17.8783385  53.9175864  17.7055926  18.5819235  54.1225867  18.3213582
  17.1546034  54.4852626  17.9705009   9.8993548  59.6308258  28.9097793
   9.7825932  60.5753690  28.8076484   9.0785994  59.3281819  29.2983592
  19.7870082  54.3558394  19.7554386  20.6215686  53.9239592  19.5731861
  19.6254425  54.1840407  20.6831280  19.4415975  50.8590507  21.1210725
  19.3864778  50.6934778  20.1799169  18.8162030  51.5666540  21.2772915
   4.2308490  46.0958571  34.9472147   4.8767353  45.5857525  35.4359373
   4.0225641  46.8327253  35.5215573  16.7561882  53.1639419  40.4464288
  17.6253041  53.3380071  40.0850923  16.2768633  53.9833836  40.3240017
  12.7512100  40.3598616  20.6996044  12.7390770  41.3040456  20.8564315
  13.6435522  40.1768761  20.4055505  10.9248062  60.2836520  32.1253722
  11.8275309  60.3160130  32.4420217  10.6985432  59.3536971  32.1400058
  12.6801664  59.0367506  28.7863800  11.7297295  59.0369368  28.6728173
  12.9834150  58.2900241  28.2699835  16.5664219  36.9541393  24.9541980
  15.7996615  36.3999879  25.0998663  16.9774924  37.0263261  25.8156132
   8.5705981  43.2426188  39.0447162   9.4337442  42.8862993  39.2550486
   7.9971391  42.9040083  39.7322566  28.4154357  64.8728045  29.8509563
  29.0532767  64.7534792  29.1472903  28.2975200  65.8208889  29.9097515
  25.2244064  64.8255473  29.7871087  24.8862575  64.7096538  28.8991622
  26.0933832  64.4246638  29.7672094  21.0830879  66.6790949  25.7767978
  20.5195745  66.5880886  25.0084266  20.9683275  65.8590854  26.2570471
  25.7063847  65.9790325  35.7457293  25.6952488  65.5843123  34.8737797
  25.8684486  65.2456397  36.3391064  18.6295311  68.1742141  28.6152199
  19.4216603  67.8332965  28.1998498  18.8691962  68.2837116  29.5354352
  26.6630438  70.3461917  21.0882443  26.0118418  70.9315997  20.7016457
  27.4574801  70.8768112  21.1477481  20.5886065  67.4351054  21.4869578
  21.3616941  66.8880041  21.3482453  20.9411464  68.2995303  21.6984039
  22.4271108  68.7627436  34.6936477  22.1360974  69.6673067  34.5783143
  23.0628092  68.8043964  35.4080546  23.3527315  66.1404285  31.2837837
  23.9490887  65.9160307  30.5694800  23.4102286  65.3989030  31.8863284
  22.9252343  63.5943720  19.1188028  23.1777864  63.0725241  18.3571491
  21.9876902  63.4309866  19.2214711  27.9695626  62.5979499  26.9262771
  28.7558715  62.1798922  26.5753188  28.2334330  63.5025591  27.0944419
  28.1405703  68.0352349  21.6251428  27.5051536  68.1086975  22.3372332
  27.8103110  68.6245948  20.9470507  33.3704053  62.5354732  27.8295749
  34.1029225  61.9653949  28.0633579  32.6143409  62.1476332  28.2702255
  22.6448632  65.4971826  21.3212403  22.5284890  64.8216730  21.9893487
  22.7550892  65.0104200  20.5044556  24.9880173  64.9581973  25.0259092
  24.6238380  64.4312594  25.7372013  25.8447289  64.5680442  24.8525577
  30.8929473  56.2476306  32.2890358  30.5612798  57.1171717  32.0651573
  30.2975087  55.9312590  32.9684388  24.6285660  59.9871873  20.0220440
  24.7960062  60.8552109  20.3890911  24.4382829  60.1499155  19.0981730
  27.3860993  68.4488852  31.6886271  27.0861716  69.3513891  31.5802078
  27.0412052  68.1821035  32.5407424  20.8373474  64.9002649  27.7222975
  19.9123971  64.7678863  27.9300667  21.0857888  65.6796868  28.2192917
  30.7858137  60.9671392  29.3683708  29.8775014  60.8986800  29.0742469
  30.7345733  61.4443337  30.1965533  24.6074881  62.4429530  21.0067107
  24.4874506  62.8886581  21.8452587  23.9127469  62.7914848  20.4480645
  18.1982285  64.5435922  28.5566764  18.3274667  64.7970401  29.4706176
  17.5179737  65.1363630  28.2371419  22.3681773  75.2133172  24.6557238
  22.2905802  76.1640997  24.7345719  21.7643416  74.8679045  25.3132165
  24.8599003  62.3861038  37.3118605  24.0832337  62.9454958  37.3021470
  25.4989566  62.8717821  37.8333475  32.6519783  59.1687830  31.1461582
  32.0094163  59.4620364  30.5001376  32.1474712  59.0540751  31.9514779
  30.3059947  62.9151004  21.8347441  31.2177803  63.1478390  21.6595139
  29.7969594  63.4988048  21.2722520  23.1145375  65.1946491  36.8736572
  23.8560059  65.7331535  36.5971396  22.4082360  65.8212780  37.0308124
  28.5900714  67.3375631  35.4708734  28.9984071  66.8958042  34.7263366
  27.8677976  66.7628259  35.7242927  24.9431785  62.2748238  32.8442291
  25.7892980  62.6987652  32.9876940  24.8830422  61.6181863  33.5380854
  28.9129529  67.8976822  29.2261023  28.2838392  68.0622536  28.5237090
  28.5255191  68.3118432  29.9971987  32.7918761  68.8331260  26.5805386
  32.1069799  69.2130161  26.0302420  32.8762610  69.4426587  27.3137334
  28.0931230  59.9352607  34.5023464  27.8492162  60.6894667  33.9657740
  28.3691160  60.3137954  35.3370711  30.0469693  66.4791219  33.1800730
  30.2586588  67.1222979  32.5035111  29.9999441  65.6453536  32.7122660
  27.6495922  59.0909040  30.0837302  26.7880401  59.3890293  30.3754040
  27.6758356  59.3079439  29.1518335  24.4657491  67.6351230  26.4911108
  24.9295837  67.9138933  25.7015730  24.2014289  66.7334675  26.3084198
  21.3581572  67.1822712  29.4290871  21.9282929  67.6109980  28.7908355
  21.9489684  66.9005296  30.1275057  23.4026377  63.7574383  23.3000673
  24.1050420  64.2095426  23.7674599  23.0707006  63.1158201  23.9280566
  21.8506739  62.3486139  37.6751882  21.2205399  63.0302420  37.9087279
  21.7442826  62.2369221  36.7305020  17.1451711  62.0157935  28.6017806
  16.3550765  62.2715464  28.1257917  17.6362958  62.8306273  28.7069847
  31.1615521  69.3563174  31.3523087  31.9832964  68.9543362  31.0705769
  31.1577923  69.2531409  32.3039203  19.0966456  62.3802514  25.5601283
  18.2997620  62.4921209  26.0784779  18.8692049  62.7189167  24.6942174
  24.9272124  68.9047218  33.5083798  24.9916557  69.3667625  34.3441970
  24.2183048  68.2744583  33.6366108  15.4289414  62.2688426  31.0332797
  15.6797452  63.1535436  31.2990373  15.9648962  62.0893027  30.2607889
  39.2521514  65.7001923  27.7008059  38.4985222  65.1309321  27.5452063
  39.3869055  65.6664587  28.6478693  24.6420142  70.5715325  23.3762778
  24.5065816  71.4166861  23.8047626  25.1829954  70.7734603  22.6128712
  21.1287481  56.6506905  40.0377133  20.7354427  56.0973104  40.7124777
  21.9453622  56.9617483  40.4283651  18.0949539  68.0890763  23.9490703
  18.6074060  68.8834013  24.0996268  18.7472252  67.3917054  23.8824305
  19.9044424  71.2056519  26.0313456  20.0811052  72.1274484  25.8434440
  20.7001257  70.8914939  26.4607836  24.0455442  58.0664784  37.6297390
  24.7865156  58.6671937  37.5501852  24.2773365  57.3242422  37.0715432
  19.1896780  63.2521151  35.9075620  19.0750295  62.3506409  36.2082718
  18.3341298  63.4984848  35.5560436  26.2688618  71.1938892  37.5063120
  25.8252472  70.4075270  37.1884025  26.9305832  71.3818042  36.8407011
  21.0275739  72.7234693  32.0323799  21.5783164  72.5951757  31.2600793
  20.1887215  73.0229582  31.6818691  28.3669856  71.4741692  35.5344521
  28.3488331  72.2950573  35.0424791  29.2889776  71.3495767  35.7594663
  24.8242910  68.9885821  36.3768030  25.3571247  68.2274109  36.1467338
  24.2956991  68.6959473  37.1192184  16.0598456  66.4179418  24.7250274
  16.8973678  66.8276426  24.5083981  16.2376724  65.4778860  24.6950468
  27.9562888  64.0854498  20.4134107  27.4409511  64.8559103  20.6522494
  27.6840196  63.4119634  21.0367168  25.5409999  58.9304199  25.4719345
  24.6851595  58.5411049  25.2924984  25.9536951  59.0096160  24.6119131
  27.0709146  56.4650542  29.8710905  26.5673941  56.4280677  29.0578710
  27.3639753  57.3743285  29.9307561  32.9297162  66.8386853  22.3487280
  32.1526605  66.4998012  21.9042442  33.6088643  66.8439476  21.6742245
  27.7449191  61.9581590  22.2393888  27.4399327  62.2727739  23.0904031
  28.6979633  62.0363010  22.2821221  26.1895623  68.1171814  23.8886842
  25.6616985  67.3824573  23.5760079  25.6883126  68.8946490  23.6426810
  31.1688469  66.3120834  29.0053888  30.5112143  67.0020095  29.0934017
  31.9728868  66.7017266  29.3487874  20.9214351  58.7791480  26.2493453
  21.4958103  58.5566661  25.5166646  21.5085333  58.8480174  27.0022055
  29.9793928  64.6665207  27.0557830  30.4925810  65.2995199  27.5579540
  30.6295152  64.0666402  26.6901190  21.2483938  60.8095941  20.2689339
  20.4121250  61.1470627  20.5898613  21.1088707  60.6744921  19.3316476
  24.3348223  65.9352024  16.8921815  23.4275285  65.7041277  17.0912964
  24.8319255  65.1389643  17.0795796  27.2416302  74.6449531  19.8118501
  26.5678001  74.9481228  20.4203459  27.6282124  75.4478611  19.4623958
  26.4574759  62.1414662  29.3016170  25.5397320  62.3629609  29.1437858
  26.8734902  62.2160973  28.4427878  27.2409806  63.5406078  24.4318851
  27.9881625  64.0527475  24.1225973  27.5101396  63.2190131  25.2923244
  25.5136457  66.0364619  21.4145805  24.6047676  65.7523652  21.5118275
  25.5431540  66.4563697  20.5549112  30.7455724  69.6471208  25.1836972
  30.2918051  68.8062118  25.2402163  30.1149691  70.2832607  25.5211753
  29.6888644  60.5763194  26.4137640  28.9511400  60.0640580  26.7447882
  29.9415417  60.1363576  25.6020917  29.1888663  71.4847705  26.1186791
  29.4811638  72.0452762  25.3999156  29.6987284  71.7776266  26.8739950
  29.7900271  53.3539446  27.0079409  30.0959148  52.4936810  26.7205324
  30.5152876  53.9457066  26.8078403  16.0824627  63.7570133  25.3961007
  15.8849027  63.1639494  24.6712074  15.5271291  63.4522343  26.1136946
  24.0621351  63.6493239  27.5155600  24.1169960  62.6967076  27.4398077
  23.2512553  63.8052678  27.9996899  25.2112544  67.5773362  18.7533883
  24.7731974  66.8609221  18.2939521  25.9522985  67.8049477  18.1918975
  22.0013711  62.2670299  25.2745979  21.1881576  62.5664470  25.6811171
  22.4972705  61.8725988  25.9920461  24.1522288  72.2628056  27.2080244
  24.1098467  72.4888902  26.2788776  25.0684987  72.0291431  27.3566045
  27.5987922  62.7312124  34.1060873  27.9537310  62.9583597  34.9655339
  28.2460053  63.0630500  33.4838128  33.3285659  65.8530559  24.8110202
  33.1903558  66.0432155  23.8831391  32.9721878  66.6149942  25.2678253
  21.4927785  59.8388655  30.8907214  22.1327165  59.6977414  30.1930177
  20.6605316  59.5523168  30.5145816  33.3555039  67.9207086  29.8221474
  33.7891545  67.8282376  30.6704528  34.0686620  67.8964587  29.1841490
  22.2688089  69.1391085  27.0042207  23.0628688  68.6441405  26.8024781
  21.5579782  68.6108948  26.6409912  27.0882934  71.5209181  31.3554574
  27.1419956  72.0900117  32.1232290  26.2197715  71.6911066  30.9908611
  18.5770853  63.2834167  23.0801959  17.6468441  63.2218622  23.2971921
  18.6728325  62.7610119  22.2838600  18.4956402  59.8088980  25.6680201
  18.7563219  60.7234313  25.5589361  19.3173574  59.3413422  25.8176814
  19.9681327  61.2226737  32.8379025  20.6404381  61.0144099  32.1891674
  19.1411114  61.0248823  32.3984258  34.2170588  67.9630787  32.3554359
  34.4106478  68.8676598  32.6013634  34.1171207  67.5038206  33.1892944
  25.8706899  57.8488678  34.8544686  25.2234814  58.5478627  34.7609163
  26.6407915  58.2824822  35.2220934  29.2785697  68.1137530  37.9295240
  29.1271203  67.8848082  37.0125323  29.2690377  69.0708131  37.9426585
  26.0471033  65.6869443  32.9141506  26.9763093  65.8380602  32.7410473
  25.6262063  65.7753463  32.0590153  24.8459365  69.7120107  30.6840044
  24.7070451  69.3438891  31.5565982  24.0573961  70.2267746  30.5124001
  25.4407517  74.8129203  22.0265580  25.6159273  74.3417247  22.8411203
  24.7540305  75.4394970  22.2546841  26.3964580  69.0901710  28.0728881
  26.0614413  69.0502480  28.9686531  25.8968526  68.4246426  27.5999292
  20.3708824  64.4969340  33.5981463  20.2328622  63.7649579  34.1993002
  21.2813748  64.4078240  33.3165650  29.3323772  66.4357744  18.3465941
  28.7152943  65.7104572  18.2498994  28.8640260  67.1967104  18.0033015
  22.9991125  64.2089299  33.0865142  23.7090744  63.5682491  33.0451761
  22.9560433  64.4602194  34.0091323  30.9877904  71.1456652  36.0071721
  30.9290450  70.4615873  35.3402304  31.3897422  71.8875642  35.5552347
  21.7120059  61.1954517  34.9060782  21.1757416  60.7445255  35.5582378
  21.1236767  61.3300426  34.1631246  21.1222318  60.6543168  17.4687245
  20.2451784  60.5331969  17.1049492  21.5980071  59.8629247  17.2166134
  30.9895311  69.1096236  34.2385701  30.1022090  68.7722158  34.3612100
  31.5593862  68.3779268  34.4754466  12.6424458  65.4420328  27.5628752
  13.3295498  65.1282058  26.9749768  12.4872587  66.3461693  27.2896004
  17.4459180  60.3310525  31.9913776  17.3617369  59.7236194  31.2564186
  16.6241887  60.8219543  31.9923273  24.5196464  73.7697689  31.2046944
  24.4466636  74.5752660  31.7166249  24.0773857  73.9689654  30.3794966
  24.3086244  73.0069459  24.7149766  23.5253766  73.5491139  24.8087990
  25.0078989  73.5243438  25.1144007  27.6182894  58.8164088  27.3583971
  28.1151594  58.0634050  27.0385041  26.8469876  58.8528405  26.7927181
  35.4712652  64.5204454  29.0002263  35.4602528  65.4029169  28.6296196
  34.6030031  64.1676005  28.8056800  26.9795148  73.6684523  33.3605103
  27.6923120  74.3031988  33.2881004  26.4885177  73.7648389  32.5445105
  28.7012675  67.5735775  24.9322395  27.7668954  67.6937238  24.7627099
  28.8789343  66.6708242  24.6682404  24.2017863  60.9581471  27.0855656
  23.8315650  60.4052512  27.7736561  24.6976955  60.3539605  26.5330656
  32.0885226  63.4153095  25.4672429  32.5545678  64.2481086  25.3932731
  32.5392727  62.9498076  26.1717687  22.0307061  71.4178966  34.1810674
  22.7316521  72.0515449  34.3340068  21.5602176  71.7593698  33.4206313
  30.1561457  69.7596916  22.4658581  30.4321301  69.6453511  23.3752455
  29.2865956  69.3614401  22.4270754  30.0601889  55.7833682  29.5063330
  29.1464969  56.0137908  29.6745537  30.4894990  55.8672126  30.3577362
  29.8308347  63.9723574  32.0063224  29.1779798  64.2199481  31.3515677
  30.2088727  63.1587712  31.6725701  26.7915521  74.0083267  26.1091394
  26.9737916  73.1904923  26.5719147  27.6148507  74.2250959  25.6716284
  27.1257687  72.9351452  23.3706443  27.6545453  72.4243906  22.7576605
  27.3885906  72.6193982  24.2351976  25.8795920  64.7143385  38.4929261
  25.2036557  64.6137514  39.1631636  26.7023554  64.5582598  38.9565258
  17.6274779  70.9515321  31.1141776  18.2128216  70.2059009  31.2469681
  17.4299618  71.2619278  31.9978440  20.4813435  73.9866569  26.1304219
  19.8123810  74.4712696  25.6468259  20.3426304  74.2335789  27.0447597
  12.2192434  63.5220921  29.8346220  12.2576534  62.9884512  30.6283338
  11.7132727  62.9956127  29.2157197  24.6218703  76.0210312  32.7286877
  25.1737011  76.1841934  33.4935962  24.9624897  76.6114750  32.0566902
  19.5983197  58.3685462  33.3308762  19.6624523  59.2300293  32.9186160
  19.5350317  57.7559464  32.5981120  19.0735469  60.4408594  36.9781796
  19.7007508  60.0585672  37.5919320  18.2163388  60.2222796  37.3437489
  29.4729578  70.8471570  38.5835532  30.0169482  71.4601528  38.0890486
  28.8916422  71.4051148  39.1002545  15.8501012  62.2485024  22.9100151
  16.1454453  61.3395702  22.8567205  14.9489048  62.2272763  22.5881153
  27.7587091  73.9692288  29.7150559  27.6338230  73.1682027  29.2061505
  28.4166182  74.4638481  29.2264529  19.3795259  60.3241020  28.8927700
  18.6581845  60.9376988  28.7535173  20.1688515  60.8598785  28.8144346
  29.8221999  71.7701308  31.3430109  28.8752334  71.6506659  31.2708436
  30.1704772  70.8823806  31.4256371  22.1821572  57.6595447  35.1668351
  22.7055974  57.9057743  35.9294661  21.9633906  58.4915481  34.7471489
  17.5788853  59.9299121  23.0339476  17.2501560  59.0496500  22.8514582
  17.9328224  59.8746790  23.9215865  26.8268432  71.5654024  27.5434462
  26.6793395  70.6370731  27.7242032  27.6521926  71.5874115  27.0591537
  20.6930677  60.2172091  23.4014954  21.0326749  60.7458012  22.6793562
  21.1402797  60.5552497  24.1773520  30.4302554  72.3882583  28.6299334
  31.3549102  72.1825444  28.4923786  30.2617857  72.1398984  29.5388676
  23.3874117  58.6009142  32.8518022  23.0470938  57.8016955  33.2538702
  22.6813124  58.9010853  32.2794855  22.6798824  58.7146713  21.6008247
  23.4007186  59.0927965  21.0971963  22.0564128  59.4335589  21.7043225
  26.8229947  59.4191862  22.5366579  27.0393561  60.3016499  22.2355407
  26.3424014  59.0278075  21.8072221  21.5629168  62.3777575  29.1137324
  21.4173749  62.6917878  30.0061605  21.0854372  62.9962475  28.5608222
  25.2751682  59.8017463  31.2071341  25.0169459  60.7234534  31.2055671
  24.7436722  59.4047898  31.8971805  30.2197870  72.9068250  23.9861426
  30.3934748  72.3414673  23.2335278  30.7126762  73.7069145  23.8040916
  16.0374830  64.9182919  32.0524985  15.4928298  65.6942727  32.1845259
  16.9154180  65.2653724  31.8944106  22.8262447  58.2494503  24.4305783
  22.9478358  57.3211149  24.6296671  22.5364489  58.2633189  23.5184099
  36.0737261  65.6704673  25.6051726  36.5168408  64.9211998  25.2070849
  35.1963772  65.6614809  25.2225458  31.2073043  72.2235015  21.0858324
  31.9023947  72.8441707  21.3045639  31.5496193  71.3730366  21.3610702
  16.8240852  64.0452815  34.9455142  16.0822588  64.1935451  35.5319772
  16.5033596  64.3061081  34.0821891  33.1064466  69.6734720  22.6145655
  33.6315790  70.0121993  21.8894975  33.0186818  68.7381735  22.4308790
  24.7684515  73.5868794  34.7435532  25.0771641  73.3417940  35.6158231
  25.5659997  73.7915432  34.2554402  24.7905127  75.7406703  26.9740908
  24.3510117  75.2483082  27.6673765  25.5413244  75.1979671  26.7332983
  17.2697466  71.9318244  26.9765536  18.0955486  71.6322016  26.5964180
  16.9191518  71.1625867  27.4255325  22.2378999  71.2844712  29.0463210
  21.6159008  70.6215417  28.7465438  22.9083866  71.3105844  28.3636858
  15.4706071  69.8504571  27.9354470  14.6337979  69.4226745  27.7538471
  15.4429716  70.0437014  28.8725261  22.3103526  59.7626500  38.6395716
  22.3591682  60.6388623  38.2573485  22.8526041  59.2203893  38.0667359
  32.7958372  70.3067624  37.9196853  32.0053916  70.2891763  37.3801352
  32.5591727  70.8455917  38.6745889  32.9156247  67.1560090  35.2329581
  32.9654252  66.9910098  36.1745104  32.8070170  66.2887349  34.8427462
  21.7992506  69.8348636  22.5221670  21.9480626  70.5184100  21.8688343
  22.6058949  69.8153726  23.0371126  30.2060009  63.1391018  36.5488888
  31.1069872  62.9997483  36.2572886  30.2807984  63.3045473  37.4887066
  24.5402815  60.5157873  35.3942074  23.6706124  60.8091439  35.1224663
  24.7762295  61.0998318  36.1149338  34.4174444  69.5757032  35.4771603
  34.1259252  69.9387012  36.3135064  33.8046575  68.8624040  35.2984935
  35.6170126  67.1409911  27.9974173  36.4517018  67.5799715  28.1611734
  35.7529255  66.6648565  27.1782419  32.6661632  64.6989646  33.9451661
  33.1415754  64.8917293  33.1370512  31.7427197  64.7548832  33.6995045
  19.5545139  65.8613813  23.5282739  19.3091181  64.9576143  23.7262949
  19.7241053  65.8630964  22.5862217  27.2441849  56.7337490  32.9107495
  27.7623792  57.4698517  32.5853983  26.8896981  57.0401483  33.7454254
  18.8240786  61.5942171  21.0268901  18.1310031  61.6686526  20.3708937
  18.5792538  60.8302515  21.5490418  27.4954443  53.1537772  28.4308391
  27.7756197  52.4860961  29.0568818  28.2805050  53.3466868  27.9183055
  25.2987911  72.3296766  19.9933418  24.7261878  72.9486953  19.5403890
  25.8720705  72.8796128  20.5273340  31.3663301  61.5755406  32.1779967
  32.3180724  61.6753504  32.1992191  31.1966752  60.7833675  32.6878051
  29.3877681  58.6610990  32.3639367  28.7927613  58.9416002  31.6685856
  29.1027377  59.1504890  33.1356109  28.5185171  72.6133916  21.1242000
  29.4515844  72.5479478  21.3274876  28.4308384  73.4490183  20.6656533
  31.1473188  71.9299787  18.0845948  31.0686819  71.5959650  18.9781706
  31.9682854  72.4221555  18.0837420  33.8451379  64.7961526  31.2922266
  33.8127699  63.8577527  31.4781950  34.4552003  64.8745563  30.5588091
  25.6834710  63.6657579  17.3349470  26.6293814  63.5363787  17.4037888
  25.3048955  62.9272241  17.8118898  33.9945867  61.5872569  31.3380549
  33.4784916  60.8031026  31.1510478  34.8785816  61.2591286  31.5027069
  31.6556594  55.3313585  27.2976362  31.4581415  55.0228673  28.1819694
  32.2656300  56.0575224  27.4274292  39.6627929  65.8577533  30.4328303
  40.3931317  65.5962821  30.9936006  39.0534874  65.1206255  30.4730371
  37.7443226  63.9985395  31.0302754  37.0176389  63.8641360  30.4219246
  37.3290513  64.3062224  31.8359472  25.5673402  67.7175325  38.7950127
  26.4876412  67.8953924  38.9890174  25.5322985  66.7731370  38.6429827
  23.8677627  61.5907555  17.2704355  22.9609082  61.2940668  17.3467069
  24.1453608  61.2937373  16.4038642  14.7855567  62.9113919  27.7203402
  14.4658352  62.0579227  27.4277776  14.2388995  63.1262497  28.4761369
  18.5635475  65.6276360  31.4372908  18.7821485  66.5593468  31.4560942
  18.9761249  65.2684334  32.2227712  25.4839693  56.1344445  23.4248597
  24.6740421  55.7891530  23.8003843  26.1724110  55.8251989  24.0136208
  27.4130241  55.2122492  25.0472893  27.9661280  55.6317945  25.7062917
  27.6500327  54.2858240  25.0895849  23.4363340  61.2009566  40.8275657
  23.3360067  62.1503922  40.7587748  23.2184882  60.8727804  39.9551727
  22.6376412  58.4494491  17.4116335  23.4995576  58.7749389  17.6712152
  22.8226756  57.6625986  16.8989400  14.6543827  66.5316830  29.6896523
  13.9607299  66.1170783  29.1766478  15.4016818  66.5737367  29.0929942
  30.7909048  57.3223017  24.5551558  30.2107717  57.9807821  24.1729610
  30.5244981  56.5000362  24.1438975  29.2412614  56.7228075  26.7572878
  29.7412393  56.8344609  25.9487197  29.8848222  56.4189128  27.3973686
  23.2994610  64.6306704  39.6440719  22.8161692  65.4307064  39.8504608
  23.3855549  64.6414649  38.6908163  16.5680570  66.4635084  27.5662538
  16.5451258  66.5622771  26.6144421  16.8781206  67.3100235  27.8879704
  19.2267948  68.5211239  31.6809153  20.1811201  68.4895181  31.6139084
  19.0280471  68.0601863  32.4959379  19.8167330  67.0912355  34.2479950
  20.6360219  67.5856434  34.2714788  20.0904138  66.1744323  34.2197518
  29.5733926  59.4823107  23.6107906  28.6859781  59.7672758  23.3928101
  29.9887915  59.3216871  22.7635183  32.9248462  59.5069628  27.3262245
  33.7008852  59.9966081  27.5986862  32.1996596  59.9327683  27.7834115
  35.3621021  60.2197248  28.3836186  35.9565512  59.9792984  27.6729494
  35.4347604  59.5004378  29.0109722  17.5818176  74.0630859  28.6979351
  17.4472644  73.3031259  28.1317349  17.1650239  74.7871758  28.2308140
  28.7177139  69.2467782  17.7055926  29.4212990  69.4517785  18.3213582
  27.9939788  69.8144544  17.9705009  29.5474950  64.9977643  23.8258196
  29.4910151  65.4546195  22.9865829  30.1003292  64.2368328  23.6481039
  33.3579756  60.7867375  24.6508316  33.1016690  60.3864011  25.4816523
  32.7332624  61.5011169  24.5258455  37.6692094  63.5263448  27.1579607
  37.1091652  63.5956638  27.9311169  37.0635597  63.3504433  26.4379103
  20.7387302  74.9600176  28.9097793  20.6219686  75.9045608  28.8076484
  19.9179749  74.6573737  29.2983592  30.6263837  69.6850311  19.7554386
  31.4609441  69.2531510  19.5731861  30.4648180  69.5132325  20.6831280
  30.2809729  66.1882425  21.1210725  30.2258533  66.0226696  20.1799169
  29.6555784  66.8958457  21.2772915  15.0702244  61.4250489  34.9472147
  15.7161108  60.9149443  35.4359373  14.8619395  62.1619171  35.5215573
  27.5955636  68.4931336  40.4464288  28.4646796  68.6671989  40.0850923
  27.1162388  69.3125753  40.3240017  23.5905855  55.6890534  20.6996044
  23.5784524  56.6332374  20.8564315  24.4829276  55.5060679  20.4055505
  21.7641816  75.6128437  32.1253722  22.6669063  75.6452048  32.4420217
  21.5379187  74.6828888  32.1400058  23.5195418  74.3659424  28.7863800
  22.5691049  74.3661286  28.6728173  23.8227905  73.6192159  28.2699835
  27.4057974  52.2833310  24.9541980  26.6390370  51.7291797  25.0998663
  27.8168679  52.3555179  25.8156132  19.4099735  58.5718106  39.0447162
  20.2731197  58.2154911  39.2550486  18.8365146  58.2332001  39.7322566
  39.2548112  80.2019962  29.8509563  39.8926522  80.0826710  29.1472903
  39.1368955  81.1500806  29.9097515  36.0637818  80.1547391  29.7871087
  35.7256330  80.0388455  28.8991622  36.9327586  79.7538556  29.7672094
  31.9224634  82.0082867  25.7767978  31.3589499  81.9172804  25.0084266
  31.8077029  81.1882771  26.2570471  36.5457601  81.3082242  35.7457293
  36.5346242  80.9135040  34.8737797  36.7078241  80.5748315  36.3391064
  34.1921069  81.4696203  31.2837837  34.7884641  81.2452225  30.5694800
  34.2496041  80.7280948  31.8863284  33.7646098  78.9235638  19.1188028
  34.0171618  78.4017159  18.3571491  32.8270657  78.7601783  19.2214711
  38.8089380  77.9271416  26.9262771  39.5952470  77.5090839  26.5753188
  39.0728085  78.8317508  27.0944419  38.9799458  83.3644267  21.6251428
  38.3445291  83.4378893  22.3372332  38.6496864  83.9537865  20.9470507
  44.2097808  77.8646649  27.8295749  44.9422980  77.2945866  28.0633579
  43.4537163  77.4768250  28.2702255  33.4842386  80.8263744  21.3212403
  33.3678644  80.1508647  21.9893487  33.5944646  80.3396118  20.5044556
  35.8273927  80.2873891  25.0259092  35.4632135  79.7604512  25.7372013
  36.6841043  79.8972360  24.8525577  41.7323228  71.5768224  32.2890358
  41.4006553  72.4463635  32.0651573  41.1368841  71.2604508  32.9684388
  35.4679414  75.3163791  20.0220440  35.6353817  76.1844027  20.3890911
  35.2776583  75.4791072  19.0981730  38.2254747  83.7780770  31.6886271
  37.9255471  84.6805808  31.5802078  37.8805807  83.5112953  32.5407424
  31.6767229  80.2294566  27.7222975  30.7517725  80.0970780  27.9300667
  31.9251642  81.0088786  28.2192917  41.6251891  76.2963310  29.3683708
  40.7168769  76.2278718  29.0742469  41.5739487  76.7735255  30.1965533
  35.4468635  77.7721448  21.0067107  35.3268260  78.2178499  21.8452587
  34.7521224  78.1206766  20.4480645  29.0376040  79.8727840  28.5566764
  29.1668421  80.1262319  29.4706176  28.3573491  80.4655548  28.2371419
  35.6992757  77.7152955  37.3118605  34.9226091  78.2746875  37.3021470
  36.3383320  78.2009738  37.8333475  43.4913538  74.4979748  31.1461582
  42.8487918  74.7912281  30.5001376  42.9868466  74.3832668  31.9514779
  41.1453701  78.2442921  21.8347441  42.0571557  78.4770308  21.6595139
  40.6363348  78.8279966  21.2722520  33.9539129  80.5238409  36.8736572
  34.6953814  81.0623453  36.5971396  33.2476115  81.1504697  37.0308124
  39.4294469  82.6667549  35.4708734  39.8377825  82.2249960  34.7263366
  38.7071730  82.0920177  35.7242927  35.7825539  77.6040156  32.8442291
  36.6286734  78.0279569  32.9876940  35.7224177  76.9473780  33.5380854
  39.7523284  83.2268740  29.2261023  39.1232146  83.3914454  28.5237090
  39.3648946  83.6410349  29.9971987  43.6312516  84.1623178  26.5805386
  42.9463554  84.5422079  26.0302420  43.7156365  84.7718504  27.3137334
  38.9324984  75.2644524  34.5023464  38.6885916  76.0186585  33.9657740
  39.2084915  75.6429872  35.3370711  40.8863447  81.8083137  33.1800730
  41.0980342  82.4514897  32.5035111  40.8393195  80.9745453  32.7122660
  38.4889676  74.4200957  30.0837302  37.6274155  74.7182211  30.3754040
  38.5152111  74.6371356  29.1518335  35.3051246  82.9643148  26.4911108
  35.7689591  83.2430851  25.7015730  35.0408044  82.0626592  26.3084198
  34.2420132  79.0866300  23.3000673  34.9444175  79.5387344  23.7674599
  33.9100760  78.4450119  23.9280566  32.6900493  77.6778057  37.6751882
  32.0599154  78.3594338  37.9087279  32.5836581  77.5661138  36.7305020
  27.9845466  77.3449853  28.6017806  27.1944520  77.6007381  28.1257917
  28.4756713  78.1598191  28.7069847  42.0009275  84.6855092  31.3523087
  42.8226719  84.2835279  31.0705769  41.9971678  84.5823326  32.3039203
  29.9360211  77.7094432  25.5601283  29.1391374  77.8213126  26.0784779
  29.7085803  78.0481084  24.6942174  26.2683169  77.5980343  31.0332797
  26.5191207  78.4827353  31.2990373  26.8042717  77.4184945  30.2607889
  50.0915268  81.0293841  27.7008059  49.3378977  80.4601239  27.5452063
  50.2262809  80.9956505  28.6478693  31.9681236  71.9798823  40.0377133
  31.5748181  71.4265021  40.7124777  32.7847376  72.2909401  40.4283651
  34.8849197  73.3956702  37.6297390  35.6258910  73.9963855  37.5501852
  35.1167120  72.6534340  37.0715432  30.0290535  78.5813069  35.9075620
  29.9144050  77.6798326  36.2082718  29.1735053  78.8276766  35.5560436
  38.8306360  69.4237805  31.9061672  38.4870629  70.3139446  31.8300782
  39.1985322  69.2339462  31.0431257  38.7956642  79.4146416  20.4134107
  38.2803266  80.1851020  20.6522494  38.5233951  78.7411552  21.0367168
  36.3803754  74.2596117  25.4719345  35.5245350  73.8702967  25.2924984
  36.7930705  74.3388077  24.6119131  37.9102900  71.7942460  29.8710905
  37.4067696  71.7572595  29.0578710  38.2033507  72.7035203  29.9307561
  34.1545786  71.8781190  28.8777086  35.0198783  71.6823998  28.5182976
  34.2223295  71.6491541  29.8046443  43.7690917  82.1678770  22.3487280
  42.9920359  81.8289930  21.9042442  44.4482398  82.1731394  21.6742245
  38.5842946  77.2873508  22.2393888  38.2793081  77.6019657  23.0904031
  39.5373388  77.3654928  22.2821221  42.0082224  81.6412752  29.0053888
  41.3505898  82.3312013  29.0934017  42.8122623  82.0309184  29.3487874
  31.7608105  74.1083398  26.2493453  32.3351857  73.8858579  25.5166646
  32.3479088  74.1772092  27.0022055  40.8187682  79.9957124  27.0557830
  41.3319564  80.6287116  27.5579540  41.4688906  79.3958320  26.6901190
  32.0877692  76.1387859  20.2689339  31.2515004  76.4762545  20.5898613
  31.9482462  76.0036838  19.3316476  34.0630773  70.9824646  24.9768523
  33.4095185  70.6673664  24.3525138  34.0211247  70.3600387  25.7028346
  35.1741978  81.2643942  16.8921815  34.2669039  81.0333195  17.0912964
  35.6713010  80.4681561  17.0795796  37.2968513  77.4706580  29.3016170
  36.3791075  77.6921527  29.1437858  37.7128657  77.5452890  28.4427878
  38.0803561  78.8697996  24.4318851  38.8275380  79.3819393  24.1225973
  38.3495150  78.5482048  25.2923244  36.3530211  81.3656536  21.4145805
  35.4441430  81.0815569  21.5118275  36.3825295  81.7855615  20.5549112
  41.5849479  84.9763126  25.1836972  41.1311806  84.1354036  25.2402163
  40.9543445  85.6124524  25.5211753  40.5282398  75.9055112  26.4137640
  39.7905155  75.3932498  26.7447882  40.7809172  75.4655494  25.6020917
  40.6294025  68.6831364  27.0079409  40.9352902  67.8228727  26.7205324
  41.3546630  69.2748984  26.8078403  26.9218381  79.0862051  25.3961007
  26.7242781  78.4931411  24.6712074  26.3665045  78.7814261  26.1136946
  34.9015105  78.9785157  27.5155600  34.9563715  78.0258993  27.4398077
  34.0906307  79.1344596  27.9996899  36.0506299  82.9065280  18.7533883
  35.6125729  82.1901139  18.2939521  36.7916740  83.1341395  18.1918975
  32.8407465  77.5962217  25.2745979  32.0275331  77.8956387  25.6811171
  33.3366459  77.2017905  25.9920461  38.4381677  78.0604041  34.1060873
  38.7931064  78.2875514  34.9655339  39.0853808  78.3922418  33.4838128
  44.1679414  81.1822477  24.8110202  44.0297312  81.3724073  23.8831391
  43.8115633  81.9441860  25.2678253  32.3321540  75.1680572  30.8907214
  32.9720919  75.0269331  30.1930177  31.4999070  74.8815086  30.5145816
  44.1948793  83.2499004  29.8221474  44.6285300  83.1574293  30.6704528
  44.9080374  83.2256505  29.1841490  29.4164607  78.6126084  23.0801959
  28.4862195  78.5510540  23.2971921  29.5122079  78.0902037  22.2838600
  29.3350156  75.1380897  25.6680201  29.5956974  76.0526230  25.5589361
  30.1567329  74.6705340  25.8176814  30.8075082  76.5518654  32.8379025
  31.4798135  76.3436017  32.1891674  29.9804868  76.3540740  32.3984258
  45.0564343  83.2922705  32.3554359  45.2500233  84.1968515  32.6013634
  44.9564961  82.8330124  33.1892944  36.7100654  73.1780595  34.8544686
  36.0628569  73.8770545  34.7609163  37.4801669  73.6116739  35.2220934
  40.1179452  83.4429447  37.9295240  39.9664958  83.2139999  37.0125323
  40.1084131  84.4000049  37.9426585  36.8864788  81.0161360  32.9141506
  37.8156848  81.1672520  32.7410473  36.4655818  81.1045381  32.0590153
  31.2102579  79.8261257  33.5981463  31.0722377  79.0941496  34.1993002
  32.1207502  79.7370157  33.3165650  40.1717527  81.7649662  18.3465941
  39.5546697  81.0396490  18.2498994  39.7034015  82.5259022  18.0033015
  33.8384880  79.5381217  33.0865142  34.5484498  78.8974409  33.0451761
  33.7954188  79.7894112  34.0091323  32.5513813  76.5246435  34.9060782
  32.0151171  76.0737173  35.5582378  31.9630522  76.6592343  34.1631246
  31.9616072  75.9835086  17.4687245  31.0845539  75.8623887  17.1049492
  32.4373826  75.1921164  17.2166134  41.8289065  84.4388154  34.2385701
  40.9415844  84.1014076  34.3612100  42.3987617  83.7071185  34.4754466
  28.2852935  75.6602442  31.9913776  28.2011123  75.0528112  31.2564186
  27.4635641  76.1511461  31.9923273  38.4576649  74.1456006  27.3583971
  38.9545348  73.3925968  27.0385041  37.6863630  74.1820322  26.7927181
  46.3106406  79.8496371  29.0002263  46.2996282  80.7321087  28.6296196
  45.4423785  79.4967922  28.8056800  39.5406429  82.9027693  24.9322395
  38.6062708  83.0229156  24.7627099  39.7183098  82.0000160  24.6682404
  35.0411617  76.2873389  27.0855656  34.6709405  75.7344429  27.7736561
  35.5370710  75.6831522  26.5330656  42.9278981  78.7445012  25.4672429
  43.3939433  79.5773004  25.3932731  43.3786481  78.2789994  26.1717687
  40.9955212  85.0888834  22.4658581  41.2715056  84.9745428  23.3752455
  40.1259710  84.6906318  22.4270754  40.8995643  71.1125599  29.5063330
  39.9858723  71.3429826  29.6745537  41.3288745  71.1964043  30.3577362
  40.6702102  79.3015491  32.0063224  40.0173552  79.5491399  31.3515677
  41.0482482  78.4879629  31.6725701  36.7189675  80.0435302  38.4929261
  36.0430312  79.9429432  39.1631636  37.5417309  79.8874516  38.9565258
  23.0586189  78.8512839  29.8346220  23.0970288  78.3176430  30.6283338
  22.5526482  78.3248045  29.2157197  30.4376951  73.6977380  33.3308762
  30.5018277  74.5592210  32.9186160  30.3744071  73.0851381  32.5981120
  29.9129224  75.7700512  36.9781796  30.5401262  75.3877589  37.5919320
  29.0557142  75.5514714  37.3437489  26.6894766  77.5776941  22.9100151
  26.9848207  76.6687620  22.8567205  25.7882802  77.5564681  22.5881153
  30.2189013  75.6532938  28.8927700  29.4975599  76.2668906  28.7535173
  31.0082269  76.1890703  28.8144346  33.0215327  72.9887364  35.1668351
  33.5449729  73.2349661  35.9294661  32.8027660  73.8207399  34.7471489
  28.4182608  75.2591039  23.0339476  28.0895314  74.3788418  22.8514582
  28.7721979  75.2038708  23.9215865  31.5324431  75.5464009  23.4014954
  31.8720504  76.0749930  22.6793562  31.9796551  75.8844415  24.1773520
  34.2267872  73.9301059  32.8518022  33.8864692  73.1308872  33.2538702
  33.5206878  74.2302770  32.2794855  34.8784344  71.0150372  31.3045345
  35.7010413  70.5410850  31.1824235  35.1222407  71.7940856  31.8044031
  33.5192578  74.0438630  21.6008247  34.2400941  74.4219883  21.0971963
  32.8957882  74.7627507  21.7043225  37.6623701  74.7483779  22.5366579
  37.8787315  75.6308417  22.2355407  37.1817768  74.3569993  21.8072221
  32.4022922  77.7069492  29.1137324  32.2567503  78.0209796  30.0061605
  31.9248126  78.3254393  28.5608222  34.2619305  74.6972040  29.1618213
  34.2480874  73.8013134  28.8250511  34.9791733  74.7042704  29.7956499
  36.1145436  75.1309381  31.2071341  35.8563214  76.0526451  31.2055671
  35.5830476  74.7339815  31.8971805  33.6656201  73.5786421  24.4305783
  33.7872112  72.6503067  24.6296671  33.3758244  73.5925107  23.5184099
  36.5347392  71.2641331  27.5672503  36.5569088  71.3280664  26.6124483
  36.9515451  70.4245840  27.7613009  46.9131016  80.9996591  25.6051726
  47.3562162  80.2503916  25.2070849  46.0357526  80.9906727  25.2225458
  27.6634606  79.3744733  34.9455142  26.9216342  79.5227369  35.5319772
  27.3427351  79.6352999  34.0821891  43.9458220  85.0026638  22.6145655
  44.4709544  85.3413910  21.8894975  43.8580573  84.0673653  22.4308790
  33.1497281  75.0918418  38.6395716  33.1985436  75.9680541  38.2573485
  33.6919795  74.5495811  38.0667359  43.6352126  85.6359541  37.9196853
  42.8447670  85.6183680  37.3801352  43.3985481  86.1747835  38.6745889
  43.7550002  82.4852008  35.2329581  43.8048006  82.3202015  36.1745104
  43.6463925  81.6179267  34.8427462  41.0453764  78.4682936  36.5488888
  41.9463627  78.3289401  36.2572886  41.1201738  78.6337391  37.4887066
  35.3796569  75.8449791  35.3942074  34.5099879  76.1383357  35.1224663
  35.6156050  76.4290236  36.1149338  45.2568198  84.9048949  35.4771603
  44.9653007  85.2678930  36.3135064  44.6440330  84.1915958  35.2984935
  46.4563881  82.4701829  27.9974173  47.2910772  82.9091633  28.1611734
  46.5923009  81.9940482  27.1782419  43.5055387  80.0281564  33.9451661
  43.9809508  80.2209210  33.1370512  42.5820952  80.0840750  33.6995045
  30.3938893  81.1905731  23.5282739  30.1484935  80.2868061  23.7262949
  30.5634808  81.1922882  22.5862217  38.0835603  72.0629407  32.9107495
  38.6017547  72.7990434  32.5853983  37.7290736  72.3693401  33.7454254
  29.6634541  76.9234089  21.0268901  28.9703786  76.9978444  20.3708937
  29.4186293  76.1594432  21.5490418  38.3348197  68.4829690  28.4308391
  38.6149951  67.8152879  29.0568818  39.1198804  68.6758786  27.9183055
  42.2057056  76.9047324  32.1779967  43.1574478  77.0045422  32.1992191
  42.0360506  76.1125593  32.6878051  40.2271435  73.9902907  32.3639367
  39.6321367  74.2707920  31.6685856  39.9421132  74.4796808  33.1356109
  44.6845133  80.1253444  31.2922266  44.6521453  79.1869444  31.4781950
  45.2945757  80.2037480  30.5588091  36.5228464  78.9949497  17.3349470
  37.4687569  78.8655705  17.4037888  36.1442709  78.2564159  17.8118898
  44.8339622  76.9164487  31.3380549  44.3178670  76.1322944  31.1510478
  45.7179570  76.5883204  31.5027069  42.4950349  70.6605503  27.2976362
  42.2975170  70.3520591  28.1819694  43.1050054  71.3867142  27.4274292
  50.5021683  81.1869451  30.4328303  51.2325072  80.9254739  30.9936006
  49.8928629  80.4498172  30.4730371  48.5836980  79.3277313  31.0302754
  47.8570144  79.1933278  30.4219246  48.1684267  79.6354142  31.8359472
  36.4067157  83.0467243  38.7950127  37.3270166  83.2245842  38.9890174
  36.3716740  82.1023288  38.6429827  34.7071381  76.9199473  17.2704355
  33.8002837  76.6232586  17.3467069  34.9847362  76.6229291  16.4038642
  25.6249322  78.2405836  27.7203402  25.3052106  77.3871145  27.4277776
  25.0782750  78.4554415  28.4761369  36.3233447  71.4636363  23.4248597
  35.5134175  71.1183448  23.8003843  37.0117864  71.1543906  24.0136208
  38.2523995  70.5414410  25.0472893  38.8055034  70.9609863  25.7062917
  38.4894082  69.6150158  25.0895849  34.2757095  76.5301483  40.8275657
  34.1753822  77.4795840  40.7587748  34.0578637  76.2019722  39.9551727
  33.4770166  73.7786408  17.4116335  34.3389330  74.1041307  17.6712152
  33.6620510  72.9917904  16.8989400  41.6302802  72.6514935  24.5551558
  41.0501472  73.3099739  24.1729610  41.3638735  71.8292279  24.1438975
  40.0806369  72.0519992  26.7572878  40.5806147  72.1636527  25.9487197
  40.7241977  71.7481045  27.3973686  34.1388365  79.9598622  39.6440719
  33.6555446  80.7598982  39.8504608  34.2249304  79.9706567  38.6908163
  40.4127681  74.8115025  23.6107906  39.5253536  75.0964676  23.3928101
  40.8281670  74.6508788  22.7635183  43.7642217  74.8361546  27.3262245
  44.5402607  75.3257999  27.5986862  43.0390351  75.2619600  27.7834115
  46.2014775  75.5489165  28.3836186  46.7959266  75.3084901  27.6729494
  46.2741359  74.8296296  29.0109722  40.3868704  80.3269561  23.8258196
  40.3303906  80.7838112  22.9865829  40.9397047  79.5660246  23.6481039
  44.1973510  76.1159293  24.6508316  43.9410444  75.7155929  25.4816523
  43.5726378  76.8303087  24.5258455  48.5085848  78.8555366  27.1579607
  47.9485406  78.9248555  27.9311169  47.9029351  78.6796351  26.4379103
  41.4657591  85.0142229  19.7554386  42.3003195  84.5823427  19.5731861
  41.3041934  84.8424243  20.6831280  41.1203484  81.5174342  21.1210725
  41.0652287  81.3518614  20.1799169  40.4949539  82.2250375  21.2772915
  25.9095999  76.7542407  34.9472147  26.5554862  76.2441361  35.4359373
  25.7013150  77.4911088  35.5215573  38.4349391  83.8223254  40.4464288
  39.3040550  83.9963906  40.0850923  37.9556142  84.6417671  40.3240017
  34.4299609  71.0182451  20.6996044  34.4178279  71.9624291  20.8564315
  35.3223031  70.8352597  20.4055505  38.2451728  67.6125228  24.9541980
  37.4784124  67.0583715  25.0998663  38.6562433  67.6847097  25.8156132
  30.2493490  73.9010024  39.0447162  31.1124951  73.5446829  39.2550486
  29.6758900  73.5623919  39.7322566  52.5716982  86.9060141  32.2890358
  52.2400307  87.7755552  32.0651573  51.9762596  86.5896425  32.9684388
  54.3307292  89.8271666  31.1461582  53.6881672  90.1204199  30.5001376
  53.8262221  89.7124586  31.9514779  49.6700114  84.7529722  31.9061672
  49.3264384  85.6431364  31.8300782  50.0379077  84.5631380  31.0431257
  48.7496655  87.1234378  29.8710905  48.2461450  87.0864513  29.0578710
  49.0427262  88.0327120  29.9307561  44.9024527  86.3116564  24.9768523
  44.2488940  85.9965581  24.3525138  44.8605001  85.6892305  25.7028346
  51.4687780  84.0123282  27.0079409  51.7746657  83.1520645  26.7205324
  52.1940385  84.6040902  26.8078403  51.7389398  86.4417517  29.5063330
  50.8252478  86.6721744  29.6745537  52.1682499  86.5255961  30.3577362
  45.7178098  86.3442290  31.3045345  46.5404167  85.8702768  31.1824235
  45.9616162  87.1232773  31.8044031  47.3741146  86.5933249  27.5672503
  47.3962843  86.6572582  26.6124483  47.7909205  85.7537758  27.7613009
  48.9229358  87.3921325  32.9107495  49.4411301  88.1282352  32.5853983
  48.5684490  87.6985318  33.7454254  49.1741952  83.8121608  28.4308391
  49.4543705  83.1444797  29.0568818  49.9592559  84.0050703  27.9183055
  53.3344103  85.9897420  27.2976362  53.1368924  85.6812509  28.1819694
  53.9443809  86.7159059  27.4274292  47.1627202  86.7928280  23.4248597
  46.3527930  86.4475365  23.8003843  47.8511619  86.4835824  24.0136208
  49.0917750  85.8706327  25.0472893  49.6448788  86.2901781  25.7062917
  49.3287836  84.9442075  25.0895849  52.4696557  87.9806852  24.5551558
  51.8895226  88.6391656  24.1729610  52.2032490  87.1584197  24.1438975
  50.9200123  87.3811910  26.7572878  51.4199902  87.4928445  25.9487197
  51.5635731  87.0772963  27.3973686  49.0845483  82.9417146  24.9541980
  48.3177879  82.3875632  25.0998663  49.4956188  83.0139014  25.8156132
   4.5901110  17.5417179  24.2308427   4.1464965  16.7553557  23.9129331
   5.2518324  17.7296329  23.5652318   6.6882348  17.8219979  22.2589828
   6.6700824  18.6428860  21.7670097   7.6102268  17.6974054  22.4839969
   3.1455403  15.3364108  23.1013336   3.6783739  14.5752397  22.8712644
   2.6169484  15.0437760  23.8437491  12.5383081  14.3109074  19.0799666
  12.7318971  15.2154885  19.3258941  12.4383699  13.8516493  19.9138251
   7.5998189  14.4615817  24.6540546   7.4483696  14.2326369  23.7370630
   7.5902869  15.4186418  24.6671891   9.3090396  17.4934940  22.7317028
   9.2502942  16.8094160  22.0647611   9.7109914  18.2353930  22.2797654
   9.3107803  15.4574524  20.9631008   8.4234582  15.1200445  21.0857407
   9.8806354  14.7257555  21.1999773   5.3007640  20.0162810  20.0850410
   6.0135612  20.6510275  20.0126311   4.8097669  20.1126676  19.2690411
   4.2008413  11.0621672  25.2174568   3.5249050  10.9615801  25.8876943
   5.0236047  10.9060886  25.6810565   2.9431196  22.3688599  19.4532184
   3.4949504  22.5320221  20.2181269   3.2837389  22.9593037  18.7812209
   7.7942070  17.1949857  25.3080838   8.3381974  17.8079815  24.8135793
   7.2128915  17.7529435  25.8247851   3.0897007  19.9347081  21.4680838
   3.3984133  19.6896228  22.3403538   3.8872489  20.1393719  20.9799708
  11.1170864  16.6545911  24.6442160  10.3266408  16.6370050  24.1046659
  10.8804219  17.1934205  25.3991196  11.2368739  13.5038377  21.9574888
  11.2866744  13.3388385  22.8990411  11.1282663  12.6365636  21.5672769
   8.5272502   9.4869305  23.2734195   9.4282364   9.3475770  22.9818193
   8.6020476   9.6523760  24.2132372  12.7386936  15.9235319  22.2016910
  12.4471744  16.2865299  23.0380371  12.1259067  15.2102327  22.0230242
   3.8885895  14.0653612  25.5195434   4.8088904  14.2432211  25.7135480
   3.8535478  13.1209658  25.3675133   5.9168129  14.8409624  27.1709595
   6.7859288  15.0150276  26.8096230   5.4374880  15.6604041  27.0485324
  17.5760604  26.5498250  16.5754869  18.2139014  26.4304997  15.8718209
  17.4581447  27.4979094  16.6342822  14.3850311  26.5025678  16.5116394
  14.0468822  26.3866742  15.6236929  15.2540079  26.1016843  16.4917400
  14.8670094  27.6560529  22.4702600  14.8558734  27.2613328  21.5983103
  15.0290733  26.9226602  23.0636371   7.7901558  29.8512346  15.3397505
   8.5822850  29.5103170  14.9243805   8.0298208  29.9607321  16.2599659
  15.8236685  32.0232122   7.8127750  15.1724665  32.6086202   7.4261764
  16.6181048  32.5538317   7.8722787  11.5877355  30.4397641  21.4181784
  11.2967221  31.3443272  21.3028450  12.2234339  30.4814169  22.1325853
  12.5133562  27.8174490  18.0083143  13.1097134  27.5930512  17.2940106
  12.5708533  27.0759235  18.6108591  17.1301873  24.2749703  13.6508077
  17.9164962  23.8569127  13.2998494  17.3940577  25.1795796  13.8189726
  22.5310300  24.2124937  14.5541056  23.2635472  23.6424153  14.7878885
  21.7749656  23.8246537  14.9947561  14.1486420  26.6352178  11.7504398
  13.7844627  26.1082799  12.4617320  15.0053536  26.2450647  11.5770884
  20.0535720  17.9246511  19.0135665  19.7219045  18.7941922  18.7896879
  19.4581334  17.6082795  19.6929695  16.5467240  30.1259057  18.4131577
  16.2467963  31.0284096  18.3047384  16.2018299  29.8591240  19.2652730
   9.9979721  26.5772854  14.4468282   9.0730218  26.4449068  14.6545973
  10.2464134  27.3567073  14.9438224  19.9464384  22.6441597  16.0929015
  19.0381261  22.5757005  15.7987776  19.8951979  23.1213542  16.9210840
   7.3588532  26.2206127  15.2812071   7.4880913  26.4740606  16.1951482
   6.6785984  26.8133835  14.9616726  11.5288020  36.8903377  11.3802545
  11.4512049  37.8411202  11.4591026  10.9249663  36.5449250  12.0377471
  14.0205249  24.0631243  24.0363912  13.2438583  24.6225163  24.0266776
  14.6595812  24.5488026  24.5578782  21.8126030  20.8458035  17.8706888
  21.1700410  21.1390569  17.2246683  21.3080958  20.7310956  18.6760085
  12.2751622  26.8716696  23.5981879  13.0166306  27.4101740  23.3216702
  11.5688607  27.4982985  23.7553431  17.7506961  29.0145836  22.1954040
  18.1590317  28.5728247  21.4508673  17.0284223  28.4398464  22.4488233
  14.1038031  23.9518443  19.5687597  14.9499227  24.3757857  19.7122246
  14.0436669  23.2952067  20.2626160  18.0735776  29.5747027  15.9506329
  17.4444638  29.7392741  15.2482397  17.6861438  29.9888637  16.7217293
  21.9525008  30.5101465  13.3050693  21.2676046  30.8900366  12.7547726
  22.0368857  31.1196792  14.0382641  17.2537477  21.6122812  21.2268771
  17.0098409  22.3664872  20.6903047  17.5297407  21.9908159  22.0616018
  19.2075939  28.1561424  19.9046037  19.4192835  28.7993184  19.2280418
  19.1605688  27.3223740  19.4367967  16.8102168  20.7679245  16.8082609
  15.9486647  21.0660498  17.0999346  16.8364603  20.9849643  15.8763641
  13.6263738  29.3121435  13.2156414  14.0902083  29.5909138  12.4261037
  13.3620536  28.4104880  13.0329505  10.5187819  28.8592917  16.1536178
  11.0889176  29.2880185  15.5153662  11.1095931  28.5775501  16.8520363
  11.0112985  24.0256344  24.3997189  10.3811646  24.7072625  24.6332586
  10.9049073  23.9139426  23.4550327  20.3221767  31.0333379  18.0768394
  21.1439211  30.6313567  17.7951075  20.3184170  30.9301613  19.0284510
  14.0878371  30.5817423  20.2329104  14.1522803  31.0437830  21.0687276
  13.3789295  29.9514788  20.3611414   4.5895661  23.9458631  17.7578104
   4.8403699  24.8305640  18.0235680   5.1255209  23.7663232  16.9853196
  28.4127760  27.3772128  14.4253365  27.6591469  26.8079526  14.2697370
  28.5475302  27.3434792  15.3724000  13.8026388  32.2485530  10.1008085
  13.6672063  33.0937066  10.5292932  14.3436201  32.4504808   9.3374018
  10.2893728  18.3277110  26.7622440   9.8960674  17.7743308  27.4370084
  11.1059868  18.6387688  27.1528957   9.0650671  32.8826724  12.7558763
   9.2417299  33.8044689  12.5679747   9.8607504  32.5685144  13.1853143
  13.2061689  19.7434989  24.3542696  13.9471402  20.3442142  24.2747159
  13.4379612  19.0012627  23.7960739   8.3503027  24.9291356  22.6320926
   8.2356542  24.0276614  22.9328025   7.4947545  25.1755053  22.2805743
  15.4294865  32.8709097  24.2308427  14.9858719  32.0845475  23.9129331
  16.0912078  33.0588247  23.5652318  10.1881986  34.4004898  18.7569105
  10.7389411  34.2721962  17.9846099   9.3493462  34.6999787  18.4063998
  17.5276103  33.1511897  22.2589828  17.5094578  33.9720778  21.7670097
  18.4496023  33.0265972  22.4839969  13.9849157  30.6656026  23.1013336
  14.5177494  29.9044314  22.8712644  13.4563238  30.3729678  23.8437491
  17.1518852  15.7716092  18.6306978  16.8083121  16.6617734  18.5546089
  17.5197815  15.5817750  17.7676563  16.2315392  18.1420747  16.5956211
  15.7280188  18.1050882  15.7824017  16.5245999  19.0513490  16.6552868
  22.0903409  28.5157058   9.0732587  21.3132852  28.1768217   8.6287749
  22.7694890  28.5209681   8.3987552  15.3501870  29.7942018  10.6132148
  14.8223231  29.0594778  10.3005386  14.8489372  30.5716695  10.3672117
  20.3294716  27.9891039  15.7299195  19.6718390  28.6790300  15.8179323
  21.1335115  28.3787471  16.0733181  19.1400175  26.3435412  13.7803136
  19.6532056  26.9765404  14.2824846  19.7901398  25.7436607  13.4146496
  16.4022549  36.3219736   6.5363808  15.7284248  36.6251433   7.1448765
  16.7888371  37.1248816   6.1869265  15.6181005  23.8184867  16.0261477
  14.7003567  24.0399814  15.8683165  16.0341149  23.8931178  15.1673184
  16.4016053  25.2176283  11.1564157  17.1487872  25.7297680  10.8471279
  16.6707643  24.8960336  12.0168551  19.9061971  31.3241413  11.9082279
  19.4524298  30.4832323  11.9647470  19.2755938  31.9602811  12.2457059
  18.8494890  22.2533399  13.1382947  18.1117647  21.7410785  13.4693189
  19.1021664  21.8133781  12.3266223  18.3494910  33.1617910  12.8432097
  18.6417884  33.7222967  12.1244463  18.8593531  33.4546471  13.5985256
  13.2227597  25.3263444  14.2400907  13.2776207  24.3737281  14.1643383
  12.4118799  25.4822883  14.7242205  13.3128535  33.9398261  13.9325550
  13.2704714  34.1659107  13.0034082  14.2291234  33.7061635  14.0811352
  16.7594169  24.4082328  20.8306180  17.1143557  24.6353802  21.6900645
  17.4066300  24.7400705  20.2083435  22.4891906  27.5300764  11.5355509
  22.3509805  27.7202360  10.6076698  22.1328125  28.2920147  11.9923560
  10.6534032  21.5158859  17.6152521  11.2933411  21.3747619  16.9175484
   9.8211563  21.2293373  17.2391123  22.5161286  29.5977291  16.5466780
  22.9497792  29.5052580  17.3949834  23.2292866  29.5734792  15.9086796
  11.4294336  30.8161290  13.7287513  12.2234935  30.3211610  13.5270088
  10.7186028  30.2879153  13.3655219  16.2489180  33.1979385  18.0799881
  16.3026203  33.7670322  18.8477597  15.3803962  33.3681270  17.7153918
   9.1287574  22.8996942  19.5624332   9.8010627  22.6914304  18.9136981
   8.3017360  22.7019028  19.1229564  15.0313146  19.5258883  21.5789993
  14.3841061  20.2248832  21.4854469  15.8014161  19.9595026  21.9466241
  15.2077280  27.3639647  19.6386813  16.1369340  27.5150807  19.4655780
  14.7868310  27.4523668  18.7835459  14.0065612  31.3890312  17.4085350
  13.8676698  31.0209096  18.2811288  13.2180208  31.9037951  17.2369308
  14.6013764  36.4899408   8.7510887  14.7765520  36.0187452   9.5656509
  13.9146552  37.1165175   8.9792148  15.5570827  30.7671915  14.7974188
  15.2220660  30.7272685  15.6931838  15.0574773  30.1016631  14.3244598
   9.5315071  26.1739545  20.3226769   9.3934869  25.4419783  20.9238308
  10.4419995  26.0848445  20.0410957  12.1597372  25.8859504  19.8110449
  12.8696990  25.2452696  19.7697067  12.1166680  26.1372399  20.7336630
  10.8726306  22.8724722  21.6306088  10.3363663  22.4215460  22.2827685
  10.2843014  23.0070631  20.8876553   9.1674849  39.6388771  15.5250747
   9.4071447  40.2707295  16.2029766   8.3244046  39.2876811  15.8116106
   6.6065427  22.0080730  18.7159083   6.5223616  21.4006399  17.9809493
   5.7848133  22.4989748  18.7168579  13.6802711  35.4467894  17.9292251
  13.6072883  36.2522865  18.4411555  13.2380104  35.6459859  17.1040272
  13.4692491  34.6839664  11.4395072  12.6860013  35.2261344  11.5333297
  14.1685236  35.2013643  11.8389314  24.6318898  26.1974659  15.7247569
  24.6208775  27.0799374  15.3541502  23.7636278  25.8446209  15.5302106
  16.1401395  35.3454728  20.0850410  16.8529367  35.9802192  20.0126311
  15.6491423  35.4418594  19.2690411  17.8618922  29.2505980  11.6567701
  16.9275200  29.3707443  11.4872406  18.0395590  28.3478447  11.3927711
  21.2491473  25.0923300  12.1917735  21.7151925  25.9251291  12.1178038
  21.6998973  24.6268281  12.8962994  11.1913308  33.0949171  20.9055980
  11.8922768  33.7285654  21.0585375  10.7208423  33.4363903  20.1451620
  19.3167704  31.4367121   9.1903887  19.5927548  31.3223715  10.0997762
  18.4472203  31.0384606   9.1516061  19.2208136  17.4603887  16.2308637
  18.3071215  17.6908113  16.3990844  19.6501237  17.5442331  17.0822669
  18.9914594  25.6493779  18.7308531  18.3386044  25.8969686  18.0760984
  19.3694974  24.8357917  18.3971008  15.9521768  35.6853472  12.8336701
  16.1344163  34.8675128  13.2964453  16.7754754  35.9021164  12.3961591
  16.2863934  34.6121657  10.0951750  16.8151700  34.1014111   9.4821912
  16.5492153  34.2964187  10.9597283  15.0402167  26.3913590  25.2174568
  14.3642804  26.2907719  25.8876943  15.8629801  26.2352803  25.6810565
   6.7881026  32.6285526  17.8387083   7.3734463  31.8829214  17.9714987
   6.5905865  32.9389483  18.7223747   9.6419681  35.6636774  12.8549525
   8.9730057  36.1482901  12.3713566   9.5032551  35.9105994  13.7692904
  13.7824950  37.6980517  19.4532184  14.3343258  37.8612139  20.2181269
  14.1231144  38.2884955  18.7812209   8.7589443  20.0455667  20.0554069
   8.8230770  20.9070498  19.6431466   8.6956564  19.4329668  19.3226427
   8.2341716  22.1178799  23.7027103   8.8613755  21.7355877  24.3164627
   7.3769635  21.8993001  24.0682795  18.6335824  32.5241775  25.3080838
  19.1775728  33.1371733  24.8135793  18.0522669  33.0821353  25.8247851
  16.9193337  35.6462493  16.4395866  16.7944477  34.8452232  15.9306812
  17.5772428  36.1408686  15.9509836  18.9828246  33.4471513  18.0675416
  18.0358581  33.3276864  17.9953743  19.3311019  32.5594011  18.1501678
  11.3427819  19.3365652  21.8913658  11.8662221  19.5827948  22.6539967
  11.1240152  20.1685686  21.4716795  15.9874679  33.2424229  14.2679768
  15.8399641  32.3140936  14.4487338  16.8128173  33.2644320  13.7836844
  19.5908801  34.0652788  15.3544641  20.5155348  33.8595649  15.2169092
  19.4224104  33.8169189  16.2633983  12.5480364  20.2779347  19.5763329
  12.2077184  19.4787160  19.9784008  11.8419370  20.5781058  19.0040162
  13.1996836  17.3628659  18.0290652  14.0222905  16.8889137  17.9069542
  13.4434899  18.1419143  18.5289338  10.7235415  24.0547780  15.8382630
  10.5779995  24.3688083  16.7306912  10.2460618  24.6732680  15.2853529
  12.5831798  21.0450328  15.8863520  12.5693366  20.1491421  15.5495818
  13.3004226  21.0520991  16.5201806  14.4357928  21.4787668  17.9316647
  14.1775706  22.4004739  17.9300978  13.9042969  21.0818102  18.6217111
  19.3804117  34.5838455  10.7106733  19.5540995  34.0184878   9.9580585
  19.8733008  35.3839350  10.5286222   5.1981077  26.5953124  18.7770291
   4.6534545  27.3712932  18.9090566   6.0760427  26.9423929  18.6189413
  25.2343508  27.3474878  12.3297032  25.6774654  26.5982203  11.9316156
  24.3570019  27.3385014  11.9470764  20.3679290  33.9005219   7.8103631
  21.0630194  34.5211912   8.0290945  20.7102440  33.0500571   8.0856009
   5.9847099  25.7223020  21.6700448   5.2428835  25.8705656  22.2565079
   5.6639843  25.9831286  20.8067198  22.2670713  31.3504925   9.3390962
  22.7922037  31.6892198   8.6140282  22.1793065  30.4151940   9.1554096
  13.9290761  35.2638999  21.4680838  14.2377888  35.0188145  22.3403538
  14.7266243  35.4685637  20.9799708  13.9511373  37.4176908  13.6986215
  13.5116364  36.9253287  14.3919071  14.7019490  36.8749876  13.4578290
   6.4303712  33.6088449  13.7010843   7.2561732  33.3092221  13.3209486
   6.0797764  32.8396072  14.1500632  11.3985246  32.9614917  15.7708516
  10.7765255  32.2985622  15.4710744  12.0690112  32.9876049  15.0882164
   4.6312317  31.5274776  14.6599776   3.7944226  31.0996950  14.4783778
   4.6035963  31.7207219  15.5970568  11.4709773  21.4396705  25.3641022
  11.5197929  22.3158828  24.9818792  12.0132287  20.8974098  24.7912666
  13.7009062  22.1928078  22.1187381  12.8312371  22.4861644  21.8469970
  13.9368542  22.7768523  22.8394645  24.7776373  28.8180116  14.7219480
  25.6123264  29.2569920  14.8857040  24.9135502  28.3418769  13.9027726
  16.4048095  18.4107695  19.6352802  16.9230039  19.1468722  19.3099290
  16.0503228  18.7171688  20.4699561  20.5269548  23.2525611  18.9025273
  21.4786971  23.3523709  18.9237497  20.3572998  22.4603880  19.4123358
  18.5483927  20.3381194  19.0884674  17.9533859  20.6186207  18.3931163
  18.2633624  20.8275095  19.8601415  17.6791418  34.2904121   7.8487307
  18.6122091  34.2249683   8.0520182  17.5914631  35.1260388   7.3901839
  20.3079434  33.6069992   4.8091254  20.2293066  33.2729855   5.7027012
  21.1289101  34.0991760   4.8082727  23.0057626  26.4731731  18.0167573
  22.9733946  25.5347732  18.2027257  23.6158249  26.5515768  17.2833398
  23.1552114  23.2642774  18.0625856  22.6391163  22.4801231  17.8755785
  24.0392063  22.9361491  18.2272376  20.8162841  17.0083790  14.0221669
  20.6187662  16.6998878  14.9065001  21.4262547  17.7345429  14.1519599
  28.8234175  27.5347738  17.1573610  29.5537564  27.2733026  17.7181313
  28.2141121  26.7976460  17.1975678  14.7279649  29.3945530  25.5195434
  15.6482659  29.5724129  25.7135480  14.6929232  28.4501575  25.3675133
   7.7241722  27.3046565  18.1618215   7.9427731  28.2363672  18.1806249
   8.1367495  26.9454539  18.9473019  12.5969587  22.8779770  27.5520964
  12.4966314  23.8274127  27.4833055  12.3791129  22.5498009  26.6797034
   3.8150074  28.2087035  16.4141830   3.1213545  27.7940988  15.9011785
   4.5623065  28.2507572  15.8175249  12.4600857  26.3076909  26.3686026
  11.9767939  27.1077269  26.5749915  12.5461796  26.3184854  25.4153470
   8.3874194  30.1981444  18.4054459   9.3417448  30.1665386  18.3384391
   8.1886718  29.7372068  19.2204685   8.9773577  28.7682560  20.9725257
   9.7966466  29.2626639  20.9960094   9.2510384  27.8514528  20.9442825
  22.0854709  21.1839833  14.0507552  22.8615099  21.6736286  14.3232169
  21.3602843  21.6097888  14.5079421  24.5227268  21.8967453  15.1081492
  25.1171758  21.6563188  14.3974801  24.5953851  21.1774583  15.7355029
   6.7424423  35.7401063  15.4224657   6.6078891  34.9801464  14.8562655
   6.3256485  36.4641963  14.9553446  18.7081197  26.6747848  10.5503503
  18.6516398  27.1316400   9.7111135  19.2609539  25.9138533  10.3726345
  22.5186002  22.4637580  11.3753622  22.2622937  22.0634216  12.2061830
  21.8938870  23.1781374  11.2503761  26.8298340  25.2033653  13.8824914
  26.2697898  25.2726843  14.6556476  26.2241844  25.0274638  13.1624410
   9.8993549  36.6370380  15.6343100   9.7825933  37.5815813  15.5321790
   9.0785995  36.3343942  16.0228899  19.7870084  31.3620516   6.4799693
  20.6215688  30.9301715   6.2977167  19.6254427  31.1902530   7.4076587
   4.2308491  23.1020694  21.6717454   4.8767354  22.5919648  22.1604679
   4.0225642  23.8389376  22.2460879  16.7561883  30.1701541  27.1709595
  17.6253043  30.3442194  26.8096230  16.2768634  30.9895958  27.0485324
  10.9248063  37.2898642  18.8499028  11.8275310  37.3222253  19.1665523
  10.6985433  36.3599093  18.8645364  12.6801665  36.0429629  15.5109107
  11.7297296  36.0431491  15.3973479  12.9834151  35.2962363  14.9945142
   8.5705982  20.2488311  25.7692468   9.4337443  19.8925116  25.9795793
   7.9971392  19.9102206  26.4567873  25.2244065  41.8317595  16.5116394
  24.8862577  41.7158660  15.6236929  26.0933833  41.4308761  16.4917400
  21.0830881  43.6853072  12.5013285  20.5195746  43.5943009  11.7329573
  20.9683276  42.8652976  12.9815778  18.6295313  45.1804263  15.3397505
  19.4216605  44.8395088  14.9243805  18.8691963  45.2899238  16.2599659
  26.6630439  47.3524040   7.8127750  26.0118419  47.9378120   7.4261764
  27.4574802  47.8830234   7.8722787  20.5886067  44.4413177   8.2114884
  21.3616943  43.8942164   8.0727760  20.9411465  45.3057426   8.4229346
  23.3527316  43.1466407  18.0083143  23.9490888  42.9222430  17.2940106
  23.4102288  42.4051153  18.6108591  22.9252344  40.6005843   5.8433334
  23.1777865  40.0787364   5.0816797  21.9876903  40.4371988   5.9460018
  28.1405705  45.0414471   8.3496734  27.5051538  45.1149098   9.0617639
  27.8103111  45.6308070   7.6715813  33.3704054  39.5416854  14.5541056
  34.1029226  38.9716071  14.7878885  32.6143410  39.1538455  14.9947561
  22.6448633  42.5033949   8.0457709  22.5284891  41.8278852   8.7138793
  22.7550893  42.0166323   7.2289862  24.9880174  41.9644096  11.7504398
  24.6238381  41.4374717  12.4617320  25.8447290  41.5742565  11.5770884
  30.8929475  33.2538428  19.0135665  30.5612799  34.1233839  18.7896879
  30.2975088  32.9374712  19.6929695  24.6285661  36.9933996   6.7465747
  24.7960063  37.8614232   7.1136218  24.4382830  37.1561277   5.8227036
  27.3860994  45.4550974  18.4131577  27.0861717  46.3576013  18.3047384
  27.0412054  45.1883158  19.2652730  20.8373476  41.9064771  14.4468282
  19.9123972  41.7740985  14.6545973  21.0857889  42.6858991  14.9438224
  24.6074882  39.4491653   7.7312414  24.4874507  39.8948704   8.5697894
  23.9127470  39.7976971   7.1725952  18.1982287  41.5498045  15.2812071
  18.3274668  41.8032524  16.1951482  17.5179738  42.1425753  14.9616726
  22.3681774  52.2195295  11.3802545  22.2905804  53.1703120  11.4591026
  21.7643418  51.8741167  12.0377471  30.3059948  39.9213126   8.5592748
  31.2177804  40.1540513   8.3840445  29.7969595  40.5050170   7.9967826
  28.9129530  44.9038945  15.9506329  28.2838393  45.0684659  15.2482397
  28.5255192  45.3180554  16.7217293  32.7918762  45.8393383  13.3050693
  32.1069800  46.2192284  12.7547726  32.8762612  46.4488709  14.0382641
  24.4657492  44.6413353  13.2156414  24.9295838  44.9201056  12.4261037
  24.2014290  43.7396797  13.0329505  21.3581573  44.1884834  16.1536178
  21.9282930  44.6172103  15.5153662  21.9489685  43.9067419  16.8520363
  23.4026378  40.7636505  10.0245979  24.1050422  41.2157549  10.4919906
  23.0707007  40.1220324  10.6525873  17.1451712  39.0220058  15.3263113
  16.3550766  39.2777586  14.8503224  17.6362960  39.8368396  15.4315154
  31.1615522  46.3625297  18.0768394  31.9832966  45.9605484  17.7951075
  31.1577925  46.2593531  19.0284510  19.0966458  39.3864637  12.2846590
  18.2997621  39.4983331  12.8030085  18.8692050  39.7251289  11.4187480
  15.4289415  39.2750548  17.7578104  15.6797454  40.1597558  18.0235680
  15.9648964  39.0955150  16.9853196  39.2521515  42.7064045  14.4253365
  38.4985223  42.1371444  14.2697370  39.3869056  42.6726710  15.3724000
  24.6420143  47.5777448  10.1008085  24.5065818  48.4228983  10.5292932
  25.1829955  47.7796725   9.3374018  18.0949540  45.0952886  10.6736010
  18.6074061  45.8896136  10.8241574  18.7472253  44.3979176  10.6069611
  19.9044425  48.2118642  12.7558763  20.0811053  49.1336607  12.5679747
  20.7001259  47.8977061  13.1853143  19.1896782  40.2583274  22.6320926
  19.0750297  39.3568531  22.9328025  18.3341299  40.5046971  22.2805743
  21.0275741  49.7296816  18.7569105  21.5783166  49.6013879  17.9846099
  20.1887216  50.0291705  18.4063998  28.3669857  48.4803814  22.2589828
  28.3488333  49.3012695  21.7670097  29.2889777  48.3557889  22.4839969
  27.9912607  31.1008010  18.6306978  27.6476876  31.9909651  18.5546089
  28.3591569  30.9109667  17.7676563  16.0598457  43.4241540  11.4495580
  16.8973679  43.8338548  11.2329288  16.2376725  42.4840982  11.4195774
  27.9562889  41.0916621   7.1379413  27.4409513  41.8621225   7.3767801
  27.6840198  40.4181757   7.7612475  25.5410000  35.9366322  12.1964652
  24.6851597  35.5473172  12.0170290  25.9536952  36.0158282  11.3364437
  23.3152033  33.5551395  15.6022393  24.1805030  33.3594203  15.2428283
  23.3829542  33.3261746  16.5291750  32.9297163  43.8448975   9.0732587
  32.1526606  43.5060135   8.6287749  33.6088644  43.8501599   8.3987552
  27.7449192  38.9643713   8.9639194  27.4399328  39.2789862   9.8149338
  28.6979635  39.0425133   9.0066527  26.1895624  45.1233936  10.6132148
  25.6616986  44.3886696  10.3005386  25.6883127  45.9008613  10.3672117
  31.1688470  43.3182957  15.7299195  30.5112145  44.0082218  15.8179323
  31.9728869  43.7079389  16.0733181  20.9214352  35.7853602  12.9738760
  21.4958104  35.5628784  12.2411953  21.5085334  35.8542297  13.7267361
  21.2483939  37.8158063   6.9934645  20.4121251  38.1532750   7.3143920
  21.1088709  37.6807043   6.0561782  23.2237020  32.6594851  11.7013829
  22.5701432  32.3443869  11.0770444  23.1817494  32.0370592  12.4273652
  24.3348224  42.9414146   3.6167121  23.4275286  42.7103400   3.8158270
  24.8319256  42.1451766   3.8041103  27.2416303  51.6511654   6.5363808
  26.5678002  51.9543350   7.1448765  27.6282125  52.4540734   6.1869265
  27.2409808  40.5468201  11.1564157  27.9881627  41.0589598  10.8471279
  27.5101397  40.2252253  12.0168551  25.5136458  43.0426741   8.1391112
  24.6047677  42.7585774   8.2363581  25.5431542  43.4625820   7.2794418
  30.7455725  46.6533331  11.9082279  30.2918052  45.8124241  11.9647470
  30.1149692  47.2894729  12.2457059  29.6888645  37.5825317  13.1382947
  28.9511402  37.0702703  13.4693189  29.9415418  37.1425698  12.3266223
  29.1888665  48.4909827  12.8432097  29.4811639  49.0514885  12.1244463
  29.6987285  48.7838388  13.5985256  29.7900272  30.3601569  13.7324716
  30.0959149  29.4998932  13.4450631  30.5152877  30.9519189  13.5323710
  16.0824628  40.7632255  12.1206314  15.8849028  40.1701616  11.3957380
  15.5271292  40.4584466  12.8382253  24.0621352  40.6555362  14.2400907
  24.1169962  39.7029198  14.1643383  23.2512554  40.8114801  14.7242205
  25.2112546  44.5835485   5.4779190  24.7731976  43.8671344   5.0184827
  25.9522987  44.8111600   4.9164282  22.0013712  39.2732422  11.9991286
  21.1881577  39.5726592  12.4056478  22.4972706  38.8788110  12.7165768
  24.1522290  49.2690179  13.9325550  24.1098469  49.4951025  13.0034082
  25.0684989  49.0353553  14.0811352  33.3285660  42.8592682  11.5355509
  33.1903559  43.0494278  10.6076698  32.9721879  43.6212065  11.9923560
  21.4927787  36.8450777  17.6152521  22.1327166  36.7039536  16.9175484
  20.6605317  36.5585291  17.2391123  33.3555040  44.9269209  16.5466780
  33.7891547  44.8344498  17.3949834  34.0686621  44.9026709  15.9086796
  22.2688091  46.1453208  13.7287513  23.0628689  45.6503528  13.5270088
  21.5579783  45.6171071  13.3655219  27.0882935  48.5271303  18.0799881
  27.1419957  49.0962239  18.8477597  26.2197716  48.6973188  17.7153918
  18.5770854  40.2896289   9.8047266  17.6468442  40.2280745  10.0217228
  18.6728326  39.7672242   9.0083907  18.4956403  36.8151102  12.3925508
  18.7563220  37.7296435  12.2834668  19.3173575  36.3475545  12.5422120
  19.9681328  38.2288859  19.5624332  20.6404382  38.0206221  18.9136981
  19.1411115  38.0310945  19.1229564  34.2170590  44.9692910  19.0799666
  34.4106480  45.8738720  19.3258941  34.1171208  44.5100329  19.9138251
  24.8459366  46.7182230  17.4085350  24.7070452  46.3501014  18.2811288
  24.0573963  47.2329869  17.2369308  25.4407518  51.8191326   8.7510887
  25.6159274  51.3479369   9.5656509  24.7540306  52.4457092   8.9792148
  26.3964582  46.0963832  14.7974188  26.0614414  46.0564602  15.6931838
  25.8968527  45.4308548  14.3244598  20.3708826  41.5031462  20.3226769
  20.2328624  40.7711701  20.9238308  21.2813749  41.4140362  20.0410957
  29.3323773  43.4419867   5.0711248  28.7152944  42.7166695   4.9744300
  28.8640262  44.2029227   4.7278322  20.0068604  54.9680689  15.5250747
  20.2465202  55.5999213  16.2029766  19.1637800  54.6168729  15.8116106
  21.1222319  37.6605291   4.1932552  20.2451786  37.5394092   3.8294799
  21.5980072  36.8691369   3.9411441  12.6424459  42.4482451  14.2874059
  13.3295499  42.1344181  13.6995074  12.4872588  43.3523815  14.0141311
  17.4459181  37.3372647  18.7159083  17.3617370  36.7298317  17.9809493
  16.6241888  37.8281666  18.7168579  24.5196466  50.7759811  17.9292251
  24.4466637  51.5814783  18.4411555  24.0773859  50.9751777  17.1040272
  24.3086245  50.0131581  11.4395072  23.5253767  50.5553261  11.5333297
  25.0078990  50.5305561  11.8389314  27.6182895  35.8226211  14.0829278
  28.1151595  35.0696173  13.7630348  26.8469877  35.8590527  13.5172487
  35.4712653  41.5266576  15.7247569  35.4602529  42.4091292  15.3541502
  34.6030032  41.1738127  15.5302106  26.9795149  50.6746645  20.0850410
  27.6923121  51.3094110  20.0126311  26.4885178  50.7710511  19.2690411
  28.7012676  44.5797898  11.6567701  27.7668955  44.6999360  11.4872406
  28.8789345  43.6770365  11.3927711  24.2017864  37.9643594  13.8100962
  23.8315652  37.4114634  14.4981868  24.6976957  37.3601727  13.2575963
  32.0885227  40.4215217  12.1917735  32.5545680  41.2543209  12.1178038
  32.5392728  39.9560199  12.8962994  22.0307063  48.4241089  20.9055980
  22.7316522  49.0577572  21.0585375  21.5602178  48.7655820  20.1451620
  30.1561459  46.7659039   9.1903887  30.4321302  46.6515633  10.0997762
  29.2865957  46.3676523   9.1516061  30.0601890  32.7895804  16.2308637
  29.1464970  33.0200031  16.3990844  30.4894992  32.8734248  17.0822669
  26.7915523  51.0145389  12.8336701  26.9737917  50.1967045  13.2964453
  27.6148509  51.2313082  12.3961591  27.1257688  49.9413575  10.0951750
  27.6545454  49.4306029   9.4821912  27.3885908  49.6256105  10.9597283
  17.6274781  47.9577444  17.8387083  18.2128218  47.2121132  17.9714987
  17.4299619  48.2681401  18.7223747  20.4813436  50.9928691  12.8549525
  19.8123811  51.4774819  12.3713566  20.3426306  51.2397912  13.7692904
  12.2192435  40.5283044  16.5591526  12.2576535  39.9946635  17.3528644
  11.7132728  40.0018250  15.9402503  24.6218705  53.0272435  19.4532184
  25.1737013  53.1904056  20.2181269  24.9624898  53.6176873  18.7812209
  19.5983198  35.3747585  20.0554069  19.6624524  36.2362415  19.6431466
  19.5350318  34.7621586  19.3226427  19.0735470  37.4470717  23.7027103
  19.7007509  37.0647794  24.3164627  18.2163389  37.2284919  24.0682795
  15.8501013  39.2547146   9.6345458  16.1454454  38.3457825   9.5812511
  14.9489049  39.2334886   9.3126460  27.7587092  50.9754410  16.4395866
  27.6338231  50.1744150  15.9306812  28.4166183  51.4700604  15.9509836
  19.3795260  37.3303143  15.6173006  18.6581846  37.9439110  15.4780480
  20.1688516  37.8660908  15.5389652  29.8222000  48.7763430  18.0675416
  28.8752336  48.6568782  17.9953743  30.1704773  47.8885928  18.1501678
  17.5788855  36.9361244   9.7584783  17.2501561  36.0558623   9.5759889
  17.9328225  36.8808913  10.6461172  26.8268434  48.5716147  14.2679768
  26.6793396  47.6432854  14.4487338  27.6521927  48.5936237  13.7836844
  20.6930678  37.2234214  10.1260260  21.0326750  37.7520135   9.4038869
  21.1402798  37.5614620  10.9018827  30.4302555  49.3944705  15.3544641
  31.3549103  49.1887567  15.2169092  30.2617859  49.1461106  16.2633983
  22.6798825  35.7208835   8.3253553  23.4007187  36.0990088   7.8217270
  22.0564129  36.4397712   8.4288531  26.8229948  36.4253984   9.2611886
  27.0393562  37.3078622   8.9600714  26.3424015  36.0340198   8.5317528
  21.5629169  39.3839697  15.8382630  21.4173750  39.6980000  16.7306912
  21.0854373  40.0024598  15.2853529  23.4225552  36.3742245  15.8863520
  23.4087121  35.4783339  15.5495818  24.1397980  36.3812909  16.5201806
  30.2197872  49.9130373  10.7106733  30.3934749  49.3476795   9.9580585
  30.7126763  50.7131268  10.5286222  16.0374831  41.9245042  18.7770291
  15.4928299  42.7004850  18.9090566  16.9154181  42.2715846  18.6189413
  22.8262448  35.2556626  11.1551090  22.9478359  34.3273272  11.3541977
  22.5364490  35.2695312  10.2429405  25.6953638  32.9411536  14.2917810
  25.7175335  33.0050869  13.3369789  26.1121697  32.1016045  14.4858316
  36.0737263  42.6766796  12.3297032  36.5168409  41.9274121  11.9316156
  35.1963773  42.6676932  11.9470764  31.2073044  49.2297137   7.8103631
  31.9023949  49.8503830   8.0290945  31.5496194  48.3792488   8.0856009
  16.8240853  41.0514938  21.6700448  16.0822589  41.1997573  22.2565079
  16.5033598  41.3123204  20.8067198  33.1064467  46.6796843   9.3390962
  33.6315791  47.0184115   8.6140282  33.0186820  45.7443858   9.1554096
  24.7905128  52.7468826  13.6986215  24.3510118  52.2545205  14.3919071
  25.5413245  52.2041794  13.4578290  17.2697467  48.9380367  13.7010843
  18.0955487  48.6384139  13.3209486  16.9191519  48.1687989  14.1500632
  22.2379000  48.2906835  15.7708516  21.6159009  47.6277540  15.4710744
  22.9083867  48.3167967  15.0882164  15.4706072  46.8566693  14.6599776
  14.6337980  46.4288868  14.4783778  15.4429717  47.0499137  15.5970568
  21.7992507  46.8410758   9.2466977  21.9480627  47.5246223   8.5933650
  22.6058950  46.8215848   9.7616433  35.6170127  44.1472034  14.7219480
  36.4517019  44.5861838  14.8857040  35.7529256  43.6710687  13.9027726
  19.5545140  42.8675936  10.2528046  19.3091182  41.9638266  10.4508256
  19.7241054  42.8693086   9.3107524  18.8240787  38.6004294   7.7514207
  18.1310032  38.6748649   7.0954243  18.5792539  37.8364637   8.2735724
  27.4954444  30.1599895  15.1553698  27.7756198  29.4923084  15.7814125
  28.2805051  30.3528991  14.6428362  25.2987912  49.3358889   6.7178724
  24.7261880  49.9549076   6.2649196  25.8720706  49.8858250   7.2518646
  28.5185172  49.6196039   7.8487307  29.4515845  49.5541601   8.0520182
  28.4308385  50.4552306   7.3901839  31.1473189  48.9361909   4.8091254
  31.0686820  48.6021773   5.7027012  31.9682856  49.4283677   4.8082727
  33.8451380  41.8023649  18.0167573  33.8127700  40.8639649  18.2027257
  34.4552004  41.8807685  17.2833398  25.6834711  40.6719702   4.0594777
  26.6293816  40.5425910   4.1283195  25.3048956  39.9334363   4.5364205
  33.9945869  38.5934692  18.0625856  33.4784917  37.8093149  17.8755785
  34.8785817  38.2653409  18.2272376  31.6556596  32.3375708  14.0221669
  31.4581417  32.0290796  14.9065001  32.2656301  33.0637346  14.1519599
  39.6627930  42.8639655  17.1573610  40.3931318  42.6024944  17.7181313
  39.0534875  42.1268377  17.1975678  37.7443227  41.0047518  17.7548061
  37.0176391  40.8703483  17.1464552  37.3290514  41.3124347  18.5604779
  23.8677628  38.5969678   3.9949662  22.9609084  38.3002791   4.0712376
  24.1453609  38.2999496   3.1283948  14.7855569  39.9176041  14.4448709
  14.4658353  39.0641350  14.1523083  14.2388997  40.1324619  15.2006676
  18.5635476  42.6338482  18.1618215  18.7821486  43.5655590  18.1806249
  18.9761250  42.2746457  18.9473019  25.4839694  33.1406568  10.1493903
  24.6740422  32.7953653  10.5249150  26.1724111  32.8314111  10.7381515
  27.4130242  32.2184614  11.7718200  27.9661281  32.6380068  12.4308223
  27.6500329  31.2920363  11.8141156  22.6376413  35.4556613   4.1361641
  23.4995577  35.7811511   4.3957459  22.8226757  34.6688109   3.6234707
  14.6543829  43.5378953  16.4141830  13.9607300  43.1232906  15.9011785
  15.4016820  43.5799489  15.8175249  30.7909049  34.3285140  11.2796864
  30.2107718  34.9869944  10.8974917  30.5244982  33.5062484  10.8684282
  29.2412616  33.7290197  13.4818185  29.7412394  33.8406732  12.6732503
  29.8848224  33.4251250  14.1218993  16.5680571  43.4697207  14.2907845
  16.5451259  43.5684894  13.3389728  16.8781208  44.3162357  14.6125011
  19.2267949  45.5273362  18.4054459  20.1811202  45.4957304  18.3384391
  19.0280473  45.0663985  19.2204685  19.8167331  44.0974478  20.9725257
  20.6360220  44.5918556  20.9960094  20.0904139  43.1806446  20.9442825
  29.5733927  36.4885230  10.3353213  28.6859782  36.7734881  10.1173407
  29.9887916  36.3278993   9.4880489  32.9248463  36.5131751  14.0507552
  33.7008854  37.0028203  14.3232169  32.1996598  36.9389805  14.5079421
  35.3621022  37.2259370  15.1081492  35.9565513  36.9855106  14.3974801
  35.4347606  36.5066501  15.7355029  17.5818178  51.0692981  15.4224657
  17.4472646  50.3093382  14.8562655  17.1650240  51.7933881  14.9553446
  28.7177141  46.2529905   4.4301233  29.4212991  46.4579907   5.0458888
  27.9939790  46.8206667   4.6950316  29.5474951  42.0039766  10.5503503
  29.4910152  42.4608317   9.7111135  30.1003293  41.2430451  10.3726345
  33.3579757  37.7929498  11.3753622  33.1016691  37.3926133  12.2061830
  32.7332625  38.5073292  11.2503761  37.6692095  40.5325571  13.8824914
  37.1091653  40.6018760  14.6556476  37.0635598  40.3566556  13.1624410
  20.7387304  51.9662298  15.6343100  20.6219688  52.9107731  15.5321790
  19.9179750  51.6635860  16.0228899  30.6263838  46.6912434   6.4799693
  31.4609442  46.2593632   6.2977167  30.4648181  46.5194448   7.4076587
  30.2809730  43.1944547   7.8456032  30.2258534  43.0288819   6.9044476
  29.6555786  43.9020580   8.0018222  15.0702245  38.4312612  21.6717454
  15.7161109  37.9211566  22.1604679  14.8619396  39.1681293  22.2460879
  23.5905856  32.6952656   7.4241350  23.5784526  33.6394496   7.5809621
  24.4829278  32.5122802   7.1300812  21.7641818  52.6190560  18.8499028
  22.6669064  52.6514170  19.1665523  21.5379188  51.6891011  18.8645364
  23.5195420  51.3721547  15.5109107  22.5691051  51.3723408  15.3973479
  23.8227906  50.6254281  14.9945142  27.4057975  29.2895433  11.6787287
  26.6390371  28.7353920  11.8243969  27.8168680  29.3617302  12.5401439
  19.4099736  35.5780229  25.7692468  20.2731198  35.2217033  25.9795793
  18.8365147  35.2394123  26.4567873  39.2548113  57.2082085  16.5754869
  39.8926523  57.0888832  15.8718209  39.1368956  58.1562929  16.6342822
  36.0637820  57.1609513  16.5116394  35.7256331  57.0450578  15.6236929
  36.9327588  56.7600678  16.4917400  31.9224635  59.0144990  12.5013285
  31.3589500  58.9234926  11.7329573  31.8077030  58.1944894  12.9815778
  36.5457603  58.3144365  22.4702600  36.5346243  57.9197163  21.5983103
  36.7078242  57.5810437  23.0636371  29.4689067  60.5096181  15.3397505
  30.2610359  60.1687006  14.9243805  29.7085717  60.6191156  16.2599659
  37.5024194  62.6815957   7.8127750  36.8512174  63.2670038   7.4261764
  38.2968557  63.2122152   7.8722787  31.4279821  59.7705094   8.2114884
  32.2010697  59.2234081   8.0727760  31.7805220  60.6349344   8.4229346
  33.2664864  61.0981477  21.4181784  32.9754730  62.0027107  21.3028450
  33.9021848  61.1398004  22.1325853  34.1921071  58.4758325  18.0083143
  34.7884643  58.2514348  17.2940106  34.2496042  57.7343071  18.6108591
  33.7646099  55.9297760   5.8433334  34.0171620  55.4079282   5.0816797
  32.8270658  55.7663906   5.9460018  38.8089382  54.9333539  13.6508077
  39.5952471  54.5152962  13.2998494  39.0728086  55.8379631  13.8189726
  38.9799459  60.3706389   8.3496734  38.3445292  60.4441016   9.0617639
  38.6496865  60.9599988   7.6715813  44.2097809  54.8708772  14.5541056
  44.9422981  54.3007989  14.7878885  43.4537165  54.4830372  14.9947561
  33.4842388  57.8325866   8.0457709  33.3678646  57.1570770   8.7138793
  33.5944648  57.3458240   7.2289862  35.8273929  57.2936014  11.7504398
  35.4632136  56.7666635  12.4617320  36.6841044  56.9034483  11.5770884
  35.4679416  52.3225913   6.7465747  35.6353818  53.1906150   7.1136218
  35.2776585  52.4853195   5.8227036  38.2254749  60.7842892  18.4131577
  37.9255472  61.6867931  18.3047384  37.8805808  60.5175075  19.2652730
  31.6767230  57.2356689  14.4468282  30.7517727  57.1032903  14.6545973
  31.9251643  58.0150908  14.9438224  41.6251893  53.3025432  16.0929015
  40.7168770  53.2340841  15.7987776  41.5739488  53.7797377  16.9210840
  35.4468636  54.7783571   7.7312414  35.3268262  55.2240621   8.5697894
  34.7521225  55.1268888   7.1725952  29.0376041  56.8789963  15.2812071
  29.1668422  57.1324441  16.1951482  28.3573493  57.4717671  14.9616726
  33.2075529  67.5487212  11.3802545  33.1299558  68.4995038  11.4591026
  32.6037172  67.2033085  12.0377471  43.4913539  51.5041871  17.8706888
  42.8487919  51.7974404  17.2246683  42.9868467  51.3894791  18.6760085
  41.1453703  55.2505044   8.5592748  42.0571559  55.4832431   8.3840445
  40.6363350  55.8342088   7.9967826  33.9539131  57.5300531  23.5981879
  34.6953815  58.0685575  23.3216702  33.2476116  58.1566820  23.7553431
  39.4294470  59.6729672  22.1954040  39.8377826  59.2312082  21.4508673
  38.7071732  59.0982299  22.4488233  39.7523285  60.2330862  15.9506329
  39.1232147  60.3976576  15.2482397  39.3648947  60.6472472  16.7217293
  43.6312517  61.1685300  13.3050693  42.9463555  61.5484202  12.7547726
  43.7156366  61.7780627  14.0382641  40.8863448  58.8145259  19.9046037
  41.0980344  59.4577019  19.2280418  40.8393197  57.9807576  19.4367967
  38.4889677  51.4263080  16.8082609  37.6274156  51.7244333  17.0999346
  38.5152112  51.6433479  15.8763641  35.3051247  59.9705270  13.2156414
  35.7689592  60.2492973  12.4261037  35.0408045  59.0688715  13.0329505
  32.1975328  59.5176752  16.1536178  32.7676685  59.9464020  15.5153662
  32.7883440  59.2359337  16.8520363  34.2420133  56.0928423  10.0245979
  34.9444176  56.5449466  10.4919906  33.9100761  55.4512242  10.6525873
  32.6900494  54.6840179  24.3997189  32.0599155  55.3656460  24.6332586
  32.5836582  54.5723261  23.4550327  27.9845467  54.3511975  15.3263113
  27.1944521  54.6069504  14.8503224  28.4756714  55.1660313  15.4315154
  42.0009276  61.6917215  18.0768394  42.8226720  61.2897402  17.7951075
  41.9971679  61.5885449  19.0284510  29.9360212  54.7156555  12.2846590
  29.1391375  54.8275249  12.8030085  29.7085804  55.0543207  11.4187480
  35.7665880  61.2401258  20.2329104  35.8310312  61.7021665  21.0687276
  35.0576804  60.6098623  20.3611414  26.2683170  54.6042466  17.7578104
  26.5191208  55.4889476  18.0235680  26.8042718  54.4247067  16.9853196
  50.0915269  58.0355963  14.4253365  49.3378978  57.4663361  14.2697370
  50.2262811  58.0018628  15.3724000  35.4813897  62.9069365  10.1008085
  35.3459572  63.7520901  10.5292932  36.0223710  63.1088643   9.3374018
  28.9343295  60.4244803  10.6736010  29.4467815  61.2188054  10.8241574
  29.5866008  59.7271094  10.6069611  30.7438180  63.5410560  12.7558763
  30.9204808  64.4628524  12.5679747  31.5395013  63.2268979  13.1853143
  30.0290536  55.5875192  22.6320926  29.9144051  54.6860449  22.9328025
  29.1735054  55.8338888  22.2805743  37.1082374  63.5292932  24.2308427
  36.6646228  62.7429311  23.9129331  37.7699587  63.7172082  23.5652318
  31.8669495  65.0588734  18.7569105  32.4176920  64.9305797  17.9846099
  31.0280971  65.3583623  18.4063998  39.2063612  63.8095732  22.2589828
  39.1882087  64.6304613  21.7670097  40.1283532  63.6849807  22.4839969
  35.6636666  61.3239861  23.1013336  36.1965003  60.5628150  22.8712644
  35.1350747  61.0313513  23.8437491  38.8306361  46.4299927  18.6306978
  38.4870630  47.3201569  18.5546089  39.1985324  46.2401585  17.7676563
  26.8992212  58.7533458  11.4495580  27.7367434  59.1630466  11.2329288
  27.0770479  57.8132900  11.4195774  38.7956644  56.4208538   7.1379413
  38.2803267  57.1913143   7.3767801  38.5233952  55.7473675   7.7612475
  36.3803755  51.2658239  12.1964652  35.5245351  50.8765090  12.0170290
  36.7930707  51.3450200  11.3364437  37.9102901  48.8004582  16.5956211
  37.4067697  48.7634718  15.7824017  38.2033508  49.7097325  16.6552868
  34.1545787  48.8843312  15.6022393  35.0198784  48.6886121  15.2428283
  34.2223296  48.6553664  16.5291750  43.7690918  59.1740893   9.0732587
  42.9920361  58.8352053   8.6287749  44.4482399  59.1793516   8.3987552
  38.5842947  54.2935631   8.9639194  38.2793082  54.6081780   9.8149338
  39.5373389  54.3717050   9.0066527  37.0289379  60.4525854  10.6132148
  36.5010740  59.7178613  10.3005386  36.5276881  61.2300530  10.3672117
  42.0082225  58.6474874  15.7299195  41.3505899  59.3374136  15.8179323
  42.8122624  59.0371306  16.0733181  31.7608106  51.1145520  12.9738760
  32.3351858  50.8920702  12.2411953  32.3479089  51.1834215  13.7267361
  40.8187684  57.0019247  13.7803136  41.3319565  57.6349239  14.2824846
  41.4688907  56.4020443  13.4146496  32.0877693  53.1449981   6.9934645
  31.2515006  53.4824668   7.3143920  31.9482463  53.0098961   6.0561782
  34.0630774  47.9886769  11.7013829  33.4095186  47.6735786  11.0770444
  34.0211248  47.3662509  12.4273652  35.1741979  58.2706064   3.6167121
  34.2669041  58.0395318   3.8158270  35.6713011  57.4743683   3.8041103
  38.0810058  66.9803571   6.5363808  37.4071757  67.2835268   7.1448765
  38.4675880  67.7832652   6.1869265  37.2968514  54.4768703  16.0261477
  36.3791076  54.6983650  15.8683165  37.7128658  54.5515013  15.1673184
  38.0803562  55.8760118  11.1564157  38.8275381  56.3881515  10.8471279
  38.3495152  55.5544171  12.0168551  36.3530212  58.3718659   8.1391112
  35.4441432  58.0877692   8.2363581  36.3825296  58.7917738   7.2794418
  41.5849480  61.9825248  11.9082279  41.1311807  61.1416158  11.9647470
  40.9543446  62.6186647  12.2457059  40.5282399  52.9117235  13.1382947
  39.7905156  52.3994621  13.4693189  40.7809173  52.4717616  12.3266223
  40.0282419  63.8201745  12.8432097  40.3205393  64.3806802  12.1244463
  40.5381040  64.1130306  13.5985256  40.6294027  45.6893487  13.7324716
  40.9352903  44.8290850  13.4450631  41.3546631  46.2811107  13.5323710
  26.9218383  56.0924173  12.1206314  26.7242783  55.4993534  11.3957380
  26.3665047  55.7876383  12.8382253  34.9015106  55.9847280  14.2400907
  34.9563716  55.0321116  14.1643383  34.0906308  56.1406719  14.7242205
  36.0506300  59.9127403   5.4779190  35.6125730  59.1963262   5.0184827
  36.7916741  60.1403517   4.9164282  32.8407466  54.6024339  11.9991286
  32.0275332  54.9018510  12.4056478  33.3366461  54.2080028  12.7165768
  34.9916044  64.5982096  13.9325550  34.9492223  64.8242943  13.0034082
  35.9078743  64.3645471  14.0811352  44.1679415  58.1884600  11.5355509
  44.0297314  58.3786196  10.6076698  43.8115634  58.9503983  11.9923560
  32.3321541  52.1742695  17.6152521  32.9720920  52.0331454  16.9175484
  31.4999072  51.8877208  17.2391123  44.1948795  60.2561127  16.5466780
  44.6285301  60.1636416  17.3949834  44.9080375  60.2318627  15.9086796
  33.1081845  61.4745125  13.7287513  33.9022443  60.9795445  13.5270088
  32.3973537  60.9462988  13.3655219  37.9276689  63.8563221  18.0799881
  37.9813712  64.4254157  18.8477597  37.0591471  64.0265106  17.7153918
  29.4164608  55.6188207   9.8047266  28.4862197  55.5572662  10.0217228
  29.5122080  55.0964160   9.0083907  29.3350158  52.1443020  12.3925508
  29.5956975  53.0588353  12.2834668  30.1567330  51.6767462  12.5422120
  30.8075083  53.5580777  19.5624332  31.4798136  53.3498139  18.9136981
  29.9804869  53.3602863  19.1229564  45.0564344  60.2984827  19.0799666
  45.2500234  61.2030638  19.3258941  44.9564962  59.8392246  19.9138251
  40.1179453  60.4491570  24.6540546  39.9664959  60.2202122  23.7370630
  40.1084132  61.4062172  24.6671891  36.8864789  58.0223483  19.6386813
  37.8156849  58.1734642  19.4655780  36.4655819  58.1107504  18.7835459
  35.6853121  62.0474147  17.4085350  35.5464207  61.6792932  18.2811288
  34.8967717  62.5621787  17.2369308  36.2801273  67.1483244   8.7510887
  36.4553029  66.6771287   9.5656509  35.5934061  67.7749010   8.9792148
  37.2358336  61.4255750  14.7974188  36.9008169  61.3856520  15.6931838
  36.7362282  60.7600466  14.3244598  31.2102580  56.8323380  20.3226769
  31.0722378  56.1003619  20.9238308  32.1207504  56.7432280  20.0410957
  40.1717528  58.7711784   5.0711248  39.5546698  58.0458612   4.9744300
  39.7034016  59.5321145   4.7278322  33.8384881  56.5443339  19.8110449
  34.5484499  55.9036531  19.7697067  33.7954189  56.7956234  20.7336630
  41.8271659  63.4810693  22.7317028  41.7684206  62.7969913  22.0647611
  42.2291178  64.2229683  22.2797654  32.5513815  53.5308557  21.6306088
  32.0151172  53.0799296  22.2827685  31.9630523  53.6654466  20.8876553
  30.8462358  70.2972606  15.5250747  31.0858956  70.9291131  16.2029766
  30.0031555  69.9460647  15.8116106  31.9616074  52.9897209   4.1932552
  31.0845540  52.8686009   3.8294799  32.4373827  52.1983287   3.9411441
  41.8289067  61.4450277  20.9631008  40.9415845  61.1076198  21.0857407
  42.3987618  60.7133308  21.1999773  23.4818214  57.7774368  14.2874059
  24.1689254  57.4636098  13.6995074  23.3266343  58.6815733  14.0141311
  28.2852936  52.6664565  18.7159083  28.2011125  52.0590234  17.9809493
  27.4635642  53.1573583  18.7168579  35.3590220  66.1051729  17.9292251
  35.2860392  66.9106700  18.4411555  34.9167613  66.3043695  17.1040272
  35.1480000  65.3423499  11.4395072  34.3647522  65.8845179  11.5333297
  35.8472745  65.8597479  11.8389314  38.4576650  51.1518128  14.0829278
  38.9545349  50.3988091  13.7630348  37.6863631  51.1882445  13.5172487
  46.3106407  56.8558494  15.7247569  46.2996283  57.7383209  15.3541502
  45.4423787  56.5030045  15.5302106  37.8188904  66.0038563  20.0850410
  38.5316876  66.6386028  20.0126311  37.3278932  66.1002429  19.2690411
  39.5406431  59.9089816  11.6567701  38.6062709  60.0291278  11.4872406
  39.7183099  59.0062282  11.3927711  35.0411619  53.2935511  13.8100962
  34.6709406  52.7406552  14.4981868  35.5370711  52.6893645  13.2575963
  42.9278982  55.7507135  12.1917735  43.3939434  56.5835127  12.1178038
  43.3786482  55.2852116  12.8962994  32.8700817  63.7533006  20.9055980
  33.5710277  64.3869489  21.0585375  32.3995932  64.0947738  20.1451620
  40.9955213  62.0950956   9.1903887  41.2715057  61.9807551  10.0997762
  40.1259712  61.6968441   9.1516061  40.8995645  48.1187722  16.2308637
  39.9858724  48.3491949  16.3990844  41.3288746  48.2026166  17.0822669
  40.6702103  56.3077614  18.7308531  40.0173553  56.5553521  18.0760984
  41.0482483  55.4941752  18.3971008  37.6309277  66.3437307  12.8336701
  37.8131672  65.5258963  13.2964453  38.4542263  66.5604999  12.3961591
  37.9651443  65.2705492  10.0951750  38.4939209  64.7597947   9.4821912
  38.2279662  64.9548022  10.9597283  36.7189676  57.0497425  25.2174568
  36.0430313  56.9491554  25.8876943  37.5417310  56.8936639  25.6810565
  28.4668535  63.2869361  17.8387083  29.0521972  62.5413049  17.9714987
  28.2693374  63.5973318  18.7223747  31.3207190  66.3220609  12.8549525
  30.6517566  66.8066736  12.3713566  31.1820060  66.5689829  13.7692904
  23.0586190  55.8574962  16.5591526  23.0970289  55.3238552  17.3528644
  22.5526483  55.3310167  15.9402503  35.4612459  68.3564352  19.4532184
  36.0130767  68.5195974  20.2181269  35.8018652  68.9468790  18.7812209
  29.9129225  52.7762635  23.7027103  30.5401264  52.3939712  24.3164627
  29.0557144  52.5576837  24.0682795  40.3123333  63.1825610  25.3080838
  40.8563237  63.7955568  24.8135793  39.7310178  63.7405188  25.8247851
  26.6894768  54.5839064   9.6345458  26.9848209  53.6749742   9.5812511
  25.7882803  54.5626803   9.3126460  38.5980846  66.3046328  16.4395866
  38.4731986  65.5036068  15.9306812  39.2559937  66.7992521  15.9509836
  30.2189015  52.6595060  15.6173006  29.4975600  53.2731028  15.4780480
  31.0082270  53.1952825  15.5389652  40.6615755  64.1055348  18.0675416
  39.7146090  63.9860699  17.9953743  41.0098528  63.2177846  18.1501678
  28.4182609  52.2653161   9.7584783  28.0895315  51.3850540   9.5759889
  28.7721980  52.2100830  10.6461172  37.6662188  63.9008064  14.2679768
  37.5187150  62.9724772  14.4487338  38.4915681  63.9228155  13.7836844
  31.5324432  52.5526131  10.1260260  31.8720505  53.0812053   9.4038869
  31.9796553  52.8906537  10.9018827  41.2696310  64.7236623  15.3544641
  42.1942857  64.5179484  15.2169092  41.1011613  64.4753024  16.2633983
  34.8784345  48.0212494  18.0290652  35.7010414  47.5472973  17.9069542
  35.1222408  48.8002978  18.5289338  33.5192579  51.0500753   8.3253553
  34.2400942  51.4282006   7.8217270  32.8957884  51.7689630   8.4288531
  37.6623702  51.7545902   9.2611886  37.8787317  52.6370540   8.9600714
  37.1817769  51.3632115   8.5317528  32.4022924  54.7131615  15.8382630
  32.2567504  55.0271918  16.7306912  31.9248127  55.3316515  15.2853529
  34.2619307  51.7034163  15.8863520  34.2480875  50.8075256  15.5495818
  34.9791735  51.7104827  16.5201806  41.0591626  65.2422290  10.7106733
  41.2328504  64.6768713   9.9580585  41.5520517  66.0423185  10.5286222
  26.8768586  57.2536959  18.7770291  26.3322054  58.0296767  18.9090566
  27.7547936  57.6007764  18.6189413  33.6656203  50.5848543  11.1551090
  33.7872114  49.6565190  11.3541977  33.3758245  50.5987229  10.2429405
  36.5347393  48.2703454  14.2917810  36.5569090  48.3342787  13.3369789
  36.9515452  47.4307962  14.4858316  46.9131017  58.0058713  12.3297032
  47.3562163  57.2566039  11.9316156  46.0357528  57.9968850  11.9470764
  42.0466799  64.5589055   7.8103631  42.7417703  65.1795747   8.0290945
  42.3889949  63.7084406   8.0856009  27.6634608  56.3806856  21.6700448
  26.9216344  56.5289491  22.2565079  27.3427352  56.6415121  20.8067198
  43.9458222  62.0088760   9.3390962  44.4709546  62.3476033   8.6140282
  43.8580574  61.0735776   9.1554096  35.6078270  65.9222834  21.4680838
  35.9165397  65.6771981  22.3403538  36.4053752  66.1269472  20.9799708
  35.6298882  68.0760744  13.6986215  35.1903873  67.5837122  14.3919071
  36.3806999  67.5333711  13.4578290  28.1091221  64.2672284  13.7010843
  28.9349241  63.9676056  13.3209486  27.7585273  63.4979907  14.1500632
  33.0772755  63.6198753  15.7708516  32.4552764  62.9569458  15.4710744
  33.7477621  63.6459885  15.0882164  26.3099826  62.1858611  14.6599776
  25.4731735  61.7580785  14.4783778  26.2823472  62.3791054  15.5970568
  43.6352128  62.6421664  24.6442160  42.8447671  62.6245803  24.1046659
  43.3985482  63.1809958  25.3991196  43.7550003  59.4914130  21.9574888
  43.8048008  59.3264138  22.8990411  43.6463926  58.6241389  21.5672769
  32.6386261  62.1702676   9.2466977  32.7874382  62.8538140   8.5933650
  33.4452705  62.1507766   9.7616433  45.2568200  61.9111072  22.2016910
  44.9653008  62.2741052  23.0380371  44.6440331  61.1978080  22.0230242
  46.4563882  59.4763952  14.7219480  47.2910773  59.9153756  14.8857040
  46.5923011  59.0002605  13.9027726  43.5055388  57.0343686  20.6696968
  43.9809509  57.2271333  19.8615819  42.5820953  57.0902872  20.4240351
  30.3938894  58.1967854  10.2528046  30.1484936  57.2930184  10.4508256
  30.5634809  58.1985004   9.3107524  29.6634542  53.9296211   7.7514207
  28.9703787  54.0040566   7.0954243  29.4186294  53.1656555   8.2735724
  38.3348198  45.4891813  15.1553698  38.6149952  44.8215002  15.7814125
  39.1198805  45.6820908  14.6428362  36.1381667  64.6650806   6.7178724
  35.5655634  65.2840994   6.2649196  36.7114461  65.2150168   7.2518646
  42.2057057  53.9109447  18.9025273  43.1574480  54.0107544  18.9237497
  42.0360507  53.1187715  19.4123358  39.3578927  64.9487957   7.8487307
  40.2909600  64.8833518   8.0520182  39.2702140  65.7844223   7.3901839
  41.9866943  64.2653827   4.8091254  41.9080575  63.9313691   5.7027012
  42.8076610  64.7575595   4.8082727  44.6845135  57.1315566  18.0167573
  44.6521455  56.1931567  18.2027257  45.2945758  57.2099603  17.2833398
  36.5228465  56.0011619   4.0594777  37.4687570  55.8717827   4.1283195
  36.1442710  55.2626281   4.5364205  44.8339623  53.9226610  18.0625856
  44.3178672  53.1385066  17.8755785  45.7179572  53.5945326  18.2272376
  42.4950350  47.6667625  14.0221669  42.2975171  47.3582713  14.9065001
  43.1050056  48.3929264  14.1519599  50.5021684  58.1931573  17.1573610
  51.2325073  57.9316861  17.7181313  49.8928630  57.4560295  17.1975678
  48.5836982  56.3339436  17.7548061  47.8570145  56.1995401  17.1464552
  48.1684268  56.6416264  18.5604779  36.4067158  60.0529365  25.5195434
  37.3270167  60.2307964  25.7135480  36.3716741  59.1085411  25.3675133
  34.7071383  53.9261596   3.9949662  33.8002838  53.6294708   4.0712376
  34.9847364  53.6291414   3.1283948  25.6249323  55.2467959  14.4448709
  25.3052107  54.3933267  14.1523083  25.0782751  55.4616537  15.2006676
  29.4029231  57.9630400  18.1618215  29.6215240  58.8947508  18.1806249
  29.8155004  57.6038374  18.9473019  36.3233448  48.4698485  10.1493903
  35.5134177  48.1245570  10.5249150  37.0117865  48.1606029  10.7381515
  38.2523997  47.5476532  11.7718200  38.8055035  47.9671986  12.4308223
  38.4894083  46.6212280  11.8141156  34.2757096  53.5363606  27.5520964
  34.1753823  54.4857963  27.4833055  34.0578638  53.2081845  26.6797034
  33.4770167  50.7848531   4.1361641  34.3389331  51.1103429   4.3957459
  33.6620511  49.9980027   3.6234707  25.4937583  58.8670871  16.4141830
  24.8001054  58.4524823  15.9011785  26.2410574  58.9091407  15.8175249
  41.6302804  49.6577057  11.2796864  41.0501473  50.3161861  10.8974917
  41.3638736  48.8354402  10.8684282  40.0806370  49.0582115  13.4818185
  40.5806148  49.1698650  12.6732503  40.7241978  48.7543168  14.1218993
  34.1388366  56.9660745  26.3686026  33.6555448  57.7661105  26.5749915
  34.2249305  56.9768689  25.4153470  27.4074326  58.7989124  14.2907845
  27.3845014  58.8976812  13.3389728  27.7174962  59.6454275  14.6125011
  30.0661703  60.8565279  18.4054459  31.0204957  60.8249222  18.3384391
  29.8674227  60.3955903  19.2204685  30.6561086  59.4266395  20.9725257
  31.4753975  59.9210474  20.9960094  30.9297893  58.5098364  20.9442825
  40.4127682  51.8177148  10.3353213  39.5253537  52.1026798  10.1173407
  40.8281671  51.6570911   9.4880489  43.7642218  51.8423669  14.0507552
  44.5402608  52.3320121  14.3232169  43.0390352  52.2681723  14.5079421
  46.2014777  52.5551288  15.1081492  46.7959267  52.3147024  14.3974801
  46.2741360  51.8358418  15.7355029  28.4211932  66.3984899  15.4224657
  28.2866400  65.6385300  14.8562655  28.0043994  67.1225799  14.9553446
  39.5570895  61.5821822   4.4301233  40.2606745  61.7871825   5.0458888
  38.8333544  62.1498584   4.6950316  40.3868706  57.3331684  10.5503503
  40.3303907  57.7900235   9.7111135  40.9397048  56.5722368  10.3726345
  44.1973511  53.1221415  11.3753622  43.9410446  52.7218051  12.2061830
  43.5726379  53.8365209  11.2503761  48.5085849  55.8617489  13.8824914
  47.9485407  55.9310678  14.6556476  47.9029353  55.6858473  13.1624410
  31.5781058  67.2954216  15.6343100  31.4613442  68.2399648  15.5321790
  30.7573504  66.9927777  16.0228899  41.4657593  62.0204352   6.4799693
  42.3003197  61.5885550   6.2977167  41.3041936  61.8486365   7.4076587
  41.1203485  58.5236465   7.8456032  41.0652289  58.3580736   6.9044476
  40.4949540  59.2312498   8.0018222  25.9096000  53.7604529  21.6717454
  26.5554863  53.2503483  22.1604679  25.7013151  54.4973211  22.2460879
  38.4349392  60.8285377  27.1709595  39.3040552  61.0026029  26.8096230
  37.9556143  61.6479794  27.0485324  34.4299610  48.0244574   7.4241350
  34.4178280  48.9686414   7.5809621  35.3223032  47.8414719   7.1300812
  32.6035572  67.9482478  18.8499028  33.5062819  67.9806088  19.1665523
  32.3772942  67.0182929  18.8645364  34.3589174  66.7013464  15.5109107
  33.4084805  66.7015326  15.3973479  34.6621660  65.9546199  14.9945142
  38.2451730  44.6187351  11.6787287  37.4784126  44.0645837  11.8243969
  38.6562435  44.6909219  12.5401439  50.0941868  72.5374003  16.5754869
  50.7320278  72.4180750  15.8718209  49.9762711  73.4854847  16.6342822
  46.9031574  72.4901431  16.5116394  46.5650086  72.3742495  15.6236929
  47.7721342  72.0892596  16.4917400  42.7618390  74.3436907  12.5013285
  42.1983255  74.2526844  11.7329573  42.6470785  73.5236812  12.9815778
  47.3851357  73.6436282  22.4702600  47.3739998  73.2489081  21.5983103
  47.5471996  72.9102355  23.0636371  40.3082822  75.8388099  15.3397505
  41.1004114  75.4978923  14.9243805  40.5479472  75.9483074  16.2599659
  44.1058618  76.4273394  21.4181784  43.8148484  77.3319025  21.3028450
  44.7415602  76.4689922  22.1325853  45.0314825  73.8050243  18.0083143
  45.6278397  73.5806265  17.2940106  45.0889797  73.0634988  18.6108591
  49.6483136  70.2625457  13.6508077  50.4346225  69.8444880  13.2998494
  49.9121841  71.1671549  13.8189726  55.0491563  70.2000690  14.5541056
  55.7816735  69.6299907  14.7878885  54.2930919  69.8122290  14.9947561
  46.6667683  72.6227931  11.7504398  46.3025890  72.0958552  12.4617320
  47.5234799  72.2326400  11.5770884  52.5716984  63.9122264  19.0135665
  52.2400308  64.7817675  18.7896879  51.9762597  63.5958548  19.6929695
  49.0648503  76.1134810  18.4131577  48.7649226  77.0159849  18.3047384
  48.7199563  75.8466993  19.2652730  42.5160985  72.5648607  14.4468282
  41.5911481  72.4324821  14.6545973  42.7645398  73.3442826  14.9438224
  52.4645647  68.6317350  16.0929015  51.5562524  68.5632758  15.7987776
  52.4133243  69.1089295  16.9210840  39.8769796  72.2081880  15.2812071
  40.0062177  72.4616359  16.1951482  39.1967247  72.8009588  14.9616726
  46.5386513  70.0506996  24.0363912  45.7619847  70.6100916  24.0266776
  47.1777076  70.5363779  24.5578782  54.3307293  66.8333788  17.8706888
  53.6881674  67.1266322  17.2246683  53.8262222  66.7186709  18.6760085
  44.7932885  72.8592449  23.5981879  45.5347569  73.3977493  23.3216702
  44.0869871  73.4858738  23.7553431  50.2688225  75.0021589  22.1954040
  50.6771581  74.5604000  21.4508673  49.5465486  74.4274217  22.4488233
  46.6219295  69.9394196  19.5687597  47.4680490  70.3633610  19.7122246
  46.5617932  69.2827820  20.2626160  50.5917039  75.5622780  15.9506329
  49.9625902  75.7268494  15.2482397  50.2042701  75.9764390  16.7217293
  49.7718740  67.5998565  21.2268771  49.5279672  68.3540625  20.6903047
  50.0478671  67.9783912  22.0616018  51.7257203  74.1437177  19.9046037
  51.9374098  74.7868937  19.2280418  51.6786951  73.3099493  19.4367967
  49.3283432  66.7554998  16.8082609  48.4667911  67.0536251  17.0999346
  49.3545866  66.9725396  15.8763641  46.1445001  75.2997188  13.2156414
  46.6083347  75.5784891  12.4261037  45.8801799  74.3980633  13.0329505
  43.0369082  74.8468670  16.1536178  43.6070439  75.2755938  15.5153662
  43.6277194  74.5651254  16.8520363  45.0813887  71.4220340  10.0245979
  45.7837931  71.8741384  10.4919906  44.7494516  70.7804159  10.6525873
  43.5294249  70.0132097  24.3997189  42.8992909  70.6948378  24.6332586
  43.4230337  69.9015179  23.4550327  38.8239221  69.6803893  15.3263113
  38.0338275  69.9361422  14.8503224  39.3150469  70.4952231  15.4315154
  52.8403031  77.0209132  18.0768394  53.6620475  76.6189320  17.7951075
  52.8365434  76.9177366  19.0284510  40.7753967  70.0448472  12.2846590
  39.9785130  70.1567167  12.8030085  40.5479559  70.3835125  11.4187480
  46.6059634  76.5693176  20.2329104  46.6704067  77.0313583  21.0687276
  45.8970558  75.9390541  20.3611414  37.1076924  69.9334384  17.7578104
  37.3584963  70.8181394  18.0235680  37.6436473  69.7538985  16.9853196
  42.8074992  64.3152863  26.7622440  42.4141937  63.7619062  27.4370084
  43.6241132  64.6263441  27.1528957  39.7737049  75.7536721  10.6736010
  40.2861570  76.5479971  10.8241574  40.4259762  75.0563012  10.6069611
  45.7242953  65.7310742  24.3542696  46.4652666  66.3317895  24.2747159
  45.9560875  64.9888380  23.7960739  40.8684291  70.9167109  22.6320926
  40.7537806  70.0152367  22.9328025  40.0128808  71.1630806  22.2805743
  47.9476128  78.8584850  24.2308427  47.5039983  78.0721228  23.9129331
  48.6093342  79.0464000  23.5652318  42.7063249  80.3880651  18.7569105
  43.2570675  80.2597715  17.9846099  41.8674725  80.6875540  18.4063998
  50.0457366  79.1387650  22.2589828  50.0275842  79.9596531  21.7670097
  50.9677286  79.0141725  22.4839969  46.5030421  76.6531779  23.1013336
  47.0358757  75.8920067  22.8712644  45.9744502  76.3605431  23.8437491
  49.6700116  61.7591845  18.6306978  49.3264385  62.6493487  18.5546089
  50.0379078  61.5693503  17.7676563  37.7385966  74.0825375  11.4495580
  38.5761188  74.4922384  11.2329288  37.9164234  73.1424818  11.4195774
  47.2197509  66.5950157  12.1964652  46.3639106  66.2057007  12.0170290
  47.6324461  66.6742118  11.3364437  48.7496656  64.1296500  16.5956211
  48.2461451  64.0926635  15.7824017  49.0427263  65.0389243  16.6552868
  44.9939542  64.2135230  15.6022393  45.8592539  64.0178039  15.2428283
  45.0617051  63.9845582  16.5291750  52.8475979  73.9766792  15.7299195
  52.1899654  74.6666053  15.8179323  53.6516378  74.3663224  16.0733181
  42.6001861  66.4437438  12.9738760  43.1745613  66.2212619  12.2411953
  43.1872843  66.5126132  13.7267361  51.6581438  72.3311165  13.7803136
  52.1713320  72.9641157  14.2824846  52.3082662  71.7312360  13.4146496
  44.9024529  63.3178687  11.7013829  44.2488941  63.0027704  11.0770444
  44.8605003  62.6954427  12.4273652  48.1362269  69.8060620  16.0261477
  47.2184830  70.0275567  15.8683165  48.5522413  69.8806931  15.1673184
  51.3676154  68.2409152  13.1382947  50.6298911  67.7286538  13.4693189
  51.6202927  67.8009534  12.3266223  51.4687781  61.0185404  13.7324716
  51.7746658  60.1582768  13.4450631  52.1940386  61.6103024  13.5323710
  37.7612137  71.4216091  12.1206314  37.5636537  70.8285451  11.3957380
  37.2058801  71.1168301  12.8382253  45.7408861  71.3139197  14.2400907
  45.7957471  70.3613034  14.1643383  44.9300063  71.4698636  14.7242205
  43.6801221  69.9316257  11.9991286  42.8669086  70.2310428  12.4056478
  44.1760215  69.5371946  12.7165768  49.2775433  70.3958081  20.8306180
  49.6324820  70.6229555  21.6900645  49.9247564  70.7276458  20.2083435
  43.1715296  67.5034613  17.6152521  43.8114675  67.3623372  16.9175484
  42.3392826  67.2169126  17.2391123  43.9475599  76.8037043  13.7287513
  44.7416198  76.3087363  13.5270088  43.2367292  76.2754906  13.3655219
  48.7670444  79.1855138  18.0799881  48.8207466  79.7546075  18.8477597
  47.8985225  79.3557024  17.7153918  40.2558363  70.9480125   9.8047266
  39.3255951  70.8864580  10.0217228  40.3515835  70.4256077   9.0083907
  40.1743912  67.4734938  12.3925508  40.4350729  68.3880271  12.2834668
  40.9961084  67.0059380  12.5422120  41.6468837  68.8872695  19.5624332
  42.3191891  68.6790057  18.9136981  40.8198624  68.6894781  19.1229564
  55.8958099  75.6276745  19.0799666  56.0893989  76.5322556  19.3258941
  55.7958717  75.1684164  19.9138251  47.5494409  65.5134636  21.5789993
  46.9022324  66.2124585  21.4854469  48.3195425  65.9470780  21.9466241
  50.9573207  75.7783488  24.6540546  50.8058714  75.5494039  23.7370630
  50.9477887  76.7354089  24.6671891  47.7258544  73.3515401  19.6386813
  48.6550604  73.5026560  19.4655780  47.3049574  73.4399421  18.7835459
  46.5246875  77.3766065  17.4085350  46.3857961  77.0084849  18.2811288
  45.7361472  77.8913704  17.2369308  48.0752091  76.7547668  14.7974188
  47.7401923  76.7148438  15.6931838  47.5756036  76.0892384  14.3244598
  42.0496335  72.1615298  20.3226769  41.9116133  71.4295536  20.9238308
  42.9601258  72.0724198  20.0410957  44.6778635  71.8735257  19.8110449
  45.3878254  71.2328449  19.7697067  44.6347943  72.1248152  20.7336630
  52.6665414  78.8102610  22.7317028  52.6077960  78.1261830  22.0647611
  53.0684932  79.5521600  22.2797654  43.3907569  68.8600475  21.6306088
  42.8544926  68.4091213  22.2827685  42.8024278  68.9946384  20.8876553
  52.6682821  76.7742194  20.9631008  51.7809600  76.4368116  21.0857407
  53.2381372  76.0425225  21.1999773  34.3211968  73.1066286  14.2874059
  35.0083008  72.7928016  13.6995074  34.1660097  74.0107651  14.0141311
  39.1246690  67.9956483  18.7159083  39.0404879  67.3882152  17.9809493
  38.3029397  68.4865501  18.7168579  46.1983975  81.4343647  17.9292251
  46.1254146  82.2398618  18.4411555  45.7561368  81.6335612  17.1040272
  49.2970404  66.4810046  14.0829278  49.7939104  65.7280008  13.7630348
  48.5257386  66.5174363  13.5172487  57.1500162  72.1850412  15.7247569
  57.1390038  73.0675127  15.3541502  56.2817541  71.8321962  15.5302106
  48.6582658  81.3330481  20.0850410  49.3710630  81.9677945  20.0126311
  48.1672687  81.4294347  19.2690411  45.8805373  68.6227429  13.8100962
  45.5103161  68.0698469  14.4981868  46.3764466  68.0185563  13.2575963
  43.7094572  79.0824924  20.9055980  44.4104031  79.7161407  21.0585375
  43.2389687  79.4239656  20.1451620  51.7389399  63.4479640  16.2308637
  50.8252479  63.6783866  16.3990844  52.1682501  63.5318084  17.0822669
  51.5095858  71.6369532  18.7308531  50.8567308  71.8845439  18.0760984
  51.8876238  70.8233670  18.3971008  47.5583431  72.3789343  25.2174568
  46.8824068  72.2783472  25.8876943  48.3811065  72.2228556  25.6810565
  39.3062290  78.6161279  17.8387083  39.8915727  77.8704967  17.9714987
  39.1087128  78.9265236  18.7223747  33.8979944  71.1866879  16.5591526
  33.9364044  70.6530470  17.3528644  33.3920237  70.6602085  15.9402503
  46.3006214  83.6856270  19.4532184  46.8524522  83.8487892  20.2181269
  46.6412407  84.2760708  18.7812209  41.2770707  66.0331420  20.0554069
  41.3412033  66.8946251  19.6431466  41.2137827  65.4205422  19.3226427
  40.7522979  68.1054552  23.7027103  41.3795018  67.7231630  24.3164627
  39.8950898  67.8868754  24.0682795  51.1517088  78.5117528  25.3080838
  51.6956992  79.1247486  24.8135793  50.5703933  79.0697106  25.8247851
  37.5288522  69.9130982   9.6345458  37.8241963  69.0041660   9.5812511
  36.6276558  69.8918721   9.3126460  41.0582769  67.9886978  15.6173006
  40.3369355  68.6022946  15.4780480  41.8476025  68.5244743  15.5389652
  51.5009509  79.4347266  18.0675416  50.5539845  79.3152617  17.9953743
  51.8492282  78.5469764  18.1501678  43.8609083  65.3241405  21.8913658
  44.3843484  65.5703701  22.6539967  43.6421416  66.1561439  21.4716795
  39.2576364  67.5945079   9.7584783  38.9289070  66.7142458   9.5759889
  39.6115734  67.5392748  10.6461172  42.3718187  67.8818049  10.1260260
  42.7114259  68.4103970   9.4038869  42.8190307  68.2198455  10.9018827
  45.0661628  66.2655100  19.5763329  44.7258448  65.4662913  19.9784008
  44.3600634  66.5656811  19.0040162  45.7178099  63.3504412  18.0290652
  46.5404169  62.8764890  17.9069542  45.9616163  64.1294896  18.5289338
  44.3586334  66.3792671   8.3253553  45.0794696  66.7573923   7.8217270
  43.7351638  67.0981547   8.4288531  48.5017457  67.0837820   9.2611886
  48.7181071  67.9662457   8.9600714  48.0211524  66.6924033   8.5317528
  43.2416678  70.0423533  15.8382630  43.0961259  70.3563836  16.7306912
  42.7641882  70.6608433  15.2853529  45.1013061  67.0326081  15.8863520
  45.0874630  66.1367174  15.5495818  45.8185489  67.0396744  16.5201806
  46.9539192  67.4663421  17.9316647  46.6956970  68.3880492  17.9300978
  46.4224232  67.0693855  18.6217111  37.7162340  72.5828877  18.7770291
  37.1715808  73.3588685  18.9090566  38.5941690  72.9299682  18.6189413
  44.5049957  65.9140461  11.1551090  44.6265868  64.9857107  11.3541977
  44.2151999  65.9279147  10.2429405  47.3741147  63.5995371  14.2917810
  47.3962844  63.6634705  13.3369789  47.7909206  62.7599880  14.4858316
  38.5028362  71.7098773  21.6700448  37.7610098  71.8581409  22.2565079
  38.1821106  71.9707039  20.8067198  46.4472025  81.2514752  21.4680838
  46.7559151  81.0063898  22.3403538  47.2447507  81.4561390  20.9799708
  38.9484976  79.5964202  13.7010843  39.7742996  79.2967974  13.3209486
  38.5979028  78.8271825  14.1500632  43.9166509  78.9490670  15.7708516
  43.2946518  78.2861375  15.4710744  44.5871376  78.9751802  15.0882164
  37.1493581  77.5150529  14.6599776  36.3125489  77.0872703  14.4783778
  37.1217226  77.7082972  15.5970568  43.9891037  67.4272458  25.3641022
  44.0379192  68.3034581  24.9818792  44.5313551  66.8849851  24.7912666
  54.4745882  77.9713582  24.6442160  53.6841426  77.9537720  24.1046659
  54.2379237  78.5101875  25.3991196  54.5943757  74.8206048  21.9574888
  54.6441762  74.6556055  22.8990411  54.4857681  73.9533307  21.5672769
  51.8847520  70.8036976  23.2734195  52.7857382  70.6643441  22.9818193
  51.9595494  70.9691431  24.2132372  46.2190325  68.1803831  22.1187381
  45.3493634  68.4737397  21.8469970  46.4549805  68.7644276  22.8394645
  56.0961954  77.2402990  22.2016910  55.8046762  77.6032970  23.0380371
  55.4834085  76.5269998  22.0230242  54.3449142  72.3635604  20.6696968
  54.8203264  72.5563250  19.8615819  53.4214708  72.4194790  20.4240351
  41.2332649  73.5259771  10.2528046  40.9878691  72.6222101  10.4508256
  41.4028563  73.5276922   9.3107524  48.9229359  64.3983448  19.6352802
  49.4411303  65.1344475  19.3099290  48.5684492  64.7047441  20.4699561
  40.5028296  69.2588129   7.7514207  39.8097541  69.3332484   7.0954243
  40.2580048  68.4948473   8.2735724  49.1741953  60.8183730  15.1553698
  49.4543707  60.1506919  15.7814125  49.9592560  61.0112826  14.6428362
  53.0450811  69.2401364  18.9025273  53.9968234  69.3399462  18.9237497
  52.8754262  68.4479633  19.4123358  51.0665191  66.3256947  19.0884674
  50.4715123  66.6061960  18.3931163  50.7814887  66.8150848  19.8601415
  55.5238889  72.4607484  18.0167573  55.4915209  71.5223485  18.2027257
  56.1339513  72.5391521  17.2833398  55.6733378  69.2518527  18.0625856
  55.1572426  68.4676984  17.8755785  56.5573326  68.9237244  18.2272376
  53.3344105  62.9959543  14.0221669  53.1368926  62.6874631  14.9065001
  53.9443810  63.7221182  14.1519599  61.3415439  73.5223491  17.1573610
  62.0718827  73.2608779  17.7181313  60.7322384  72.7852213  17.1975678
  59.4230736  71.6631353  17.7548061  58.6963900  71.5287318  17.1464552
  59.0078023  71.9708182  18.5604779  47.2460913  75.3821283  25.5195434
  48.1663922  75.5599882  25.7135480  47.2110496  74.4377328  25.3675133
  36.4643078  70.5759877  14.4448709  36.1445862  69.7225185  14.1523083
  35.9176506  70.7908455  15.2006676  40.2422985  73.2922318  18.1618215
  40.4608995  74.2239426  18.1806249  40.6548759  72.9330292  18.9473019
  47.1627203  63.7990403  10.1493903  46.3527931  63.4537488  10.5249150
  47.8511620  63.4897947  10.7381515  49.0917751  62.8768450  11.7718200
  49.6448790  63.2963903  12.4308223  49.3287838  61.9504198  11.8141156
  45.1150850  68.8655523  27.5520964  45.0147577  69.8149880  27.4833055
  44.8972392  68.5373762  26.6797034  36.3331338  74.1962788  16.4141830
  35.6394809  73.7816741  15.9011785  37.0804329  74.2383325  15.8175249
  52.4696558  64.9868975  11.2796864  51.8895227  65.6453779  10.8974917
  52.2032491  64.1646320  10.8684282  50.9200125  64.3874033  13.4818185
  51.4199903  64.4990567  12.6732503  51.5635733  64.0835086  14.1218993
  44.9782120  72.2952662  26.3686026  44.4949202  73.0953022  26.5749915
  45.0643059  72.3060607  25.4153470  38.2468080  74.1281042  14.2907845
  38.2238768  74.2268729  13.3389728  38.5568717  74.9746193  14.6125011
  40.9055458  76.1857197  18.4054459  41.8598711  76.1541139  18.3384391
  40.7067982  75.7247821  19.2204685  41.4954840  74.7558313  20.9725257
  42.3147729  75.2502392  20.9960094  41.7691648  73.8390281  20.9442825
  51.2521436  67.1469065  10.3353213  50.3647291  67.4318716  10.1173407
  51.6675425  66.9862829   9.4880489  54.6035972  67.1715586  14.0507552
  55.3796362  67.6612039  14.3232169  53.8784107  67.5973641  14.5079421
  57.0408531  67.8843206  15.1081492  57.6353022  67.6438942  14.3974801
  57.1135115  67.1650336  15.7355029  39.2605687  81.7276816  15.4224657
  39.1260155  80.9677217  14.8562655  38.8437749  82.4517716  14.9553446
  42.4174813  82.6246134  15.6343100  42.3007197  83.5691566  15.5321790
  41.5967259  82.3219695  16.0228899  36.7489754  69.0896447  21.6717454
  37.3948618  68.5795401  22.1604679  36.5406905  69.8265129  22.2460879
  49.2743146  76.1577294  27.1709595  50.1434306  76.3317947  26.8096230
  48.7949898  76.9771711  27.0485324  45.2693365  63.3536492   7.4241350
  45.2572035  64.2978331   7.5809621  46.1616787  63.1706637   7.1300812
  43.4429327  83.2774395  18.8499028  44.3456573  83.3098006  19.1665523
  43.2166697  82.3474846  18.8645364  49.0845484  59.9479268  11.6787287
  48.3177880  59.3937755  11.8243969  49.4956189  60.0201137  12.5401439
  41.0887245  66.2364064  25.7692468  41.9518707  65.8800869  25.9795793
  40.5152656  65.8977959  26.4567873  57.3780267  85.3798913  24.0363912
  56.6013601  85.9392833  24.0266776  58.0170830  85.8655696  24.5578782
  54.3688003  85.3424015  24.3997189  53.7386664  86.0240296  24.6332586
  54.2624091  85.2307096  23.4550327  53.6468746  79.6444781  26.7622440
  53.2535692  79.0910979  27.4370084  54.4634886  79.9555359  27.1528957
  56.5636707  81.0602660  24.3542696  57.3046420  81.6609813  24.2747159
  56.7954630  80.3180298  23.7960739  51.7078045  86.2459027  22.6320926
  51.5931560  85.3444284  22.9328025  50.8522563  86.4922724  22.2805743
  58.3888164  80.8426553  21.5789993  57.7416079  81.5416503  21.4854469
  59.1589179  81.2762697  21.9466241  54.2301324  84.1892393  21.6306088
  53.6938681  83.7383131  22.2827685  53.6418032  84.3238301  20.8876553
  49.9640445  83.3248400  18.7159083  49.8798634  82.7174070  17.9809493
  49.1423151  83.8157419  18.7168579  58.3977185  87.7081260  25.2174568
  57.7217822  87.6075390  25.8876943  59.2204819  87.5520474  25.6810565
  52.1164461  81.3623338  20.0554069  52.1805788  82.2238168  19.6431466
  52.0531581  80.7497339  19.3226427  51.5916734  83.4346470  23.7027103
  52.2188773  83.0523547  24.3164627  50.7344653  83.2160672  24.0682795
  54.7002837  80.6533322  21.8913658  55.2237239  80.8995619  22.6539967
  54.4815170  81.4853357  21.4716795  49.3422117  87.0390691  21.6700448
  48.6003853  87.1873326  22.2565079  49.0214861  87.2998957  20.8067198
  54.8284791  82.7564376  25.3641022  54.8772946  83.6326499  24.9818792
  55.3707305  82.2141769  24.7912666  57.0584079  83.5095748  22.1187381
  56.1887389  83.8029315  21.8469970  57.2943560  84.0936193  22.8394645
  55.9544605  84.1947441  27.5520964  55.8541332  85.1441798  27.4833055
  55.7366147  83.8665680  26.6797034  55.8175875  87.6244580  26.3686026
  55.3342957  88.4244940  26.5749915  55.9036814  87.6352525  25.4153470
  47.5883509  84.4188365  21.6717454  48.2342372  83.9087319  22.1604679
  47.3800660  85.1557046  22.2460879  51.9281000  81.5655982  25.7692468
  52.7912461  81.2092787  25.9795793  51.3546410  81.2269876  26.4567873
  26.2688621  25.2063137  10.9553733  25.8252475  24.4199515  10.6374638
  26.9305834  25.3942287  10.2897624  28.3669859  25.4865937   8.9835135
  28.3488334  26.3074818   8.4915404  29.2889779  25.3620012   9.2085276
  24.8242913  23.0010066   9.8258643  25.3571250  22.2398354   9.5957951
  24.2956994  22.7083718  10.5682798  34.2170591  21.9755032   5.8044972
  34.4106481  22.8800843   6.0504247  34.1171209  21.5162451   6.6383557
  29.2785700  22.1261775  11.3785853  29.1271206  21.8972327  10.4615937
  29.2690379  23.0832376  11.3917198  30.9877906  25.1580898   9.4562335
  30.9290452  24.4740118   8.7892918  31.3897425  25.8999888   9.0042961
  30.9895313  23.1220482   7.6876314  30.1022092  22.7846403   7.8102713
  31.5593865  22.3903513   7.9245080  26.9795150  27.6808768   6.8095716
  27.6923123  28.3156233   6.7371618  26.4885179  27.7772634   5.9935718
  25.8795923  18.7267630  11.9419875  25.2036560  18.6261759  12.6122250
  26.7023557  18.5706844  12.4055872  24.6218706  30.0334557   6.1777490
  25.1737014  30.1966179   6.9426576  24.9624899  30.6238995   5.5057515
  29.4729580  24.8595815  12.0326145  30.0169484  25.4725773  11.5381100
  28.8916425  25.4175393  12.5493158  24.7684517  27.5993039   8.1926145
  25.0771644  27.3542186   9.0648844  25.5659999  27.8039677   7.7045015
  32.7958374  24.3191869  11.3687466  32.0053918  24.3016008  10.8291966
  32.5591729  24.8580163  12.1236503  32.9156250  21.1684335   8.6820195
  32.9654254  21.0034343   9.6235718  32.8070173  20.3011594   8.2918075
  30.2060012  17.1515263   9.9979501  31.1069875  17.0121728   9.7063499
  30.2807986  17.3169718  10.9377679  34.4174446  23.5881277   8.9262216
  34.1259255  23.9511257   9.7625677  33.8046578  22.8748285   8.7475548
  25.5673405  21.7299570  12.2440741  26.4876414  21.9078169  12.4380787
  25.5322988  20.7855616  12.0920440  23.2994613  18.6430950  13.0931332
  22.8161694  19.4431310  13.2995221  23.3855552  18.6538894  12.1398776
  27.5955639  22.5055582  13.8954901  28.4646798  22.6796234  13.5341536
  27.1162390  23.3249998  13.7730631  39.2548114  34.2144208   3.3000176
  39.8926524  34.0950955   2.5963516  39.1368957  35.1625052   3.3588128
  36.0637821  34.1671636   3.2361701  35.7256332  34.0512700   2.3482236
  36.9327589  33.7662801   3.2162707  36.5457604  35.3206487   9.1947906
  36.5346245  34.9259286   8.3228410  36.7078243  34.5872560   9.7881678
  29.4689068  37.5158304   2.0642812  30.2610360  37.1749128   1.6489111
  29.7085719  37.6253279   2.9844965  37.5024195  39.6878080  -5.4626943
  36.8512175  40.2732160  -5.8492930  38.2968558  40.2184275  -5.4031906
  33.2664865  38.1043599   8.1427090  32.9754731  39.0089230   8.0273757
  33.9021849  38.1460127   8.8571160  34.1921072  35.4820448   4.7328450
  34.7884644  35.2576470   4.0185413  34.2496043  34.7405193   5.3353898
  38.8089383  31.9395661   0.3753384  39.5952472  31.5215085   0.0243801
  39.0728087  32.8441754   0.5435032  44.2097810  31.8770895   1.2786363
  44.9422982  31.3070111   1.5124192  43.4537166  31.4892495   1.7192868
  35.8273930  34.2998136  -1.5250295  35.4632137  33.7728757  -0.8137374
  36.6841046  33.9096605  -1.6983810  41.7323230  25.5892469   5.7380971
  41.4006555  26.4587880   5.5142186  41.1368844  25.2728753   6.4175002
  38.2254750  37.7905015   5.1376884  37.9255473  38.6930054   5.0292691
  37.8805810  37.5237198   5.9898037  31.6767231  34.2418812   1.1713588
  30.7517728  34.1095026   1.3791280  31.9251645  35.0213031   1.6683531
  41.6251894  30.3087555   2.8174321  40.7168771  30.2402963   2.5233082
  41.5739490  30.7859500   3.6456147  29.0376043  33.8852085   2.0057377
  29.1668424  34.1386564   2.9196789  28.3573494  34.4779793   1.6862032
  33.2075530  44.5549335  -1.8952148  33.1299559  45.5057160  -1.8163668
  32.6037173  44.2095208  -1.2377222  35.6992760  31.7277201  10.7609218
  34.9226094  32.2871121  10.7512083  36.3383323  32.2133983  11.2824089
  43.4913540  28.5103993   4.5952195  42.8487920  28.8036526   3.9491990
  42.9868469  28.3956914   5.4005392  33.9539132  34.5362654  10.3227185
  34.6953816  35.0747698  10.0462009  33.2476117  35.1628943  10.4798737
  39.4294472  36.6791794   8.9199347  39.8377828  36.2374205   8.1753979
  38.7071733  36.1044422   9.1733540  35.7825542  31.6164401   6.2932904
  36.6286737  32.0403815   6.4367553  35.7224179  30.9598025   6.9871467
  39.7523286  37.2392985   2.6751636  39.1232149  37.4038699   1.9727704
  39.3648948  37.6534595   3.4462600  43.6312518  38.1747423   0.0296000
  42.9463556  38.5546324  -0.5206967  43.7156367  38.7842749   0.7627947
  38.9324987  29.2768769   7.9514078  38.6885919  30.0310830   7.4148353
  39.2084917  29.6554117   8.7861325  40.8863450  35.8207382   6.6291343
  41.0980345  36.4639142   5.9525724  40.8393198  34.9869698   6.1613273
  38.4889679  28.4325202   3.5327915  37.6274158  28.7306456   3.8244653
  38.5152113  28.6495601   2.6008948  35.3051248  36.9767393  -0.0598279
  35.7689594  37.2555096  -0.8493657  35.0408046  36.0750838  -0.2425188
  32.1975329  36.5238875   2.8781484  32.7676686  36.9526143   2.2398969
  32.7883441  36.2421459   3.5765670  32.6900496  31.6902302  11.1242495
  32.0599156  32.3718583  11.3577892  32.5836583  31.5785384  10.1795634
  42.0009278  38.6979337   4.8013700  42.8226721  38.2959525   4.5196382
  41.9971680  38.5947571   5.7529816  35.7665881  38.2463381   6.9574411
  35.8310314  38.7083788   7.7932583  35.0576805  37.6160745   7.0856721
  26.2683171  31.6104589   4.4823410  26.5191209  32.4951598   4.7480986
  26.8042719  31.4309190   3.7098502  50.0915271  35.0418086   1.1498672
  49.3378979  34.4725484   0.9942676  50.2262812  35.0080750   2.0969307
  35.4813899  39.9131488  -3.1746609  35.3459573  40.7583024  -2.7461761
  36.0223711  40.1150766  -3.9380675  31.9681238  25.9923068  13.4867747
  31.5748184  25.4389266  14.1615391  32.7847379  26.3033646  13.8774264
  30.7438181  40.5472682  -0.5195930  30.9204809  41.4690647  -0.7074947
  31.5395014  40.2331102  -0.0901551  34.8849199  27.4080947  11.0788003
  35.6258913  28.0088100  10.9992466  35.1167122  26.6658585  10.5206046
  30.0290537  32.5937314   9.3566233  29.9144052  31.6922571   9.6573332
  29.1735055  32.8401011   9.0051049  37.1082375  40.5355055  10.9553733
  36.6646229  39.7491433  10.6374638  37.7699589  40.7234205  10.2897624
  31.8669496  42.0650856   5.4814412  32.4176921  41.9367920   4.7091406
  31.0280972  42.3645745   5.1309305  39.2063613  40.8157854   8.9835135
  39.1882088  41.6366736   8.4915404  40.1283533  40.6911930   9.2085276
  35.6636667  38.3301984   9.8258643  36.1965004  37.5690272   9.5957951
  35.1350748  38.0375636  10.5682798  38.8306362  23.4362050   5.3552285
  38.4870632  24.3263692   5.2791395  39.1985325  23.2463708   4.4921870
  37.9102903  25.8066705   3.3201518  37.4067698  25.7696840   2.5069323
  38.2033510  26.7159448   3.3798175  43.7690919  36.1803016  -4.2022107
  42.9920362  35.8414175  -4.6466945  44.4482400  36.1855639  -4.8767142
  37.0289380  37.4587976  -2.6622545  36.5010742  36.7240736  -2.9749307
  36.5276883  38.2362653  -2.9082577  42.0082226  35.6536997   2.4544501
  41.3505900  36.3436258   2.5424630  42.8122625  36.0433429   2.7978488
  40.8187685  34.0081370   0.5048443  41.3319567  34.6411361   1.0070153
  41.4688909  33.4082565   0.1391803  38.0810059  43.9865694  -6.7390886
  37.4071758  44.2897391  -6.1305928  38.4675881  44.7894774  -7.0885429
  37.2968516  31.4830825   2.7506784  36.3791077  31.7045772   2.5928472
  37.7128659  31.5577136   1.8918491  38.0803563  32.8822241  -2.1190536
  38.8275382  33.3943638  -2.4283414  38.3495153  32.5606294  -1.2586143
  41.5849481  38.9887371  -1.3672414  41.1311808  38.1478281  -1.3107224
  40.9543448  39.6248769  -1.0297634  40.5282401  29.9179357  -0.1371747
  39.7905157  29.4056743   0.1938496  40.7809174  29.4779739  -0.9488470
  40.0282420  40.8263868  -0.4322596  40.3205395  41.3868925  -1.1510230
  40.5381041  41.1192429   0.3230563  34.9015108  32.9909402   0.9646214
  34.9563717  32.0383239   0.8888690  34.0906310  33.1468841   1.4487512
  34.9916045  41.6044219   0.6570857  34.9492224  41.8305065  -0.2720611
  35.9078744  41.3707593   0.8056658  38.4381679  32.0728286   7.5551486
  38.7931067  32.2999760   8.4145952  39.0853810  32.4046663   6.9328742
  44.1679416  35.1946722  -1.7399185  44.0297315  35.3848318  -2.6677995
  43.8115635  35.9566105  -1.2831134  32.3321542  29.1804817   4.3397827
  32.9720922  29.0393577   3.6420791  31.4999073  28.8939331   3.9636429
  44.1948796  37.2623249   3.2712087  44.6285302  37.1698538   4.1195141
  44.9080377  37.2380750   2.6332103  33.1081846  38.4807248   0.4532820
  33.9022445  37.9857568   0.2515395  32.3973539  37.9525111   0.0900525
  37.9276691  40.8625343   4.8045187  37.9813713  41.4316280   5.5722903
  37.0591472  41.0327228   4.4399225  30.8075084  30.5642900   6.2869639
  31.4798138  30.3560262   5.6382288  29.9804871  30.3664986   5.8474871
  45.0564345  37.3046950   5.8044972  45.2500235  38.2092760   6.0504247
  44.9564964  36.8454369   6.6383557  36.7100656  27.1904841   8.3035300
  36.0628571  27.8894790   8.2099776  37.4801672  27.6240984   8.6711548
  40.1179454  37.4553693  11.3785853  39.9664960  37.2264244  10.4615937
  40.1084134  38.4124294  11.3917198  36.8864790  35.0285605   6.3632119
  37.8156850  35.1796765   6.1901087  36.4655820  35.1169626   5.5080766
  35.6853122  39.0536270   4.1330657  35.5464208  38.6855054   5.0056595
  34.8967718  39.5683909   3.9614615  36.2801274  44.1545366  -4.5243807
  36.4553030  43.6833410  -3.7098184  35.5934062  44.7811133  -4.2962546
  37.2358337  38.4317873   1.5219495  36.9008170  38.3918643   2.4177145
  36.7362283  37.7662588   1.0489905  31.2102581  33.8385503   7.0472076
  31.0722379  33.1065741   7.6483615  32.1207505  33.7494403   6.7656264
  33.8384882  33.5505462   6.5355756  34.5484501  32.9098654   6.4942374
  33.7954190  33.8018357   7.4581936  41.8271661  40.4872815   9.4562335
  41.7684207  39.8032035   8.7892918  42.2291179  41.2291805   9.0042961
  32.5513816  30.5370680   8.3551395  32.0151173  30.0861418   9.0072991
  31.9630524  30.6716589   7.6121859  30.8462360  47.3034729   2.2496054
  31.0858958  47.9353253   2.9275072  30.0031556  46.9522769   2.5361413
  41.8289068  38.4512399   7.6876314  40.9415847  38.1138321   7.8102713
  42.3987619  37.7195430   7.9245080  28.2852937  29.6726687   5.4404389
  28.2011126  29.0652357   4.7054799  27.4635644  30.1635706   5.4413886
  35.3590221  43.1113852   4.6537558  35.2860393  43.9168823   5.1656862
  34.9167614  43.3105817   3.8285579  35.1480001  42.3485622  -1.8359621
  34.3647523  42.8907302  -1.7421396  35.8472746  42.8659601  -1.4365380
  46.3106409  33.8620617   2.4492876  46.2996285  34.7445332   2.0786809
  45.4423788  33.5092167   2.2547413  37.8188905  43.0100686   6.8095716
  38.5316877  43.6448150   6.7371618  37.3278934  43.1064552   5.9935718
  39.5406432  36.9151938  -1.6186992  38.6062711  37.0353401  -1.7882288
  39.7183100  36.0124405  -1.8826982  42.9278983  32.7569258  -1.0836958
  43.3939435  33.5897249  -1.1576655  43.3786484  32.2914239  -0.3791699
  32.8700818  40.7595129   7.6301287  33.5710278  41.3931612   7.7830681
  32.3995933  41.1009861   6.8696926  40.9955214  39.1013079  -4.0850806
  41.2715058  38.9869673  -3.1756932  40.1259713  38.7030564  -4.1238633
  40.8995646  25.1249845   2.9553943  39.9858726  25.3554071   3.1236150
  41.3288747  25.2088289   3.8067976  40.6702104  33.3139736   5.4553837
  40.0173555  33.5615644   4.8006290  41.0482484  32.5003875   5.1216315
  37.6309278  43.3499430  -0.4417992  37.8131673  42.5321086   0.0209760
  38.4542264  43.5667122  -0.8793102  37.9651444  42.2767615  -3.1802944
  38.4939210  41.7660069  -3.7932782  38.2279663  41.9610145  -2.3157411
  36.7189677  34.0559548  11.9419875  36.0430314  33.9553677  12.6122250
  37.5417311  33.8998761  12.4055872  28.4668536  40.2931484   4.5632390
  29.0521973  39.5475172   4.6960294  28.2693375  40.6035441   5.4469054
  31.3207192  43.3282731  -0.4205168  30.6517567  43.8128859  -0.9041128
  31.1820061  43.5751952   0.4938211  35.4612460  45.3626475   6.1777490
  36.0130768  45.5258096   6.9426576  35.8018654  45.9530913   5.5057515
  30.4376954  27.7101625   6.7799375  30.5018280  28.5716456   6.3676773
  30.3744074  27.0975626   6.0471734  29.9129226  29.7824757  10.4272409
  30.5401265  29.4001835  11.0409934  29.0557145  29.5638959  10.7928102
  40.3123335  40.1887732  12.0326145  40.8563239  40.8017691  11.5381100
  39.7310179  40.7467311  12.5493158  38.5980848  43.3108451   3.1641173
  38.4731987  42.5098190   2.6552118  39.2559939  43.8054644   2.6755143
  40.6615756  41.1117471   4.7920723  39.7146091  40.9922822   4.7199049
  41.0098529  40.2239969   4.8746984  33.0215329  27.0011610   8.6158965
  33.5449731  27.2473906   9.3785274  32.8027663  27.8331644   8.1962102
  37.6662189  40.9070187   0.9925075  37.5187152  39.9786894   1.1732645
  38.4915683  40.9290278   0.5082150  41.2696311  41.7298746   2.0789948
  42.1942859  41.5241607   1.9414399  41.1011614  41.4815147   2.9879289
  34.2267874  27.9425305   6.3008635  33.8864695  27.1433118   6.7029315
  33.5206881  28.2427015   5.7285468  34.8784346  25.0274617   4.7535958
  35.7010416  24.5535095   4.6314849  35.1222410  25.8065101   5.2534644
  32.4022925  31.7193738   2.5627937  32.2567506  32.0334041   3.4552218
  31.9248129  32.3378638   2.0098835  34.2619308  28.7096286   2.6108826
  34.2480877  27.8137379   2.2741124  34.9791736  28.7166949   3.2447112
  36.1145439  29.1433626   4.6561954  35.8563216  30.0650697   4.6546284
  35.5830479  28.7464060   5.3462418  41.0591627  42.2484413  -2.5647961
  41.2328505  41.6830835  -3.3174108  41.5520519  43.0485308  -2.7468471
  26.8768587  34.2599082   5.5015598  26.3322055  35.0358890   5.6335872
  27.7547937  34.6069887   5.3434719  46.9131018  35.0120836  -0.9457661
  47.3562165  34.2628161  -1.3438538  46.0357529  35.0030972  -1.3283929
  42.0466800  41.5651177  -5.4651063  42.7417704  42.1857870  -5.2463748
  42.3889950  40.7146529  -5.1898685  27.6634609  33.3868978   8.3945755
  26.9216345  33.5351614   8.9810385  27.3427353  33.6477244   7.5312504
  43.9458223  39.0150883  -3.9363732  44.4709547  39.3538156  -4.6614412
  43.8580575  38.0797898  -4.1200597  35.6078272  42.9284957   8.1926145
  35.9165398  42.6834103   9.0648844  36.4053754  43.1331595   7.7045015
  35.6298884  45.0822866   0.4231521  35.1903874  44.5899245   1.1164378
  36.3807001  44.5395834   0.1823597  28.1091223  41.2734407   0.4256149
  28.9349243  40.9738179   0.0454793  27.7585275  40.5042029   0.8745938
  33.0772756  40.6260875   2.4953823  32.4552765  39.9631580   2.1956051
  33.7477623  40.6522007   1.8127471  26.3099828  39.1920734   1.3845083
  25.4731736  38.7642908   1.2029084  26.2823473  39.3853177   2.3215874
  33.1497283  29.1042663  12.0886329  33.1985439  29.9804786  11.7064099
  33.6919798  28.5620056  11.5157972  43.6352129  39.6483787  11.3687466
  42.8447673  39.6307925  10.8291966  43.3985484  40.1872080  12.1236503
  43.7550004  36.4976253   8.6820195  43.8048009  36.3326260   9.6235718
  43.6463927  35.6303512   8.2918075  41.0453766  32.4807181   9.9979501
  41.9463629  32.3413646   9.7063499  41.1201741  32.6461636  10.9377679
  35.3796572  29.8574036   8.8432688  34.5099881  30.1507602   8.5715276
  35.6156052  30.4414481   9.5639951  45.2568201  38.9173194   8.9262216
  44.9653009  39.2803175   9.7625677  44.6440332  38.2040203   8.7475548
  46.4563883  36.4826074   1.4464786  47.2910775  36.9215878   1.6102347
  46.5923012  36.0064727   0.6273032  43.5055389  34.0405809   7.3942274
  43.9809511  34.2333455   6.5861126  42.5820954  34.0964995   7.1485658
  38.0835606  26.0753653   6.3598108  38.6017549  26.8114680   6.0344597
  37.7290738  26.3817646   7.1944867  42.2057058  30.9171569   5.6270580
  43.1574481  31.0169667   5.6482804  42.0360509  30.1249838   6.1368664
  40.2271438  28.0027152   5.8129981  39.6321370  28.2832165   5.1176469
  39.9421134  28.4921053   6.5846722  39.3578928  41.9550079  -5.4267387
  40.2909601  41.8895641  -5.2234511  39.2702141  42.7906346  -5.8852854
  41.9866945  41.2715950  -8.4663439  41.9080576  40.9375813  -7.5727681
  42.8076611  41.7637717  -8.4671967  44.6845136  34.1377689   4.7412879
  44.6521456  33.1993690   4.9272563  45.2945760  34.2161726   4.0078704
  44.8339624  30.9288732   4.7871163  44.3178673  30.1447189   4.6001092
  45.7179573  30.6007449   4.9517682  42.4950351  24.6729748   0.7466975
  42.2975172  24.3644836   1.6310307  43.1050057  25.3991387   0.8764905
  50.5021686  35.1993696   3.8818916  51.2325074  34.9378984   4.4426620
  49.8928631  34.4622418   3.9220984  48.5836983  33.3401558   4.4793367
  47.8570146  33.2057523   3.8709859  48.1684270  33.6478387   5.2850086
  36.4067159  37.0591488  12.2440741  37.3270169  37.2370087  12.4380787
  36.3716742  36.1147533  12.0920440  29.4029232  34.9692523   4.8863522
  29.6215242  35.9009630   4.9051555  29.8155006  34.6100497   5.6718326
  34.2757097  30.5425728  14.2766271  34.1753824  31.4920085  14.2078362
  34.0578639  30.2143967  13.4042341  25.4937584  35.8732993   3.1387137
  24.8001056  35.4586946   2.6257091  26.2410575  35.9153530   2.5420556
  34.1388367  33.9722867  13.0931332  33.6555449  34.7723227  13.2995221
  34.2249306  33.9830812  12.1398776  30.0661705  37.8627402   5.1299766
  31.0204958  37.8311344   5.0629698  29.8674228  37.4018026   5.9449992
  30.6561087  36.4328518   7.6970564  31.4753976  36.9272597   7.7205401
  30.9297895  35.5160486   7.6688131  43.7642219  28.8485791   0.7752858
  44.5402609  29.3382244   1.0477475  43.0390353  29.2743845   1.2324728
  46.2014778  29.5613410   1.8326799  46.7959269  29.3209146   1.1220107
  46.2741361  28.8420541   2.4600335  28.4211933  43.4047021   2.1469964
  28.2866401  42.6447422   1.5807962  28.0043996  44.1287921   1.6798753
  40.3868707  34.3393806  -2.7251191  40.3303908  34.7962358  -3.5643558
  40.9397049  33.5784491  -2.9028348  44.1973513  30.1283538  -1.9001071
  43.9410447  29.7280174  -1.0692863  43.5726381  30.8427332  -2.0250932
  48.5085851  32.8679611   0.6070220  47.9485409  32.9372801   1.3801782
  47.9029354  32.6920596  -0.1130283  31.5781059  44.3016338   2.3588407
  31.4613443  45.2461771   2.2567097  30.7573506  43.9989900   2.7474206
  41.4657594  39.0266474  -6.7955001  42.3003198  38.5947673  -6.9777526
  41.3041937  38.8548488  -5.8678106  25.9096001  30.7666652   8.3962761
  26.5554865  30.2565606   8.8849986  25.7013152  31.5035333   8.9706186
  38.4349393  37.8347499  13.8954901  39.3040553  38.0088152  13.5341536
  37.9556145  38.6541916  13.7730631  32.6035573  44.9544600   5.5744335
  33.5062820  44.9868211   5.8910830  32.3772944  44.0245051   5.5890671
  34.3589175  43.7075587   2.2354414  33.4084807  43.7077448   2.1218786
  34.6621662  42.9608321   1.7190448  30.2493492  27.9134269  12.4937775
  31.1124954  27.5571074  12.7041100  29.6758903  27.5748164  13.1813179
  50.0941869  49.5436125   3.3000176  50.7320279  49.4242873   2.5963516
  49.9762712  50.4916969   3.3588128  46.9031575  49.4963553   3.2361701
  46.5650087  49.3804618   2.3482236  47.7721343  49.0954718   3.2162707
  42.7618391  51.3499030  -0.7741408  42.1983256  51.2588967  -1.5425121
  42.6470786  50.5298934  -0.2938916  47.3851358  50.6498405   9.1947906
  47.3739999  50.2551203   8.3228410  47.5471998  49.9164478   9.7881678
  40.3082823  52.8450221   2.0642812  41.1004115  52.5041046   1.6489111
  40.5479473  52.9545196   2.9844965  44.1058619  53.4335517   8.1427090
  43.8148485  54.3381148   8.0273757  44.7415604  53.4752045   8.8571160
  45.0314826  50.8112365   4.7328450  45.6278398  50.5868388   4.0185413
  45.0889798  50.0697111   5.3353898  49.6483137  47.2687579   0.3753384
  50.4346227  46.8507002   0.0243801  49.9121842  48.1733671   0.5435032
  55.0491565  47.2062812   1.2786363  55.7816737  46.6362029   1.5124192
  54.2930920  46.8184413   1.7192868  46.6667684  49.6290054  -1.5250295
  46.3025892  49.1020675  -0.8137374  47.5234800  49.2388523  -1.6983810
  52.5716985  40.9184386   5.7380971  52.2400310  41.7879797   5.5142186
  51.9762598  40.6020670   6.4175002  49.0648504  53.1196932   5.1376884
  48.7649228  54.0221971   5.0292691  48.7199564  52.8529116   5.9898037
  42.5160986  49.5710729   1.1713588  41.5911482  49.4386943   1.3791280
  42.7645399  50.3504948   1.6683531  52.4645648  45.6379473   2.8174321
  51.5562526  45.5694881   2.5233082  52.4133244  46.1151418   3.6456147
  39.8769797  49.2144003   2.0057377  40.0062178  49.4678482   2.9196789
  39.1967248  49.8071711   1.6862032  46.5386514  47.0569118  10.7609218
  45.7619848  47.6163038  10.7512083  47.1777077  47.5425901  11.2824089
  54.3307295  43.8395911   4.5952195  53.6881675  44.1328444   3.9491990
  53.8262223  43.7248831   5.4005392  44.7932886  49.8654572  10.3227185
  45.5347571  50.4039616  10.0462009  44.0869872  50.4920860  10.4798737
  50.2688226  52.0083712   8.9199347  50.6771582  51.5666123   8.1753979
  49.5465487  51.4336340   9.1733540  46.6219296  46.9456319   6.2932904
  47.4680491  47.3695732   6.4367553  46.5617934  46.2889943   6.9871467
  50.5917041  52.5684903   2.6751636  49.9625903  52.7330617   1.9727704
  50.2042703  52.9826512   3.4462600  49.7718741  44.6060687   7.9514078
  49.5279673  45.3602748   7.4148353  50.0478672  44.9846035   8.7861325
  51.7257204  51.1499300   6.6291343  51.9374099  51.7931059   5.9525724
  51.6786952  50.3161616   6.1613273  49.3283433  43.7617120   3.5327915
  48.4667912  44.0598374   3.8244653  49.3545868  43.9787519   2.6008948
  46.1445003  52.3059311  -0.0598279  46.6083348  52.5847014  -0.8493657
  45.8801801  51.4042755  -0.2425188  43.0369084  51.8530792   2.8781484
  43.6070441  52.2818061   2.2398969  43.6277195  51.5713377   3.5765670
  45.0813889  48.4282463  -3.2508714  45.7837932  48.8803507  -2.7834788
  44.7494517  47.7866282  -2.6228821  43.5294250  47.0194220  11.1242495
  42.8992911  47.7010501  11.3577892  43.4230338  46.9077301  10.1795634
  38.8239223  46.6866016   2.0508420  38.0338277  46.9423544   1.5748530
  39.3150470  47.5014354   2.1560460  52.8403032  54.0271255   4.8013700
  53.6620476  53.6251442   4.5196382  52.8365435  53.9239489   5.7529816
  40.7753968  47.0510595  -0.9908104  39.9785131  47.1629289  -0.4724608
  40.5479560  47.3897247  -1.8567213  46.6059636  53.5755298   6.9574411
  46.6704068  54.0375705   7.7932583  45.8970559  52.9452663   7.0856721
  37.1076926  46.9396506   4.4823410  37.3584964  47.8243516   4.7480986
  37.6436474  46.7601108   3.7098502  42.8074993  41.3214986  13.4867747
  42.4141938  40.7681184  14.1615391  43.6241133  41.6325564  13.8774264
  39.7737051  52.7598844  -2.6018684  40.2861571  53.5542094  -2.4513119
  40.4259763  52.0625134  -2.6685082  45.7242954  42.7372865  11.0788003
  46.4652667  43.3380018  10.9992466  45.9560877  41.9950502  10.5206046
  40.8684292  47.9229232   9.3566233  40.7537807  47.0214489   9.6573332
  40.0128810  48.1692929   9.0051049  47.9476130  55.8646972  10.9553733
  47.5039984  55.0783351  10.6374638  48.6093343  56.0526123  10.2897624
  42.7063251  57.3942774   5.4814412  43.2570676  57.2659837   4.7091406
  41.8674727  57.6937663   5.1309305  50.0457368  56.1449772   8.9835135
  50.0275843  56.9658653   8.4915404  50.9677288  56.0203847   9.2085276
  46.5030422  53.6593902   9.8258643  47.0358759  52.8982190   9.5957951
  45.9744503  53.3667553  10.5682798  49.6700117  38.7653968   5.3552285
  49.3264386  39.6555609   5.2791395  50.0379079  38.5755625   4.4921870
  37.7385967  51.0887498  -1.8259113  38.5761189  51.4984506  -2.0425405
  37.9164235  50.1486940  -1.8558919  47.2197511  43.6012279  -1.0790042
  46.3639107  43.2119130  -1.2584403  47.6324462  43.6804240  -1.9390256
  48.7496657  41.1358623   3.3201518  48.2461453  41.0988758   2.5069323
  49.0427264  42.0451365   3.3798175  44.9939543  41.2197352   2.3267700
  45.8592540  41.0240161   1.9673589  45.0617052  40.9907704   3.2537057
  52.8475981  50.9828915   2.4544501  52.1899655  51.6728176   2.5424630
  53.6516380  51.3725347   2.7978488  42.6001862  43.4499560  -0.3015933
  43.1745614  43.2274742  -1.0342740  43.1872845  43.5188255   0.4512668
  51.6581439  49.3373287   0.5048443  52.1713321  49.9703279   1.0070153
  52.3082663  48.7374483   0.1391803  44.9024530  40.3240809  -1.5740864
  44.2488942  40.0089826  -2.1984249  44.8605004  39.7016550  -0.8481041
  48.1362270  46.8122743   2.7506784  47.2184832  47.0337690   2.5928472
  48.5522414  46.8869053   1.8918491  51.3676155  45.2471275  -0.1371747
  50.6298912  44.7348661   0.1938496  51.6202929  44.8071656  -0.9488470
  51.4687782  38.0247527   0.4570022  51.7746659  37.1644890   0.1695938
  52.1940387  38.6165147   0.2569016  37.7612138  48.4278213  -1.1548380
  37.5636538  47.8347574  -1.8797313  37.2058802  48.1230424  -0.4372441
  45.7408862  48.3201320   0.9646214  45.7957472  47.3675156   0.8888690
  44.9300064  48.4760759   1.4487512  43.6801222  46.9378380  -1.2763408
  42.8669088  47.2372550  -0.8698215  44.1760216  46.5434068  -0.5588925
  49.2775434  47.4020204   7.5551486  49.6324821  47.6291677   8.4145952
  49.9247565  47.7338581   6.9328742  43.1715297  44.5096735   4.3397827
  43.8114676  44.3685494   3.6420791  42.3392827  44.2231249   3.9636429
  43.9475601  53.8099166   0.4532820  44.7416199  53.3149486   0.2515395
  43.2367293  53.2817029   0.0900525  48.7670445  56.1917261   4.8045187
  48.8207467  56.7608197   5.5722903  47.8985227  56.3619146   4.4399225
  40.2558364  47.9542247  -3.4707428  39.3255952  47.8926703  -3.2537465
  40.3515836  47.4318200  -4.2670786  40.1743913  44.4797060  -0.8829186
  40.4350731  45.3942393  -0.9920025  40.9961086  44.0121503  -0.7332573
  41.6468839  45.8934817   6.2869639  42.3191892  45.6852179   5.6382288
  40.8198625  45.6956903   5.8474871  55.8958100  52.6338868   5.8044972
  56.0893990  53.5384678   6.0504247  55.7958718  52.1746287   6.6383557
  47.5494411  42.5196758   8.3035300  46.9022326  43.2186708   8.2099776
  48.3195426  42.9532902   8.6711548  50.9573209  52.7845610  11.3785853
  50.8058715  52.5556162  10.4615937  50.9477888  53.7416212  11.3917198
  47.7258545  50.3577523   6.3632119  48.6550605  50.5088683   6.1901087
  47.3049575  50.4461544   5.5080766  46.5246877  54.3828188   4.1330657
  46.3857962  54.0146972   5.0056595  45.7361473  54.8975827   3.9614615
  48.0752092  53.7609790   1.5219495  47.7401924  53.7210560   2.4177145
  47.5756038  53.0954506   1.0489905  42.0496336  49.1677420   7.0472076
  41.9116134  48.4357659   7.6483615  42.9601259  49.0786320   6.7656264
  44.6778637  48.8797380   6.5355756  45.3878255  48.2390572   6.4942374
  44.6347945  49.1310274   7.4581936  52.6665415  55.8164733   9.4562335
  52.6077961  55.1323953   8.7892918  53.0684934  56.5583723   9.0042961
  43.3907570  45.8662597   8.3551395  42.8544928  45.4153336   9.0072991
  42.8024279  46.0008506   7.6121859  52.6682822  53.7804317   7.6876314
  51.7809601  53.4430239   7.8102713  53.2381374  53.0487348   7.9245080
  34.3211970  50.1128409   1.0119366  35.0083009  49.7990139   0.4240381
  34.1660098  51.0169773   0.7386617  39.1246692  45.0018605   5.4404389
  39.0404880  44.3944275   4.7054799  38.3029398  45.4927623   5.4413886
  46.1983976  58.4405769   4.6537558  46.1254147  59.2460741   5.1656862
  45.7561369  58.6397735   3.8285579  49.2970406  43.4872169   0.8074585
  49.7939105  42.7342131   0.4875655  48.5257387  43.5236485   0.2417794
  57.1500163  49.1912534   2.4492876  57.1390039  50.0737250   2.0786809
  56.2817542  48.8384085   2.2547413  48.6582659  58.3392603   6.8095716
  49.3710632  58.9740068   6.7371618  48.1672688  58.4356469   5.9935718
  45.8805374  45.6289552   0.5346269  45.5103162  45.0760592   1.2227175
  46.3764467  45.0247685  -0.0178731  43.7094573  56.0887047   7.6301287
  44.4104032  56.7223530   7.7830681  43.2389688  56.4301778   6.8696926
  51.7389400  40.4541762   2.9553943  50.8252480  40.6845989   3.1236150
  52.1682502  40.5380206   3.8067976  51.5095859  48.6431654   5.4553837
  50.8567309  48.8907562   4.8006290  51.8876239  47.8295792   5.1216315
  47.5583432  49.3851465  11.9419875  46.8824069  49.2845595  12.6122250
  48.3811066  49.2290679  12.4055872  39.3062291  55.6223402   4.5632390
  39.8915728  54.8767090   4.6960294  39.1087129  55.9327358   5.4469054
  33.8979946  48.1929002   3.2836833  33.9364045  47.6592593   4.0773951
  33.3920239  47.6664207   2.6647810  46.3006215  60.6918393   6.1777490
  46.8524523  60.8550014   6.9426576  46.6412408  61.2822830   5.5057515
  41.2770708  43.0393542   6.7799375  41.3412034  43.9008373   6.3676773
  41.2137828  42.4267544   6.0471734  40.7522981  45.1116675  10.4272409
  41.3795019  44.7293752  11.0409934  39.8950899  44.8930877  10.7928102
  51.1517089  55.5179650  12.0326145  51.6956993  56.1309608  11.5381100
  50.5703934  56.0759229  12.5493158  37.5288523  46.9193104  -3.6409236
  37.8241964  46.0103783  -3.6942182  36.6276559  46.8980844  -3.9628233
  41.0582770  44.9949101   2.3418313  40.3369356  45.6085068   2.2025786
  41.8476026  45.5306866   2.2634959  51.5009510  56.4409388   4.7920723
  50.5539846  56.3214739   4.7199049  51.8492284  55.5531886   4.8746984
  43.8609084  42.3303527   8.6158965  44.3843486  42.5765824   9.3785274
  43.6421417  43.1623562   8.1962102  39.2576365  44.6007202  -3.5169911
  38.9289071  43.7204581  -3.6994805  39.6115736  44.5454870  -2.6293521
  42.3718188  44.8880172  -3.1494433  42.7114261  45.4166093  -3.8715825
  42.8190309  45.2260578  -2.3735866  45.0661629  43.2717222   6.3008635
  44.7258449  42.4725035   6.7029315  44.3600635  43.5718933   5.7285468
  45.7178101  40.3566535   4.7535958  46.5404170  39.8827013   4.6314849
  45.9616164  41.1357018   5.2534644  44.3586335  43.3854793  -4.9501140
  45.0794698  43.7636046  -5.4537423  43.7351639  44.1043670  -4.8466162
  48.5017458  44.0899942  -4.0142808  48.7181072  44.9724580  -4.3153980
  48.0211525  43.6986156  -4.7437166  43.2416679  47.0485655   2.5627937
  43.0961260  47.3625958   3.4552218  42.7641883  47.6670556   2.0098835
  45.1013062  44.0388203   2.6108826  45.0874631  43.1429297   2.2741124
  45.8185490  44.0458867   3.2447112  46.9539193  44.4725544   4.6561954
  46.6956971  45.3942614   4.6546284  46.4224233  44.0755978   5.3462418
  37.7162342  49.5891000   5.5015598  37.1715810  50.3650808   5.6335872
  38.5941691  49.9361804   5.3434719  44.5049958  42.9202584  -2.1203604
  44.6265869  41.9919230  -1.9212716  44.2152001  42.9341270  -3.0325288
  47.3741149  40.6057494   1.0163116  47.3962845  40.6696827   0.0615096
  47.7909208  39.7662003   1.2103622  38.5028363  48.7160896   8.3945755
  37.7610099  48.8643531   8.9810385  38.1821108  48.9769162   7.5312504
  46.4472026  58.2576874   8.1926145  46.7559153  58.0126021   9.0648844
  47.2447508  58.4623513   7.7045015  38.9484977  56.6026325   0.4256149
  39.7742997  56.3030097   0.0454793  38.5979029  55.8333947   0.8745938
  43.9166510  55.9552793   2.4953823  43.2946520  55.2923498   2.1956051
  44.5871377  55.9813925   1.8127471  37.1493582  54.5212651   1.3845083
  36.3125490  54.0934826   1.2029084  37.1217228  54.7145095   2.3215874
  43.9891038  44.4334581  12.0886329  44.0379193  45.3096704  11.7064099
  44.5313552  43.8911974  11.5157972  54.4745883  54.9775704  11.3687466
  53.6841427  54.9599843  10.8291966  54.2379238  55.5163998  12.1236503
  54.5943759  51.8268171   8.6820195  54.6441763  51.6618178   9.6235718
  54.4857682  50.9595430   8.2918075  51.8847521  47.8099099   9.9979501
  52.7857384  47.6705563   9.7063499  51.9595495  47.9753553  10.9377679
  46.2190326  45.1865953   8.8432688  45.3493636  45.4799519   8.5715276
  46.4549807  45.7706398   9.5639951  56.0961955  54.2465112   8.9262216
  55.8046764  54.6095093   9.7625677  55.4834087  53.5332120   8.7475548
  54.3449144  49.3697727   7.3942274  54.8203265  49.5625373   6.5861126
  53.4214709  49.4256913   7.1485658  41.2332650  50.5321894  -3.0226647
  40.9878692  49.6284224  -2.8246437  41.4028565  50.5339044  -3.9647169
  48.9229360  41.4045570   6.3598108  49.4411304  42.1406597   6.0344597
  48.5684493  41.7109564   7.1944867  40.5028298  46.2650252  -5.5240486
  39.8097543  46.3394607  -6.1800450  40.2580050  45.5010595  -5.0018969
  49.1741954  37.8245853   1.8799005  49.4543708  37.1569042   2.5059431
  49.9592561  38.0174948   1.3673669  53.0450813  46.2463487   5.6270580
  53.9968235  46.3461585   5.6482804  52.8754263  45.4541755   6.1368664
  51.0665192  43.3319070   5.8129981  50.4715124  43.6124083   5.1176469
  50.7814889  43.8212971   6.5846722  55.5238890  49.4669607   4.7412879
  55.4915210  48.5285607   4.9272563  56.1339514  49.5453643   4.0078704
  55.6733379  46.2580650   4.7871163  55.1572428  45.4739107   4.6001092
  56.5573327  45.9299367   4.9517682  53.3344106  40.0021666   0.7466975
  53.1368927  39.6936754   1.6310307  53.9443811  40.7283304   0.8764905
  61.3415440  50.5285613   3.8818916  62.0718829  50.2670902   4.4426620
  60.7322386  49.7914335   3.9220984  59.4230737  48.6693476   4.4793367
  58.6963901  48.5349441   3.8709859  59.0078024  48.9770305   5.2850086
  47.2460914  52.3883406  12.2440741  48.1663923  52.5662005  12.4380787
  47.2110497  51.4439451  12.0920440  36.4643079  47.5821999   1.1694015
  36.1445863  46.7287307   0.8768389  35.9176507  47.7970577   1.9251982
  40.2422986  50.2984440   4.8863522  40.4608996  51.2301548   4.9051555
  40.6548760  49.9392415   5.6718326  47.1627204  40.8052526  -3.1260790
  46.3527932  40.4599611  -2.7505544  47.8511621  40.4960069  -2.5373178
  49.0917752  39.8830572  -1.5036493  49.6448791  40.3026026  -0.8446470
  49.3287839  38.9566321  -1.4613537  45.1150852  45.8717646  14.2766271
  45.0147579  46.8212003  14.2078362  44.8972394  45.5435885  13.4042341
  36.3331339  51.2024911   3.1387137  35.6394810  50.7878864   2.6257091
  37.0804330  51.2445447   2.5420556  52.4696559  41.9931098  -1.9957829
  51.8895229  42.6515902  -2.3779777  52.2032492  41.1708442  -2.4070412
  50.9200126  41.3936155   0.2063491  51.4199904  41.5052690  -0.6022190
  51.5635734  41.0897208   0.8464300  44.9782122  49.3014785  13.0931332
  44.4949203  50.1015145  13.2995221  45.0643061  49.3122730  12.1398776
  38.2468081  51.1343165   1.0153152  38.2238769  51.2330852   0.0635035
  38.5568718  51.9808315   1.3370318  40.9055459  53.1919320   5.1299766
  41.8598713  53.1603262   5.0629698  40.7067983  52.7309943   5.9449992
  41.4954841  51.7620436   7.6970564  42.3147730  52.2564514   7.7205401
  41.7691649  50.8452404   7.6688131  51.2521438  44.1531188  -2.9401481
  50.3647293  44.4380839  -3.1581286  51.6675427  43.9924951  -3.7874204
  54.6035974  44.1777709   0.7752858  55.3796364  44.6674161   1.0477475
  53.8784108  44.6035763   1.2324728  57.0408532  44.8905328   1.8326799
  57.6353023  44.6501064   1.1220107  57.1135116  44.1712459   2.4600335
  39.2605688  58.7338939   2.1469964  39.1260156  57.9739340   1.5807962
  38.8437750  59.4579839   1.6798753  42.4174814  59.6308256   2.3588407
  42.3007198  60.5753689   2.2567097  41.5967260  59.3281818   2.7474206
  36.7489756  46.0958570   8.3962761  37.3948619  45.5857523   8.8849986
  36.5406907  46.8327251   8.9706186  49.2743148  53.1639417  13.8954901
  50.1434307  53.3380069  13.5341536  48.7949899  53.9833834  13.7730631
  45.2693366  40.3598614  -5.8513343  45.2572036  41.3040454  -5.6945072
  46.1616788  40.1768760  -6.1453882  43.4429328  60.2836518   5.5744335
  44.3456575  60.3160128   5.8910830  43.2166698  59.3536969   5.5890671
  49.0845485  36.9541391  -1.5967406  48.3177881  36.3999877  -1.4510724
  49.4956190  37.0263260  -0.7353255  41.0887247  43.2426187  12.4937775
  41.9518708  42.8862991  12.7041100  40.5152657  42.9040081  13.1813179
  57.3780269  62.3861036  10.7609218  56.6013603  62.9454956  10.7512083
  58.0170832  62.8717819  11.2824089  54.3688005  62.3486137  11.1242495
  53.7386665  63.0302418  11.3577892  54.2624092  62.2369219  10.1795634
  53.6468747  56.6506903  13.4867747  53.2535693  56.0973102  14.1615391
  54.4634888  56.9617482  13.8774264  56.5636708  58.0664782  11.0788003
  57.3046422  58.6671935  10.9992466  56.7954631  57.3242420  10.5206046
  51.7078046  63.2521150   9.3566233  51.5931561  62.3506407   9.6573332
  50.8522564  63.4984846   9.0051049  58.3888165  57.8488676   8.3035300
  57.7416080  58.5478626   8.2099776  59.1589180  58.2824820   8.6711548
  54.2301325  61.1954515   8.3551395  53.6938682  60.7445254   9.0072991
  53.6418033  61.3300424   7.6121859  49.9640446  60.3310523   5.4404389
  49.8798635  59.7236192   4.7054799  49.1423153  60.8219541   5.4413886
  58.3977186  64.7143383  11.9419875  57.7217823  64.6137512  12.6122250
  59.2204820  64.5582597  12.4055872  52.1164462  58.3685460   6.7799375
  52.1805789  59.2300291   6.3676773  52.0531583  57.7559462   6.0471734
  51.5916735  60.4408593  10.4272409  52.2188774  60.0585670  11.0409934
  50.7344654  60.2222795  10.7928102  54.7002838  57.6595445   8.6158965
  55.2237240  57.9057741   9.3785274  54.4815172  58.4915480   8.1962102
  49.3422118  64.0452814   8.3945755  48.6003854  64.1935449   8.9810385
  49.0214862  64.3061079   7.5312504  54.8284792  59.7626499  12.0886329
  54.8772948  60.6388621  11.7064099  55.3707306  59.2203892  11.5157972
  57.0584081  60.5157871   8.8432688  56.1887390  60.8091437   8.5715276
  57.2943561  61.0998316   9.5639951  55.9544606  61.2009564  14.2766271
  55.8541333  62.1503921  14.2078362  55.7366148  60.8727803  13.4042341
  55.8175876  64.6306703  13.0931332  55.3342958  65.4307063  13.2995221
  55.9036815  64.6414647  12.1398776  47.5883510  61.4250487   8.3962761
  48.2342374  60.9149441   8.8849986  47.3800661  62.1619169   8.9706186
  51.9281001  58.5718104  12.4937775  52.7912463  58.2154909  12.7041100
  51.3546412  58.2331999  13.1813179  47.9476131  32.8709095  -2.3200960
  47.5039985  32.0845473  -2.6380055  48.6093344  33.0588245  -2.9857069
  50.0457369  33.1511895  -4.2919559  50.0275844  33.9720776  -4.7839290
  50.9677289  33.0265970  -4.0669418  46.5030423  30.6656024  -3.4496050
  47.0358760  29.9044312  -3.6796742  45.9744504  30.3729676  -2.7071896
  50.9573210  29.7907733  -1.8968841  50.8058716  29.5618285  -2.8138757
  50.9477889  30.7478334  -1.8837496  52.6665416  32.8226856  -3.8192359
  52.6077963  32.1386076  -4.4861776  53.0684935  33.5645846  -4.2711733
  52.6682824  30.7866439  -5.5878379  51.7809602  30.4492361  -5.4651980
  53.2381375  30.0549471  -5.3509614  48.6582661  35.3454726  -6.4658977
  49.3710633  35.9802191  -6.5383076  48.1672689  35.4418592  -7.2818975
  47.5583433  26.3913588  -1.3334819  46.8824070  26.2907717  -0.6632444
  48.3811067  26.2352802  -0.8698822  46.3006216  37.6980515  -7.0977203
  46.8524524  37.8612137  -6.3328118  46.6412409  38.2884953  -7.7697178
  51.1517090  32.5241773  -1.2428548  51.6956994  33.1371731  -1.7373594
  50.5703935  33.0821351  -0.7261535  46.4472027  35.2638997  -5.0828549
  46.7559154  35.0188144  -4.2105849  47.2447509  35.4685635  -5.5709678
  54.4745885  31.9837827  -1.9067227  53.6841428  31.9661966  -2.4462728
  54.2379239  32.5226121  -1.1518191  54.5943760  28.8330293  -4.5934499
  54.6441765  28.6680301  -3.6518976  54.4857683  27.9657552  -4.9836618
  51.8847522  24.8161221  -3.2775192  52.7857385  24.6767686  -3.5691194
  51.9595497  24.9815676  -2.3377014  56.0961957  31.2527235  -4.3492477
  55.8046765  31.6157215  -3.5129016  55.4834088  30.5394243  -4.5279145
  47.2460915  29.3945528  -1.0313953  48.1663924  29.5724127  -0.8373906
  47.2110498  28.4501574  -1.1834254  44.9782123  26.3076907  -0.1823361
  44.4949205  27.1077268   0.0240528  45.0643062  26.3184852  -1.1355917
  49.2743149  30.1701540   0.6200208  50.1434309  30.3442192   0.2586843
  48.7949900  30.9895956   0.4975937  57.3780270  39.3923158  -2.5145475
  56.6013604  39.9517079  -2.5242610  58.0170833  39.8779941  -1.9930605
  54.3688006  39.3548260  -2.1512198  53.7386666  40.0364541  -1.9176801
  54.2624094  39.2431342  -3.0959060  53.6468749  33.6569026   0.2113053
  53.2535694  33.1035224   0.8860697  54.4634889  33.9679604   0.6019571
  56.5636710  35.0726905  -2.1966690  57.3046423  35.6734058  -2.2762228
  56.7954632  34.3304543  -2.7548648  51.7078048  40.2583272  -3.9188461
  51.5931563  39.3568529  -3.6181362  50.8522565  40.5046969  -4.2703644
  58.3888166  34.8550798  -4.9719394  57.7416081  35.5540748  -5.0654917
  59.1589182  35.2886942  -4.6043146  54.2301326  38.2016638  -4.9203298
  53.6938683  37.7507376  -4.2681702  53.6418035  38.3362547  -5.6632834
  49.9640447  37.3372645  -7.8350304  49.8798636  36.7298315  -8.5699894
  49.1423154  37.8281664  -7.8340808  58.3977188  41.7205505  -1.3334819
  57.7217825  41.6199635  -0.6632444  59.2204822  41.5644719  -0.8698822
  52.1164464  35.3747583  -6.4955318  52.1805790  36.2362414  -6.9077920
  52.0531584  34.7621584  -7.2282960  51.5916736  37.4470715  -2.8482284
  52.2188775  37.0647793  -2.2344760  50.7344655  37.2284917  -2.4826591
  54.7002840  34.6657567  -4.6595729  55.2237241  34.9119864  -3.8969419
  54.4815173  35.4977602  -5.0792591  49.3422119  41.0514936  -4.8808939
  48.6003855  41.1997572  -4.2944308  49.0214863  41.3123202  -5.7442189
  54.8284794  36.7688621  -1.1868364  54.8772949  37.6450744  -1.5690595
  55.3707308  36.2266014  -1.7596721  57.0584082  37.5219994  -4.4322006
  56.1887391  37.8153560  -4.7039417  57.2943562  38.1060439  -3.7114742
  55.9544607  38.2071686   1.0011577  55.8541334  39.1566043   0.9323668
  55.7366149  37.8789925   0.1287647  55.8175877  41.6368825  -0.1823361
  55.3342959  42.4369185   0.0240528  55.9036816  41.6476770  -1.1355917
  47.5883511  38.4312610  -4.8791933  48.2342375  37.9211564  -4.3904707
  47.3800662  39.1681291  -4.3048507  51.9281002  35.5780227  -0.7816918
  52.7912464  35.2217032  -0.5713594  51.3546413  35.2394122  -0.0941514
   6.7340250  65.7001923  27.7008056   5.9803959  65.1309321  27.5452060
   6.8687791  65.6664587  28.6478690   0.8104396  65.8530559  24.8110199
   0.6722294  66.0432155  23.8831388   0.4540615  66.6149942  25.2678250
   0.8373775  67.9207086  29.8221470   1.2710282  67.8282376  30.6704525
   1.5505356  67.8964587  29.1841486   1.6989325  67.9630787  32.3554356
   1.8925215  68.8676598  32.6013631   1.5989943  67.5038206  33.1892941
   2.9531388  64.5204454  29.0002260   2.9421264  65.4029169  28.6296193
   2.0848767  64.1676005  28.8056797   3.5555998  65.6704673  25.6051723
   3.9987144  64.9211998  25.2070846   2.6782508  65.6614809  25.2225455
   0.3974984  67.1560090  35.2329578   0.4472988  66.9910098  36.1745101
   0.2888907  66.2887349  34.8427459   1.8993180  69.5757032  35.4771600
   1.6077989  69.9387012  36.3135061   1.2865312  68.8624040  35.2984932
   3.0988863  67.1409911  27.9974170   3.9335754  67.5799715  28.1611730
   3.2347991  66.6648565  27.1782416   1.3270115  64.7961526  31.2922263
   1.2946436  63.8577527  31.4781947   1.9370739  64.8745563  30.5588088
   1.4764604  61.5872569  31.3380546   0.9603653  60.8031026  31.1510475
   2.3604552  61.2591286  31.5027066   7.1446665  65.8577533  30.4328300
   7.8750054  65.5962821  30.9936003   6.5353611  65.1206255  30.4730368
   5.2261962  63.9985395  31.0302751   4.4995126  63.8641360  30.4219243
   4.8109249  64.3062224  31.8359469   2.8439757  60.2197248  28.3836183
   3.4384248  59.9792984  27.6729491   2.9166341  59.5004378  29.0109719
   0.8398492  60.7867375  24.6508313   0.5835426  60.3864011  25.4816520
   0.2151360  61.5011169  24.5258452   5.1510830  63.5263448  27.1579604
   4.5910388  63.5956638  27.9311166   4.5454333  63.3504433  26.4379100
   9.2141964  71.5768224  32.2890355   8.8825289  72.4463635  32.0651570
   8.6187578  71.2604508  32.9684385  10.9732274  74.4979748  31.1461579
  10.3306654  74.7912281  30.5001373  10.4687203  74.3832668  31.9514775
   6.3125096  69.4237805  31.9061668   5.9689366  70.3139446  31.8300779
   6.6804059  69.2339462  31.0431253   5.3921637  71.7942460  29.8710902
   4.8886432  71.7572595  29.0578707   5.6852244  72.7035203  29.9307558
   1.5449509  70.9824646  24.9768520   0.8913922  70.6673664  24.3525134
   1.5029983  70.3600387  25.7028343   8.1112762  68.6831364  27.0079406
   8.4171639  67.8228727  26.7205321   8.8365367  69.2748984  26.8078400
   8.3814380  71.1125599  29.5063327   7.4677460  71.3429826  29.6745534
   8.8107481  71.1964043  30.3577359   2.3603080  71.0150372  31.3045342
   3.1829150  70.5410850  31.1824232   2.6041144  71.7940856  31.8044028
   4.0166128  71.2641331  27.5672500   4.0387825  71.3280664  26.6124480
   4.4334187  70.4245840  27.7613006   5.5654340  72.0629407  32.9107492
   6.0836283  72.7990434  32.5853980   5.2109472  72.3693401  33.7454251
   5.8166934  68.4829690  28.4308388   6.0968688  67.8152879  29.0568815
   6.6017541  68.6758786  27.9183052   9.9769085  70.6605503  27.2976359
   9.7793906  70.3520591  28.1819691  10.5868791  71.3867142  27.4274289
   3.8052184  71.4636363  23.4248594   2.9952912  71.1183448  23.8003840
   4.4936601  71.1543906  24.0136205   5.7342732  70.5414410  25.0472890
   6.2873771  70.9609863  25.7062913   5.9712818  69.6150158  25.0895846
   9.1121539  72.6514935  24.5551555   8.5320208  73.3099739  24.1729607
   8.8457472  71.8292279  24.1438972   7.5625105  72.0519992  26.7572875
   8.0624884  72.1636527  25.9487194   8.2060713  71.7481045  27.3973683
  13.6833512  75.5489165  28.3836183  14.2778003  75.3084901  27.6729491
  13.7560095  74.8296296  29.0109719   5.7270465  67.6125228  24.9541977
   4.9602861  67.0583715  25.0998660   6.1381170  67.6847097  25.8156129
   6.7340251  42.7064045  14.4253362   5.9803960  42.1371444  14.2697367
   6.8687793  42.6726710  15.3723997   0.8104397  42.8592682  11.5355506
   0.6722296  43.0494278  10.6076695   0.4540616  43.6212065  11.9923557
   0.8373777  44.9269209  16.5466777   1.2710283  44.8344498  17.3949831
   1.5505357  44.9026709  15.9086793   1.6989326  44.9692910  19.0799663
   1.8925216  45.8738720  19.3258937   1.5989944  44.5100329  19.9138248
   2.9531389  41.5266576  15.7247566   2.9421266  42.4091292  15.3541499
   2.0848769  41.1738127  15.5302103   3.5555999  42.6766796  12.3297029
   3.9987145  41.9274121  11.9316152   2.6782510  42.6676932  11.9470761
   0.3974985  44.1622213  21.9574885   0.4472990  43.9972220  22.8990408
   0.2888908  43.2949472  21.5672766   1.8993182  46.5819154  22.2016907
   1.6077990  46.9449135  23.0380367   1.2865313  45.8686162  22.0230239
   3.0988864  44.1472034  14.7219477   3.9335755  44.5861838  14.8857037
   3.2347993  43.6710687  13.9027723   1.3270117  41.8023649  18.0167570
   1.2946437  40.8639649  18.2027254   1.9370740  41.8807685  17.2833395
   1.4764605  38.5934692  18.0625853   0.9603654  37.8093149  17.8755782
   2.3604554  38.2653409  18.2272372   7.1446667  42.8639655  17.1573607
   7.8750055  42.6024944  17.7181310   6.5353612  42.1268377  17.1975675
   5.2261964  41.0047518  17.7548058   4.4995127  40.8703483  17.1464549
   4.8109251  41.3124347  18.5604776   2.8439759  37.2259370  15.1081489
   3.4384249  36.9855106  14.3974798   2.9166342  36.5066501  15.7355026
   0.8398493  37.7929498  11.3753619   0.5835428  37.3926133  12.2061827
   0.2151361  38.5073292  11.2503758   5.1510831  40.5325571  13.8824911
   4.5910389  40.6018760  14.6556473   4.5454335  40.3566556  13.1624407
   6.7366850  57.2082085  16.5754866   7.3745260  57.0888832  15.8718206
   6.6187693  58.1562929  16.6342818   3.5456556  57.1609513  16.5116391
   3.2075068  57.0450578  15.6236926   4.4146324  56.7600678  16.4917397
   4.0276339  58.3144365  22.4702596   4.0164980  57.9197163  21.5983100
   4.1896979  57.5810437  23.0636368   0.7483600  61.0981477  21.4181780
   0.4573466  62.0027107  21.3028447   1.3840585  61.1398004  22.1325850
   1.6739807  58.4758325  18.0083140   2.2703379  58.2514348  17.2940103
   1.7314779  57.7343071  18.6108588   6.2908118  54.9333539  13.6508074
   7.0771207  54.5152962  13.2998491   6.5546823  55.8379631  13.8189723
  11.6916545  54.8708772  14.5541053  12.4241717  54.3007989  14.7878882
  10.9355901  54.4830372  14.9947558   9.2141966  48.5830346  19.0135661
   8.8825291  49.4525757  18.7896876   8.6187579  48.2666630  19.6929692
   5.7073485  60.7842892  18.4131574   5.4074208  61.6867931  18.3047381
   5.3624545  60.5175075  19.2652727   9.1070629  53.3025432  16.0929011
   8.1987506  53.2340841  15.7987772   9.0558225  53.7797377  16.9210837
   3.1811495  54.7215078  24.0363909   2.4044829  55.2808998  24.0266773
   3.8202058  55.2071861  24.5578779  10.9732275  51.5041871  17.8706885
  10.3306656  51.7974404  17.2246680  10.4687204  51.3894791  18.6760082
   1.4357867  57.5300531  23.5981876   2.1772552  58.0685575  23.3216699
   0.7294853  58.1566820  23.7553428   6.9113207  59.6729672  22.1954037
   7.3196563  59.2312082  21.4508670   6.1890468  59.0982299  22.4488230
   3.2644277  54.6102279  19.5687594   4.1105472  55.0341692  19.7122243
   3.2042914  53.9535903  20.2626157   7.2342021  60.2330862  15.9506326
   6.6050884  60.3976576  15.2482394   6.8467684  60.6472472  16.7217290
  11.1131253  61.1685300  13.3050690  10.4282291  61.5484202  12.7547723
  11.1975103  61.7780627  14.0382638   6.4143722  52.2706647  21.2268768
   6.1704654  53.0248707  20.6903044   6.6903653  52.6491994  22.0616015
   8.3682185  58.8145259  19.9046033   8.5799080  59.4577019  19.2280415
   8.3211933  57.9807576  19.4367964   5.9708414  51.4263080  16.8082606
   5.1092893  51.7244333  17.0999343   5.9970849  51.6433479  15.8763638
   9.4828013  61.6917215  18.0768391  10.3045457  61.2897402  17.7951072
   9.4790416  61.5885449  19.0284507   3.2484616  61.2401258  20.2329101
   3.3129049  61.7021665  21.0687273   2.5395540  60.6098623  20.3611411
  17.5734006  58.0355963  14.4253362  16.8197714  57.4663361  14.2697367
  17.7081547  58.0018628  15.3723997   2.3667935  50.4018824  24.3542693
   3.1077648  51.0025978  24.2747156   2.5985857  49.6596462  23.7960736
   4.5901110  63.5292932  24.2308424   4.1464965  62.7429311  23.9129328
   5.2518324  63.7172082  23.5652314   6.6882348  63.8095732  22.2589825
   6.6700824  64.6304613  21.7670094   7.6102268  63.6849807  22.4839966
   3.1455403  61.3239861  23.1013333   3.6783739  60.5628150  22.8712641
   2.6169484  61.0313513  23.8437488   6.3125098  46.4299927  18.6306975
   5.9689367  47.3201569  18.5546086   6.6804060  46.2401585  17.7676560
   3.8622491  51.2658239  12.1964649   3.0064088  50.8765090  12.0170287
   4.2749443  51.3450200  11.3364434   5.3921638  48.8004582  16.5956208
   4.8886434  48.7634718  15.7824014   5.6852245  49.7097325  16.6552865
   1.6364524  48.8843312  15.6022390   2.5017521  48.6886121  15.2428280
   1.7042033  48.6553664  16.5291747   9.4900961  58.6474874  15.7299192
   8.8324636  59.3374136  15.8179320  10.2941361  59.0371306  16.0733178
   8.3006420  57.0019247  13.7803133   8.8138302  57.6349239  14.2824843
   8.9507644  56.4020443  13.4146493   1.5449511  47.9886769  11.7013826
   0.8913923  47.6735786  11.0770441   1.5029985  47.3662509  12.4273649
   4.7787251  54.4768703  16.0261474   3.8609812  54.6983650  15.8683162
   5.1947395  54.5515013  15.1673181   8.0101136  52.9117235  13.1382943
   7.2723893  52.3994621  13.4693186   8.2627909  52.4717616  12.3266220
   8.1112763  45.6893487  13.7324713   8.4171640  44.8290850  13.4450628
   8.8365368  46.2811107  13.5323707   5.9200415  55.0666164  20.8306177
   6.2749802  55.2937637  21.6900642   6.5672546  55.3984541  20.2083432
  11.6498151  58.1884600  11.5355506  11.5116050  58.3786196  10.6076695
  11.2934370  58.9503983  11.9923557  11.6767531  60.2561127  16.5466777
  12.1104038  60.1636416  17.3949831  12.3899112  60.2318627  15.9086793
   5.4095426  63.8563221  18.0799878   5.4632448  64.4254157  18.8477594
   4.5410207  64.0265106  17.7153915  12.5383081  60.2984827  19.0799663
  12.7318971  61.2030638  19.3258937  12.4383699  59.8392246  19.9138248
   4.1919391  50.1842718  21.5789990   3.5447306  50.8832668  21.4854466
   4.9620407  50.6178862  21.9466238   7.5998189  60.4491570  24.6540543
   7.4483696  60.2202122  23.7370627   7.5902869  61.4062172  24.6671888
   4.3683526  58.0223483  19.6386810   5.2975586  58.1734642  19.4655777
   3.9474556  58.1107504  18.7835456   1.3203617  56.5443339  19.8110446
   2.0303236  55.9036531  19.7697064   1.2772925  56.7956234  20.7336627
   9.3090396  63.4810693  22.7317025   9.2502942  62.7969913  22.0647608
   9.7109914  64.2229683  22.2797651   9.3107803  61.4450277  20.9631005
   8.4234582  61.1076198  21.0857404   9.8806354  60.7133308  21.1999770
   5.9395386  51.1518128  14.0829275   6.4364086  50.3988091  13.7630345
   5.1682368  51.1882445  13.5172484  13.7925144  56.8558494  15.7247566
  13.7815020  57.7383209  15.3541499  12.9242523  56.5030045  15.5302103
   5.3007640  66.0038563  20.0850407   6.0135612  66.6386028  20.0126308
   4.8097669  66.1002429  19.2690408   2.5230355  53.2935511  13.8100959
   2.1528143  52.7406552  14.4981865   3.0189448  52.6893645  13.2575959
  10.4097718  55.7507135  12.1917732  10.8758171  56.5835127  12.1178035
  10.8605219  55.2852116  12.8962991   8.3814381  48.1187722  16.2308634
   7.4677461  48.3491949  16.3990841   8.8107483  48.2026166  17.0822666
   8.1520840  56.3077614  18.7308528   7.4992290  56.5553521  18.0760980
   8.5301220  55.4941752  18.3971005   4.2008413  57.0497425  25.2174565
   3.5249050  56.9491554  25.8876940   5.0236047  56.8936639  25.6810562
   7.7942070  63.1825610  25.3080835   8.3381974  63.7955568  24.8135790
   7.2128915  63.7405188  25.8247848   8.1434491  64.1055348  18.0675413
   7.1964827  63.9860699  17.9953740   8.4917264  63.2177846  18.1501674
   0.5034065  49.9949487  21.8913655   1.0268466  50.2411783  22.6539964
   0.2846398  50.8269522  21.4716792   8.7515046  64.7236623  15.3544638
   9.6761594  64.5179484  15.2169089   8.5830350  64.4753024  16.2633979
   1.7086610  50.9363182  19.5763325   1.3683430  50.1370995  19.9784005
   1.0025616  51.2364893  19.0040159   2.3603081  48.0212494  18.0290648
   3.1829151  47.5472973  17.9069539   2.6041145  48.8002978  18.5289335
   1.7438043  51.7034163  15.8863517   1.7299612  50.8075256  15.5495815
   2.4610471  51.7104827  16.5201803   3.5964174  52.1371503  17.9316644
   3.3381952  53.0588574  17.9300974   3.0649214  51.7401938  18.6217108
   4.0166129  48.2703454  14.2917807   4.0387826  48.3342787  13.3369786
   4.4334188  47.4307962  14.4858313  14.3949754  58.0058713  12.3297029
  14.8380900  57.2566039  11.9316152  13.5176264  57.9968850  11.9470761
   3.0897007  65.9222834  21.4680835   3.3984133  65.6771981  22.3403535
   3.8872489  66.1269472  20.9799705   0.6316019  52.0980541  25.3641019
   0.6804174  52.9742664  24.9818789   1.1738533  51.5557934  24.7912663
  11.1170864  62.6421664  24.6442156  10.3266408  62.6245803  24.1046656
  10.8804219  63.1809958  25.3991193  11.2368739  59.4914130  21.9574885
  11.2866744  59.3264138  22.8990408  11.1282663  58.6241389  21.5672766
   8.5272502  55.4745058  23.2734192   9.4282364  55.3351523  22.9818190
   8.6020476  55.6399513  24.2132369   2.8615307  52.8511913  22.1187378
   1.9918616  53.1445479  21.8469967   3.0974787  53.4352358  22.8394642
  12.7386936  61.9111072  22.2016907  12.4471744  62.2741052  23.0380367
  12.1259067  61.1978080  22.0230239  13.9382618  59.4763952  14.7219477
  14.7729510  59.9153756  14.8857037  14.0741747  59.0002605  13.9027723
  10.9874124  57.0343686  20.6696965  11.4628246  57.2271333  19.8615816
  10.0639690  57.0902872  20.4240348   5.5654341  49.0691530  19.6352798
   6.0836285  49.8052557  19.3099287   5.2109474  49.3755523  20.4699558
   5.8166935  45.4891813  15.1553695   6.0968689  44.8215002  15.7814122
   6.6017542  45.6820908  14.6428359   9.6875793  53.9109447  18.9025270
  10.6393216  54.0107544  18.9237494   9.5179244  53.1187715  19.4123354
   7.7090173  50.9965030  19.0884671   7.1140105  51.2770043  18.3931160
   7.4239870  51.4858931  19.8601412  12.1663871  57.1315566  18.0167570
  12.1340191  56.1931567  18.2027254  12.7764495  57.2099603  17.2833395
  12.3158360  53.9226610  18.0625853  11.7997408  53.1385066  17.8755782
  13.1998308  53.5945326  18.2272372   9.9769087  47.6667625  14.0221666
   9.7793908  47.3582713  14.9064998  10.5868792  48.3929264  14.1519595
  17.9840421  58.1931573  17.1573607  18.7143809  57.9316861  17.7181310
  17.3747366  57.4560295  17.1975675  16.0655718  56.3339436  17.7548058
  15.3388882  56.1995401  17.1464549  15.6503005  56.6416264  18.5604776
   3.8885895  60.0529365  25.5195431   4.8088904  60.2307964  25.7135477
   3.8535478  59.1085411  25.3675130   3.8052185  48.4698485  10.1493900
   2.9952913  48.1245570  10.5249146   4.4936602  48.1606029  10.7381512
   5.7342733  47.5476532  11.7718197   6.2873772  47.9671986  12.4308220
   5.9712820  46.6212280  11.8141153   1.7575832  53.5363606  27.5520961
   1.6572559  54.4857963  27.4833052   1.5397374  53.2081845  26.6797031
   9.1121540  49.6577057  11.2796861   8.5320209  50.3161861  10.8974914
   8.8457473  48.8354402  10.8684279   7.5625107  49.0582115  13.4818182
   8.0624885  49.1698650  12.6732500   8.2060715  48.7543168  14.1218990
   1.6207102  56.9660745  26.3686023   1.1374184  57.7661105  26.5749912
   1.7068042  56.9768689  25.4153467   7.8946418  51.8177148  10.3353210
   7.0072273  52.1026798  10.1173404   8.3100407  51.6570911   9.4880486
  11.2460954  51.8423669  14.0507549  12.0221345  52.3320121  14.3232166
  10.5209089  52.2681723  14.5079418  13.6833513  52.5551288  15.1081489
  14.2778004  52.3147024  14.3974798  13.7560097  51.8358418  15.7355026
  11.6792248  53.1221415  11.3753619  11.4229182  52.7218051  12.2061827
  11.0545116  53.8365209  11.2503758  15.9904586  55.8617489  13.8824911
  15.4304144  55.9310678  14.6556473  15.3848089  55.6858473  13.1624407
   5.9168129  60.8285377  27.1709592   6.7859288  61.0026029  26.8096227
   5.4374880  61.6479794  27.0485321   5.7270466  44.6187351  11.6787284
   4.9602862  44.0645837  11.8243966   6.1381171  44.6909219  12.5401436
  17.5760604  72.5374003  16.5754866  18.2139014  72.4180750  15.8718206
  17.4581447  73.4854847  16.6342818  14.3850311  72.4901431  16.5116391
  14.0468822  72.3742495  15.6236926  15.2540079  72.0892596  16.4917397
  14.8670094  73.6436282  22.4702596  14.8558734  73.2489081  21.5983100
  15.0290733  72.9102355  23.0636368  12.5133562  73.8050243  18.0083140
  13.1097134  73.5806265  17.2940103  12.5708533  73.0634988  18.6108588
  17.1301873  70.2625457  13.6508074  17.9164962  69.8444880  13.2998491
  17.3940577  71.1671549  13.8189723  22.5310300  70.2000690  14.5541053
  23.2635472  69.6299907  14.7878882  21.7749656  69.8122290  14.9947558
  20.0535720  63.9122264  19.0135661  19.7219045  64.7817675  18.7896876
  19.4581334  63.5958548  19.6929692  16.5467240  76.1134810  18.4131574
  16.2467963  77.0159849  18.3047381  16.2018299  75.8466993  19.2652727
  19.9464384  68.6317350  16.0929011  19.0381261  68.5632758  15.7987772
  19.8951979  69.1089295  16.9210837  14.0205249  70.0506996  24.0363909
  13.2438583  70.6100916  24.0266773  14.6595812  70.5363779  24.5578779
  21.8126030  66.8333788  17.8706885  21.1700410  67.1266322  17.2246680
  21.3080958  66.7186709  18.6760082  12.2751622  72.8592449  23.5981876
  13.0166306  73.3977493  23.3216699  11.5688607  73.4858738  23.7553428
  17.7506961  75.0021589  22.1954037  18.1590317  74.5604000  21.4508670
  17.0284223  74.4274217  22.4488230  14.1038031  69.9394196  19.5687594
  14.9499227  70.3633610  19.7122243  14.0436669  69.2827820  20.2626157
  18.0735776  75.5622780  15.9506326  17.4444638  75.7268494  15.2482394
  17.6861438  75.9764390  16.7217290  21.9525008  76.4977218  13.3050690
  21.2676046  76.8776119  12.7547723  22.0368857  77.1072545  14.0382638
  17.2537477  67.5998565  21.2268768  17.0098409  68.3540625  20.6903044
  17.5297407  67.9783912  22.0616015  19.2075939  74.1437177  19.9046033
  19.4192835  74.7868937  19.2280415  19.1605688  73.3099493  19.4367964
  16.8102168  66.7554998  16.8082606  15.9486647  67.0536251  17.0999343
  16.8364603  66.9725396  15.8763638  11.0112985  70.0132097  24.3997186
  10.3811646  70.6948378  24.6332583  10.9049073  69.9015179  23.4550324
  20.3221767  77.0209132  18.0768391  21.1439211  76.6189320  17.7951072
  20.3184170  76.9177366  19.0284507  28.4127760  73.3647881  14.4253362
  27.6591469  72.7955279  14.2697367  28.5475302  73.3310545  15.3723997
  10.2893728  64.3152863  26.7622437   9.8960674  63.7619062  27.4370081
  11.1059868  64.6263441  27.1528954  13.2061689  65.7310742  24.3542693
  13.9471402  66.3317895  24.2747156  13.4379612  64.9888380  23.7960736
   8.3503027  70.9167109  22.6320923   8.2356542  70.0152367  22.9328022
   7.4947545  71.1630806  22.2805740  17.1518852  61.7591845  18.6306975
  16.8083121  62.6493487  18.5546086  17.5197815  61.5693503  17.7676560
  14.7016246  66.5950157  12.1964649  13.8457842  66.2057007  12.0170287
  15.1143198  66.6742118  11.3364434  16.2315392  64.1296500  16.5956208
  15.7280188  64.0926635  15.7824014  16.5245999  65.0389243  16.6552865
  12.4758278  64.2135230  15.6022390  13.3411275  64.0178039  15.2428280
  12.5435787  63.9845582  16.5291747  20.3294716  73.9766792  15.7299192
  19.6718390  74.6666053  15.8179320  21.1335115  74.3663224  16.0733178
  19.1400175  72.3311165  13.7803133  19.6532056  72.9641157  14.2824843
  19.7901398  71.7312360  13.4146493  12.3843265  63.3178687  11.7013826
  11.7307677  63.0027704  11.0770441  12.3423739  62.6954427  12.4273649
  15.6181005  69.8060620  16.0261474  14.7003567  70.0275567  15.8683162
  16.0341149  69.8806931  15.1673181  18.8494890  68.2409152  13.1382943
  18.1117647  67.7286538  13.4693186  19.1021664  67.8009534  12.3266220
  18.9506518  61.0185404  13.7324713  19.2565394  60.1582768  13.4450628
  19.6759123  61.6103024  13.5323707  16.7594169  70.3958081  20.8306177
  17.1143557  70.6229555  21.6900642  17.4066300  70.7276458  20.2083432
  22.4891906  73.5176517  11.5355506  22.3509805  73.7078113  10.6076695
  22.1328125  74.2795900  11.9923557  10.6534032  67.5034613  17.6152518
  11.2933411  67.3623372  16.9175481   9.8211563  67.2169126  17.2391120
  22.5161286  75.5853044  16.5466777  22.9497792  75.4928333  17.3949831
  23.2292866  75.5610545  15.9086793   9.1287574  68.8872695  19.5624329
   9.8010627  68.6790057  18.9136978   8.3017360  68.6894781  19.1229561
  23.3776835  75.6276745  19.0799663  23.5712725  76.5322556  19.3258937
  23.2777453  75.1684164  19.9138248  15.0313146  65.5134636  21.5789990
  14.3841061  66.2124585  21.4854466  15.8014161  65.9470780  21.9466238
  18.4391944  75.7783488  24.6540543  18.2877450  75.5494039  23.7370627
  18.4296623  76.7354089  24.6671888  15.2077280  73.3515401  19.6386810
  16.1369340  73.5026560  19.4655777  14.7868310  73.4399421  18.7835456
   9.5315071  72.1615298  20.3226766   9.3934869  71.4295536  20.9238305
  10.4419995  72.0724198  20.0410954  12.1597372  71.8735257  19.8110446
  12.8696990  71.2328449  19.7697064  12.1166680  72.1248152  20.7336627
  10.8726306  68.8600475  21.6306085  10.3363663  68.4091213  22.2827682
  10.2843014  68.9946384  20.8876550  20.1501558  76.7742194  20.9631005
  19.2628336  76.4368116  21.0857404  20.7200109  76.0425225  21.1999770
   6.6065427  67.9956483  18.7159080   6.5223616  67.3882152  17.9809490
   5.7848133  68.4865501  18.7168576  16.7789141  66.4810046  14.0829275
  17.2757840  65.7280008  13.7630345  16.0076122  66.5174363  13.5172484
  24.6318898  72.1850412  15.7247566  24.6208775  73.0675127  15.3541499
  23.7636278  71.8321962  15.5302103  13.3624110  68.6227429  13.8100959
  12.9921897  68.0698469  14.4981865  13.8583202  68.0185563  13.2575959
  21.2491473  71.0799053  12.1917732  21.7151925  71.9127044  12.1178035
  21.6998973  70.6144034  12.8962991  19.2208136  63.4479640  16.2308634
  18.3071215  63.6783866  16.3990841  19.6501237  63.5318084  17.0822666
  18.9914594  71.6369532  18.7308528  18.3386044  71.8845439  18.0760980
  19.3694974  70.8233670  18.3971005  15.0402167  72.3789343  25.2174565
  14.3642804  72.2783472  25.8876940  15.8629801  72.2228556  25.6810562
   8.7589443  66.0331420  20.0554065   8.8230770  66.8946251  19.6431463
   8.6956564  65.4205422  19.3226424   8.2341716  68.1054552  23.7027100
   8.8613755  67.7231630  24.3164624   7.3769635  67.8868754  24.0682792
  11.3427819  65.3241405  21.8913655  11.8662221  65.5703701  22.6539964
  11.1240152  66.1561439  21.4716792  12.5480364  66.2655100  19.5763325
  12.2077184  65.4662913  19.9784005  11.8419370  66.5656811  19.0040159
  13.1996836  63.3504412  18.0290648  14.0222905  62.8764890  17.9069539
  13.4434899  64.1294896  18.5289335  12.5831798  67.0326081  15.8863517
  12.5693366  66.1367174  15.5495815  13.3004226  67.0396744  16.5201803
  14.4357928  67.4663421  17.9316644  14.1775706  68.3880492  17.9300974
  13.9042969  67.0693855  18.6217108  14.8559884  63.5995371  14.2917807
  14.8781581  63.6634705  13.3369786  15.2727943  62.7599880  14.4858313
  25.2343508  73.3350631  12.3297029  25.6774654  72.5857956  11.9316152
  24.3570019  73.3260767  11.9470761   5.9847099  71.7098773  21.6700445
   5.2428835  71.8581409  22.2565076   5.6639843  71.9707039  20.8067195
  11.4709773  67.4272458  25.3641019  11.5197929  68.3034581  24.9818789
  12.0132287  66.8849851  24.7912663  21.9564619  77.9713582  24.6442156
  21.1660162  77.9537720  24.1046656  21.7197973  78.5101875  25.3991193
  22.0762494  74.8206048  21.9574885  22.1260499  74.6556055  22.8990408
  21.9676417  73.9533307  21.5672766  19.3666256  70.8036976  23.2734192
  20.2676119  70.6643441  22.9818190  19.4414231  70.9691431  24.2132369
  13.7009062  68.1803831  22.1187378  12.8312371  68.4737397  21.8469967
  13.9368542  68.7644276  22.8394642  23.5780691  77.2402990  22.2016907
  23.2865499  77.6032970  23.0380367  22.9652822  76.5269998  22.0230239
  24.7776373  74.8055869  14.7219477  25.6123264  75.2445673  14.8857037
  24.9135502  74.3294523  13.9027723  21.8267879  72.3635604  20.6696965
  22.3022000  72.5563250  19.8615816  20.9033444  72.4194790  20.4240348
  16.4048095  64.3983448  19.6352798  16.9230039  65.1344475  19.3099287
  16.0503228  64.7047441  20.4699558  16.6560690  60.8183730  15.1553695
  16.9362443  60.1506919  15.7814122  17.4411296  61.0112826  14.6428359
  20.5269548  69.2401364  18.9025270  21.4786971  69.3399462  18.9237494
  20.3572998  68.4479633  19.4123354  18.5483927  66.3256947  19.0884671
  17.9533859  66.6061960  18.3931160  18.2633624  66.8150848  19.8601412
  23.0057626  72.4607484  18.0167570  22.9733946  71.5223485  18.2027254
  23.6158249  72.5391521  17.2833395  23.1552114  69.2518527  18.0625853
  22.6391163  68.4676984  17.8755782  24.0392063  68.9237244  18.2272372
  20.8162841  62.9959543  14.0221666  20.6187662  62.6874631  14.9064998
  21.4262547  63.7221182  14.1519595  28.8234175  73.5223491  17.1573607
  29.5537564  73.2608779  17.7181310  28.2141121  72.7852213  17.1975675
  26.9049473  71.6631353  17.7548058  26.1782636  71.5287318  17.1464549
  26.4896759  71.9708182  18.5604776  14.7279649  75.3821283  25.5195431
  15.6482659  75.5599882  25.7135477  14.6929232  74.4377328  25.3675130
  14.6445939  63.7990403  10.1493900  13.8346668  63.4537488  10.5249146
  15.3330356  63.4897947  10.7381512  16.5736488  62.8768450  11.7718197
  17.1267526  63.2963903  12.4308220  16.8106574  61.9504198  11.8141153
  12.5969587  68.8655523  27.5520961  12.4966314  69.8149880  27.4833052
  12.3791129  68.5373762  26.6797031  19.9515295  64.9868975  11.2796861
  19.3713964  65.6453779  10.8974914  19.6851227  64.1646320  10.8684279
  18.4018861  64.3874033  13.4818182  18.9018639  64.4990567  12.6732500
  19.0454469  64.0835086  14.1218990  12.4600857  72.2952662  26.3686023
  11.9767939  73.0953022  26.5749912  12.5461796  72.3060607  25.4153467
  18.7340173  67.1469065  10.3353210  17.8466028  67.4318716  10.1173404
  19.1494162  66.9862829   9.4880486  22.0854709  67.1715586  14.0507549
  22.8615099  67.6612039  14.3232166  21.3602843  67.5973641  14.5079418
  24.5227268  67.8843206  15.1081489  25.1171758  67.6438942  14.3974798
  24.5953851  67.1650336  15.7355026  22.5186002  68.4513333  11.3753619
  22.2622937  68.0509969  12.2061827  21.8938870  69.1657127  11.2503758
  26.8298340  71.1909406  13.8824911  26.2697898  71.2602596  14.6556473
  26.2241844  71.0150391  13.1624407   4.2308491  69.0896447  21.6717451
   4.8767354  68.5795401  22.1604676   4.0225642  69.8265129  22.2460876
  16.7561883  76.1577294  27.1709592  17.6253043  76.3317947  26.8096227
  16.2768634  76.9771711  27.0485321  16.5664221  59.9479268  11.6787284
  15.7996617  59.3937755  11.8243966  16.9774926  60.0201137  12.5401436
   8.5705982  66.2364064  25.7692465   9.4337443  65.8800869  25.9795790
   7.9971392  65.8977959  26.4567870  30.8929475  79.2414181  19.0135661
  30.5612799  80.1109592  18.7896876  30.2975088  78.9250465  19.6929692
  32.6519784  82.1625706  17.8706885  32.0094165  82.4558239  17.2246680
  32.1474713  82.0478626  18.6760082  27.9912607  77.0883763  18.6306975
  27.6476876  77.9785404  18.5546086  28.3591569  76.8985420  17.7676560
  27.0709147  79.4588418  16.5956208  26.5673943  79.4218553  15.7824014
  27.3639754  80.3681161  16.6552865  23.2237020  78.6470604  11.7013826
  22.5701432  78.3319622  11.0770441  23.1817494  78.0246345  12.4273649
  29.7900272  76.3477322  13.7324713  30.0959149  75.4874685  13.4450628
  30.5152877  76.9394942  13.5323707  30.0601890  78.7771557  16.2308634
  29.1464970  79.0075784  16.3990841  30.4894992  78.8610001  17.0822666
  24.0390590  78.6796330  18.0290648  24.8616660  78.2056808  17.9069539
  24.2828654  79.4586814  18.5289335  25.6953638  78.9287289  14.2917807
  25.7175335  78.9926622  13.3369786  26.1121697  78.0891798  14.4858313
  27.2441850  79.7275365  19.6352798  27.7623794  80.4636392  19.3099287
  26.8896983  80.0339359  20.4699558  27.4954444  76.1475648  15.1553695
  27.7756198  75.4798837  15.7814122  28.2805051  76.3404744  14.6428359
  31.6556596  78.3251461  14.0221666  31.4581417  78.0166549  14.9064998
  32.2656301  79.0513100  14.1519595  25.4839694  79.1282321  10.1493900
  24.6740422  78.7829406  10.5249146  26.1724111  78.8189864  10.7381512
  27.4130242  78.2060368  11.7718197  27.9661281  78.6255821  12.4308220
  27.6500329  77.2796116  11.8141153  30.7909049  80.3160893  11.2796861
  30.2107718  80.9745697  10.8974914  30.5244982  79.4938237  10.8684279
  29.2412616  79.7165950  13.4818182  29.7412394  79.8282485  12.6732500
  29.8848224  79.4127003  14.1218990  35.3621022  83.2135123  15.1081489
  35.9565513  82.9730859  14.3974798  35.4347606  82.4942254  15.7355026
  27.4057975  75.2771186  11.6787284  26.6390371  74.7229673  11.8243966
  27.8168680  75.3493055  12.5401436   4.5901112  40.5355055  10.9553730
   4.1464966  39.7491433  10.6374635   5.2518325  40.7234205  10.2897621
   6.6882350  40.8157854   8.9835132   6.6700825  41.6366736   8.4915401
   7.6102270  40.6911930   9.2085273   3.1455404  38.3301984   9.8258640
   3.6783741  37.5690272   9.5957948   2.6169485  38.0375636  10.5682794
  12.5383082  37.3046950   5.8044969  12.7318972  38.2092760   6.0504244
  12.4383700  36.8454369   6.6383554   7.5998191  37.4553693  11.3785850
   7.4483697  37.2264244  10.4615933   7.5902870  38.4124294  11.3917195
   9.3090397  40.4872815   9.4562332   9.2502943  39.8032035   8.7892915
   9.7109916  41.2291805   9.0042958   9.3107805  38.4512399   7.6876311
   8.4234583  38.1138321   7.8102710   9.8806356  37.7195430   7.9245077
   5.3007641  43.0100686   6.8095713   6.0135614  43.6448150   6.7371615
   4.8097670  43.1064552   5.9935715   4.2008414  34.0559548  11.9419871
   3.5249051  33.9553677  12.6122247   5.0236048  33.8998761  12.4055869
   7.7942071  40.1887732  12.0326142   8.3381975  40.8017691  11.5381097
   7.2128916  40.7467311  12.5493155   3.0897008  42.9284957   8.1926142
   3.3984135  42.6834103   9.0648841   3.8872490  43.1331595   7.7045012
  11.1170866  39.6483787  11.3687463  10.3266409  39.6307925  10.8291963
  10.8804220  40.1872080  12.1236500  11.2368741  36.4976253   8.6820192
  11.2866745  36.3326260   9.6235714  11.1282664  35.6303512   8.2918072
   8.5272503  32.4807181   9.9979498   9.4282366  32.3413646   9.7063496
   8.6020477  32.6461636  10.9377676  12.7386937  38.9173194   8.9262213
  12.4471746  39.2803175   9.7625674  12.1259069  38.2040203   8.7475545
   3.8885896  37.0591488  12.2440737   4.8088905  37.2370087  12.4380784
   3.8535479  36.1147533  12.0920437   1.6207104  33.9722867  13.0931329
   1.1374185  34.7723227  13.2995218   1.7068043  33.9830812  12.1398773
   5.9168130  37.8347499  13.8954898   6.7859289  38.0088152  13.5341533
   5.4374881  38.6541916  13.7730628  17.5760606  49.5436125   3.3000173
  18.2139015  49.4242873   2.5963513  17.4581448  50.4916969   3.3588125
  14.3850312  49.4963553   3.2361698  14.0468823  49.3804618   2.3482232
  15.2540080  49.0954718   3.2162704  14.8670095  50.6498405   9.1947903
  14.8558736  50.2551203   8.3228407  15.0290734  49.9164478   9.7881675
  11.5877356  53.4335517   8.1427087  11.2967222  54.3381148   8.0273753
  12.2234340  53.4752045   8.8571157  12.5133563  50.8112365   4.7328447
  13.1097135  50.5868388   4.0185410  12.5708534  50.0697111   5.3353895
  17.1301874  47.2687579   0.3753381  17.9164963  46.8507002   0.0243798
  17.3940578  48.1733671   0.5435029  22.5310301  47.2062812   1.2786359
  23.2635473  46.6362029   1.5124189  21.7749657  46.8184413   1.7192865
  20.0535721  40.9184386   5.7380968  19.7219046  41.7879797   5.5142183
  19.4581335  40.6020670   6.4174998  16.5467241  53.1196932   5.1376881
  16.2467964  54.0221971   5.0292688  16.2018301  52.8529116   5.9898034
  19.9464385  45.6379473   2.8174318  19.0381262  45.5694881   2.5233079
  19.8951981  46.1151418   3.6456144  14.0205251  47.0569118  10.7609215
  13.2438585  47.6163038  10.7512080  14.6595814  47.5425901  11.2824086
  21.8126031  43.8395911   4.5952192  21.1700411  44.1328444   3.9491987
  21.3080960  43.7248831   5.4005389  12.2751623  49.8654572  10.3227182
  13.0166307  50.4039616  10.0462006  11.5688608  50.4920860  10.4798734
  17.7506963  52.0083712   8.9199344  18.1590319  51.5666123   8.1753976
  17.0284224  51.4336340   9.1733537  14.1038033  46.9456319   6.2932901
  14.9499228  47.3695732   6.4367550  14.0436670  46.2889943   6.9871464
  18.0735777  52.5684903   2.6751633  17.4444640  52.7330617   1.9727701
  17.6861439  52.9826512   3.4462597  21.9525009  53.5039340   0.0295997
  21.2676047  53.8838242  -0.5206970  22.0368858  54.1134667   0.7627944
  17.2537478  44.6060687   7.9514074  17.0098410  45.3602748   7.4148350
  17.5297408  44.9846035   8.7861322  19.2075941  51.1499300   6.6291340
  19.4192836  51.7931059   5.9525721  19.1605689  50.3161616   6.1613270
  16.8102170  43.7617120   3.5327912  15.9486649  44.0598374   3.8244650
  16.8364604  43.9787519   2.6008945  11.0112987  47.0194220  11.1242492
  10.3811647  47.7010501  11.3577889  10.9049075  46.9077301  10.1795631
  20.3221769  54.0271255   4.8013697  21.1439212  53.6251442   4.5196379
  20.3184171  53.9239489   5.7529813  14.0878372  53.5755298   6.9574408
  14.1522805  54.0375705   7.7932580  13.3789296  52.9452663   7.0856718
  28.4127762  50.3710003   1.1498669  27.6591470  49.8017401   0.9942673
  28.5475303  50.3372668   2.0969304  10.2893729  41.3214986  13.4867743
   9.8960675  40.7681184  14.1615388  11.1059870  41.6325564  13.8774261
  13.2061690  42.7372865  11.0788000  13.9471404  43.3380018  10.9992462
  13.4379613  41.9950502  10.5206043   8.3503028  47.9229232   9.3566230
   8.2356543  47.0214489   9.6573329   7.4947546  48.1692929   9.0051046
  15.4294866  55.8646972  10.9553730  14.9858720  55.0783351  10.6374635
  16.0912080  56.0526123  10.2897621  17.5276104  56.1449772   8.9835132
  17.5094580  56.9658653   8.4915401  18.4496024  56.0203847   9.2085273
  13.9849158  53.6593902   9.8258640  14.5177495  52.8982190   9.5957948
  13.4563239  53.3667553  10.5682794  17.1518853  38.7653968   5.3552282
  16.8083123  39.6555609   5.2791392  17.5197816  38.5755625   4.4921867
  16.2315394  41.1358623   3.3201515  15.7280189  41.0988758   2.5069320
  16.5246001  42.0451365   3.3798172  20.3294717  50.9828915   2.4544498
  19.6718391  51.6728176   2.5424627  21.1335116  51.3725347   2.7978485
  19.1400176  49.3373287   0.5048440  19.6532058  49.9703279   1.0070150
  19.7901400  48.7374483   0.1391800  15.6181007  46.8122743   2.7506781
  14.7003568  47.0337690   2.5928469  16.0341150  46.8869053   1.8918488
  18.8494892  45.2471275  -0.1371750  18.1117648  44.7348661   0.1938493
  19.1021665  44.8071656  -0.9488473  16.7594170  47.4020204   7.5551483
  17.1143558  47.6291677   8.4145949  17.4066302  47.7338581   6.9328739
  22.4891907  50.5238640  -1.7399188  22.3509806  50.7140236  -2.6677999
  22.1328126  51.2858023  -1.2831137  10.6534033  44.5096735   4.3397824
  11.2933413  44.3685494   3.6420788   9.8211564  44.2231249   3.9636426
  22.5161287  52.5915167   3.2712084  22.9497794  52.4990456   4.1195138
  23.2292868  52.5672667   2.6332100  16.2489182  56.1917261   4.8045184
  16.3026204  56.7608197   5.5722900  15.3803963  56.3619146   4.4399221
   9.1287575  45.8934817   6.2869636   9.8010629  45.6852179   5.6382285
   8.3017362  45.6956903   5.8474868  23.3776836  52.6338868   5.8044969
  23.5712726  53.5384678   6.0504244  23.2777455  52.1746287   6.6383554
  15.0313147  42.5196758   8.3035296  14.3841062  43.2186708   8.2099773
  15.8014163  42.9532902   8.6711545  18.4391945  52.7845610  11.3785850
  18.2877451  52.5556162  10.4615933  18.4296625  53.7416212  11.3917195
  15.2077281  50.3577523   6.3632116  16.1369341  50.5088683   6.1901084
  14.7868311  50.4461544   5.5080763   9.5315072  49.1677420   7.0472073
   9.3934870  48.4357659   7.6483612  10.4419996  49.0786320   6.7656261
  12.1597373  48.8797380   6.5355752  12.8696992  48.2390572   6.4942371
  12.1166681  49.1310274   7.4581933  20.1484152  55.8164733   9.4562332
  20.0896698  55.1323953   8.7892915  20.5503670  56.5583723   9.0042958
  10.8726307  45.8662597   8.3551392  10.3363664  45.4153336   9.0072988
  10.2843015  46.0008506   7.6121856  20.1501559  53.7804317   7.6876311
  19.2628338  53.4430239   7.8102710  20.7200110  53.0487348   7.9245077
   6.6065428  45.0018605   5.4404386   6.5223617  44.3944275   4.7054796
   5.7848135  45.4927623   5.4413883  24.6318900  49.1912534   2.4492873
  24.6208776  50.0737250   2.0786806  23.7636279  48.8384085   2.2547410
  16.1401396  58.3392603   6.8095713  16.8529368  58.9740068   6.7371615
  15.6491425  58.4356469   5.9935715  21.2491474  48.0861175  -1.0836961
  21.7151926  48.9189167  -1.1576658  21.6998975  47.6206157  -0.3791703
  19.2208137  40.4541762   2.9553940  18.3071217  40.6845989   3.1236147
  19.6501238  40.5380206   3.8067973  18.9914595  48.6431654   5.4553834
  18.3386046  48.8907562   4.8006287  19.3694975  47.8295792   5.1216312
  15.0402168  49.3851465  11.9419871  14.3642805  49.2845595  12.6122247
  15.8629802  49.2290679  12.4055869   8.7589445  43.0393542   6.7799372
   8.8230771  43.9008373   6.3676770   8.6956565  42.4267544   6.0471731
   8.2341717  45.1116675  10.4272406   8.8613756  44.7293752  11.0409931
   7.3769636  44.8930877  10.7928099  18.6335826  55.5179650  12.0326142
  19.1775730  56.1309608  11.5381097  18.0522670  56.0759229  12.5493155
  18.9828247  56.4409388   4.7920720  18.0358583  56.3214739   4.7199046
  19.3311020  55.5531886   4.8746981  11.3427820  42.3303527   8.6158962
  11.8662222  42.5765824   9.3785271  11.1240154  43.1623562   8.1962099
  19.5908802  57.0590663   2.0789945  20.5155350  56.8533525   1.9414396
  19.4224105  56.8107064   2.9879286  12.5480365  43.2717222   6.3008632
  12.2077186  42.4725035   6.7029312  11.8419372  43.5718933   5.7285465
  13.1996837  40.3566535   4.7535955  14.0222907  39.8827013   4.6314845
  13.4434901  41.1357018   5.2534641  12.5831799  44.0388203   2.6108823
  12.5693368  43.1429297   2.2741121  13.3004227  44.0458867   3.2447109
  14.4357930  44.4725544   4.6561951  14.1775707  45.3942614   4.6546281
  13.9042970  44.0755978   5.3462415  25.2343509  50.3412754  -0.9457664
  25.6774656  49.5920079  -1.3438541  24.3570020  50.3322890  -1.3283932
   5.9847100  48.7160896   8.3945752   5.2428836  48.8643531   8.9810382
   5.6639844  48.9769162   7.5312501  13.9290763  58.2576874   8.1926142
  14.2377889  58.0126021   9.0648841  14.7266245  58.4623513   7.7045012
  11.4709774  44.4334581  12.0886326  11.5197930  45.3096704  11.7064096
  12.0132289  43.8911974  11.5157969  21.9564620  54.9775704  11.3687463
  21.1660164  54.9599843  10.8291963  21.7197975  55.5163998  12.1236500
  22.0762495  51.8268171   8.6820192  22.1260500  51.6618178   9.6235714
  21.9676418  50.9595430   8.2918072  19.3666257  47.8099099   9.9979498
  20.2676120  47.6705563   9.7063496  19.4414232  47.9753553  10.9377676
  13.7009063  45.1865953   8.8432685  12.8312372  45.4799519   8.5715273
  13.9368543  45.7706398   9.5639948  23.5780692  54.2465112   8.9262213
  23.2865500  54.6095093   9.7625674  22.9652823  53.5332120   8.7475545
  24.7776374  51.8117992   1.4464783  25.6123266  52.2507796   1.6102344
  24.9135503  51.3356645   0.6273029  21.8267880  49.3697727   7.3942271
  22.3022002  49.5625373   6.5861123  20.9033445  49.4256913   7.1485655
  16.4048097  41.4045570   6.3598105  16.9230040  42.1406597   6.0344594
  16.0503229  41.7109564   7.1944864  20.5269549  46.2463487   5.6270577
  21.4786972  46.3461585   5.6482801  20.3573000  45.4541755   6.1368661
  18.5483929  43.3319070   5.8129978  17.9533861  43.6124083   5.1176466
  18.2633625  43.8212971   6.5846719  23.0057627  49.4669607   4.7412876
  22.9733947  48.5285607   4.9272560  23.6158251  49.5453643   4.0078701
  23.1552115  46.2580650   4.7871160  22.6391164  45.4739107   4.6001088
  24.0392064  45.9299367   4.9517679  20.8162842  40.0021666   0.7466972
  20.6187663  39.6936754   1.6310304  21.4262548  40.7283304   0.8764902
  28.8234177  50.5285613   3.8818913  29.5537565  50.2670902   4.4426617
  28.2141122  49.7914335   3.9220981  26.9049474  48.6693476   4.4793364
  26.1782637  48.5349441   3.8709856  26.4896761  48.9770305   5.2850082
  14.7279650  52.3883406  12.2440737  15.6482660  52.5662005  12.4380784
  14.6929233  51.4439451  12.0920437  12.5969588  45.8717646  14.2766268
  12.4966315  46.8212003  14.2078359  12.3791130  45.5435885  13.4042338
  12.4600858  49.3014785  13.0931329  11.9767940  50.1015145  13.2995218
  12.5461797  49.3122730  12.1398773   8.9773578  51.7620436   7.6970561
   9.7966467  52.2564514   7.7205398   9.2510386  50.8452404   7.6688128
  22.0854710  44.1777709   0.7752855  22.8615100  44.6674161   1.0477472
  21.3602844  44.6035763   1.2324725  24.5227269  44.8905328   1.8326796
  25.1171760  44.6501064   1.1220104  24.5953852  44.1712459   2.4600332
  22.5186004  45.4575456  -1.9001074  22.2622938  45.0572091  -1.0692867
  21.8938872  46.1719250  -2.0250935  26.8298342  48.1971529   0.6070217
  26.2697900  48.2664718   1.3801779  26.2241845  48.0212514  -0.1130287
   4.2308492  46.0958570   8.3962758   4.8767356  45.5857523   8.8849983
   4.0225643  46.8327251   8.9706183  16.7561884  53.1639417  13.8954898
  17.6253044  53.3380069  13.5341533  16.2768636  53.9833834  13.7730628
   8.5705983  43.2426187  12.4937772   9.4337445  42.8862991  12.7041097
   7.9971394  42.9040081  13.1813176  28.4154360  64.8728043   3.3000173
  29.0532770  64.7534790   2.5963513  28.2975203  65.8208887   3.3588125
  25.2244066  64.8255471   3.2361698  24.8862578  64.7096536   2.3482232
  26.0933834  64.4246636   3.2162704  25.7063849  65.9790323   9.1947903
  25.6952490  65.5843121   8.3228407  25.8684489  65.2456395   9.7881675
  22.4271110  68.7627435   8.1427087  22.1360976  69.6673065   8.0273753
  23.0628095  68.8043962   8.8571157  23.3527317  66.1404283   4.7328447
  23.9490890  65.9160305   4.0185410  23.4102289  65.3989029   5.3353895
  27.9695628  62.5979497   0.3753381  28.7558718  62.1798920   0.0243798
  28.2334333  63.5025589   0.5435029  33.3704056  62.5354730   1.2786359
  34.1029228  61.9653947   1.5124189  32.6143411  62.1476330   1.7192865
  30.8929476  56.2476304   5.7380968  30.5612801  57.1171715   5.5142183
  30.2975089  55.9312588   6.4174998  27.3860995  68.4488850   5.1376881
  27.0861719  69.3513889   5.0292688  27.0412055  68.1821033   5.9898034
  30.7858139  60.9671390   2.8174318  29.8775017  60.8986799   2.5233079
  30.7345735  61.4443335   3.6456144  24.8599005  62.3861036  10.7609215
  24.0832339  62.9454956  10.7512080  25.4989568  62.8717819  11.2824086
  32.6519786  59.1687829   4.5952192  32.0094166  59.4620362   3.9491987
  32.1474714  59.0540749   5.4005389  23.1145377  65.1946489  10.3227182
  23.8560062  65.7331533  10.0462006  22.4082363  65.8212778  10.4798734
  28.5900717  67.3375630   8.9199344  28.9984073  66.8958040   8.1753976
  27.8677979  66.7628257   9.1733537  24.9431787  62.2748236   6.2932901
  25.7892982  62.6987650   6.4367550  24.8830425  61.6181861   6.9871464
  28.9129532  67.8976820   2.6751633  28.2838394  68.0622534   1.9727701
  28.5255194  68.3118430   3.4462597  28.0931232  59.9352605   7.9514074
  27.8492164  60.6894665   7.4148350  28.3691163  60.3137952   8.7861322
  30.0469695  66.4791217   6.6291340  30.2586590  67.1222977   5.9525721
  29.9999443  65.6453534   6.1613270  27.6495924  59.0909038   3.5327912
  26.7880403  59.3890291   3.8244650  27.6758359  59.3079437   2.6008945
  21.8506741  62.3486137  11.1242492  21.2205402  63.0302418  11.3577889
  21.7442829  62.2369219  10.1795631  31.1615523  69.3563173   4.8013697
  31.9832967  68.9543360   4.5196379  31.1577926  69.2531407   5.7529813
  24.9272127  68.9047216   6.9574408  24.9916559  69.3667623   7.7932580
  24.2183050  68.2744581   7.0856718  21.1287484  56.6506903  13.4867743
  20.7354429  56.0973102  14.1615388  21.9453624  56.9617482  13.8774261
  24.0455445  58.0664782  11.0788000  24.7865158  58.6671935  10.9992462
  24.2773368  57.3242420  10.5206043  19.1896783  63.2521150   9.3566230
  19.0750298  62.3506407   9.6573329  18.3341301  63.4984846   9.0051046
  26.2688621  71.1938890  10.9553730  25.8252475  70.4075268  10.6374635
  26.9305834  71.3818040  10.2897621  28.3669859  71.4741690   8.9835132
  28.3488334  72.2950571   8.4915401  29.2889779  71.3495765   9.2085273
  24.8242913  68.9885819   9.8258640  25.3571250  68.2274107   9.5957948
  24.2956994  68.6959471  10.5682794  27.9912608  54.0945885   5.3552282
  27.6476877  54.9847527   5.2791392  28.3591570  53.9047543   4.4921867
  25.5410002  58.9304197  -1.0790045  24.6851598  58.5411048  -1.2584406
  25.9536953  59.0096158  -1.9390259  27.0709148  56.4650540   3.3201515
  26.5673944  56.4280676   2.5069320  27.3639755  57.3743283   3.3798172
  23.3152034  56.5489270   2.3267697  24.1805031  56.3532079   1.9673586
  23.3829543  56.3199622   3.2537053  31.1688472  66.3120832   2.4544498
  30.5112146  67.0020094   2.5424627  31.9728871  66.7017264   2.7978485
  29.9793930  64.6665205   0.5048440  30.4925812  65.2995197   1.0070150
  30.6295154  64.0666400   0.1391800  23.2237021  55.6532727  -1.5740867
  22.5701433  55.3381744  -2.1984252  23.1817495  55.0308467  -0.8481044
  26.4574761  62.1414661   2.7506781  25.5397323  62.3629608   2.5928469
  26.8734905  62.2160971   1.8918488  29.6888646  60.5763192  -0.1371750
  28.9511403  60.0640579   0.1938493  29.9415420  60.1363574  -0.9488473
  29.7900273  53.3539444   0.4570019  30.0959150  52.4936808   0.1695934
  30.5152878  53.9457065   0.2569013  27.5987925  62.7312122   7.5551483
  27.9537313  62.9583595   8.4145949  28.2460056  63.0630499   6.9328739
  21.4927788  59.8388653   4.3397824  22.1327167  59.6977412   3.6420788
  20.6605318  59.5523166   3.9636426  27.0882936  71.5209179   4.8045184
  27.1419959  72.0900115   5.5722900  26.2197718  71.6911064   4.4399221
  19.9681330  61.2226735   6.2869636  20.6404383  61.0144097   5.6382285
  19.1411116  61.0248821   5.8474868  34.2170591  67.9630785   5.8044969
  34.4106481  68.8676596   6.0504244  34.1171209  67.5038204   6.6383554
  25.8706902  57.8488676   8.3035296  25.2234817  58.5478626   8.2099773
  26.6407917  58.2824820   8.6711545  29.2785700  68.1137528  11.3785850
  29.1271206  67.8848080  10.4615933  29.2690379  69.0708129  11.3917195
  26.0471036  65.6869441   6.3632116  26.9763096  65.8380600   6.1901084
  25.6262066  65.7753462   5.5080763  20.3708827  64.4969338   7.0472073
  20.2328625  63.7649577   7.6483612  21.2813750  64.4078238   6.7656261
  22.9991128  64.2089297   6.5355752  23.7090746  63.5682489   6.4942371
  22.9560436  64.4602192   7.4581933  30.9877906  71.1456651   9.4562332
  30.9290452  70.4615871   8.7892915  31.3897425  71.8875641   9.0042958
  21.7120062  61.1954515   8.3551392  21.1757419  60.7445254   9.0072988
  21.1236770  61.3300424   7.6121856  30.9895313  69.1096235   7.6876311
  30.1022092  68.7722156   7.8102710  31.5593865  68.3779266   7.9245077
  17.4459183  60.3310523   5.4404386  17.3617371  59.7236192   4.7054796
  16.6241889  60.8219541   5.4413883  27.6182897  58.8164086   0.8074581
  28.1151596  58.0634049   0.4875652  26.8469878  58.8528403   0.2417791
  35.4712654  64.5204452   2.4492873  35.4602530  65.4029167   2.0786806
  34.6030033  64.1676003   2.2547410  26.9795150  73.6684521   6.8095713
  27.6923123  74.3031986   6.7371615  26.4885179  73.7648387   5.9935715
  24.2017865  60.9581469   0.5346266  23.8315653  60.4052510   1.2227172
  24.6976958  60.3539603  -0.0178734  30.0601891  55.7833680   2.9553940
  29.1464971  56.0137907   3.1236147  30.4894993  55.8672124   3.8067973
  29.8308350  63.9723572   5.4553834  29.1779800  64.2199479   4.8006287
  30.2088730  63.1587710   5.1216312  25.8795923  64.7143383  11.9419871
  25.2036560  64.6137512  12.6122247  26.7023557  64.5582597  12.4055869
  19.5983199  58.3685460   6.7799372  19.6624526  59.2300291   6.3676770
  19.5350319  57.7559462   6.0471731  19.0735472  60.4408593  10.4272406
  19.7007510  60.0585670  11.0409931  18.2163390  60.2222795  10.7928099
  29.4729580  70.8471568  12.0326142  30.0169484  71.4601526  11.5381097
  28.8916425  71.4051146  12.5493155  29.8222001  71.7701306   4.7920720
  28.8752337  71.6506657   4.7199046  30.1704775  70.8823804   4.8746981
  22.1821575  57.6595445   8.6158962  22.7055977  57.9057741   9.3785271
  21.9633908  58.4915480   8.1962099  23.3874120  58.6009140   6.3008632
  23.0470940  57.8016953   6.7029312  22.6813126  58.9010851   5.7285465
  24.0390592  55.6858452   4.7535955  24.8616661  55.2118931   4.6314845
  24.2828655  56.4648936   5.2534641  23.4225553  59.3680121   2.6108823
  23.4087122  58.4721214   2.2741121  24.1397981  59.3750785   3.2447109
  25.2751684  59.8017461   4.6561951  25.0169462  60.7234532   4.6546281
  24.7436724  59.4047896   5.3462415  25.6953640  55.9349412   1.0163113
  25.7175336  55.9988745   0.0615093  26.1121699  55.0953920   1.2103619
  16.8240854  64.0452814   8.3945752  16.0822591  64.1935449   8.9810382
  16.5033599  64.3061079   7.5312501  24.7684517  73.5868792   8.1926142
  25.0771644  73.3417939   9.0648841  25.5659999  73.7915430   7.7045012
  22.3103529  59.7626499  12.0886326  22.3591684  60.6388621  11.7064096
  22.8526043  59.2203892  11.5157969  32.7958374  70.3067622  11.3687463
  32.0053918  70.2891761  10.8291963  32.5591729  70.8455916  12.1236500
  32.9156250  67.1560088   8.6820192  32.9654254  66.9910096   9.6235714
  32.8070173  66.2887347   8.2918072  30.2060012  63.1391016   9.9979498
  31.1069875  62.9997481   9.7063496  30.2807986  63.3045471  10.9377676
  24.5402817  60.5157871   8.8432685  23.6706127  60.8091437   8.5715273
  24.7762298  61.0998316   9.5639948  34.4174446  69.5757030   8.9262213
  34.1259255  69.9387010   9.7625674  33.8046578  68.8624038   8.7475545
  32.6661635  64.6989644   7.3942271  33.1415756  64.8917291   6.5861123
  31.7427200  64.7548830   7.1485655  27.2441851  56.7337488   6.3598105
  27.7623795  57.4698515   6.0344594  26.8896984  57.0401481   7.1944864
  27.4954445  53.1537771   1.8799002  27.7756199  52.4860960   2.5059428
  28.2805052  53.3466866   1.3673665  31.3663304  61.5755405   5.6270577
  32.3180726  61.6753502   5.6482801  31.1966754  60.7833673   6.1368661
  29.3877683  58.6610988   5.8129978  28.7927615  58.9416000   5.1176466
  29.1027380  59.1504889   6.5846719  33.8451381  64.7961524   4.7412876
  33.8127701  63.8577525   4.9272560  34.4552005  64.8745561   4.0078701
  33.9945870  61.5872568   4.7871160  33.4784919  60.8031024   4.6001088
  34.8785818  61.2591284   4.9517679  31.6556597  55.3313583   0.7466972
  31.4581418  55.0228671   1.6310304  32.2656302  56.0575222   0.8764902
  39.6627931  65.8577531   3.8818913  40.3931320  65.5962819   4.4426617
  39.0534877  65.1206253   3.9220981  37.7443228  63.9985394   4.4793364
  37.0176392  63.8641359   3.8709856  37.3290515  64.3062222   5.2850082
  25.5673405  67.7175323  12.2440737  26.4876414  67.8953922  12.4380784
  25.5322988  66.7731369  12.0920437  25.4839695  56.1344443  -3.1260793
  24.6740423  55.7891528  -2.7505547  26.1724112  55.8251987  -2.5373181
  27.4130243  55.2122490  -1.5036496  27.9661282  55.6317944  -0.8446473
  27.6500330  54.2858238  -1.4613540  23.4363343  61.2009564  14.2766268
  23.3360070  62.1503921  14.2078359  23.2184885  60.8727803  13.4042338
  30.7909050  57.3223015  -1.9957832  30.2107720  57.9807819  -2.3779780
  30.5244983  56.5000360  -2.4070415  29.2412617  56.7228073   0.2063488
  29.7412395  56.8344607  -0.6022193  29.8848225  56.4189126   0.8464297
  23.2994613  64.6306703  13.0931329  22.8161694  65.4307063  13.2995218
  23.3855552  64.6414647  12.1398773  19.8167332  67.0912353   7.6970561
  20.6360221  67.5856432   7.7205398  20.0904140  66.1744321   7.6688128
  29.5733929  59.4823106  -2.9401484  28.6859784  59.7672756  -3.1581289
  29.9887918  59.3216869  -3.7874207  32.9248465  59.5069627   0.7752855
  33.7008855  59.9966079   1.0477472  32.1996599  59.9327681   1.2324725
  35.3621023  60.2197246   1.8326796  35.9565514  59.9792982   1.1220104
  35.4347607  59.5004376   2.4600332  15.0702247  61.4250487   8.3962758
  15.7161110  60.9149441   8.8849983  14.8619398  62.1619169   8.9706183
  27.5955639  68.4931335  13.8954898  28.4646798  68.6671987  13.5341533
  27.1162390  69.3125751  13.7730628  27.4057976  52.2833308  -1.5967409
  26.6390372  51.7291795  -1.4510727  27.8168681  52.3555177  -0.7353258
  19.4099738  58.5718104  12.4937772  20.2731199  58.2154909  12.7041097
  18.8365148  58.2331999  13.1813176  35.6992760  77.7152954  10.7609215
  34.9226094  78.2746874  10.7512080  36.3383323  78.2009737  11.2824086
  32.6900496  77.6778055  11.1242492  32.0599156  78.3594336  11.3577889
  32.5836583  77.5661137  10.1795631  31.9681238  71.9798821  13.4867743
  31.5748184  71.4265019  14.1615388  32.7847379  72.2909399  13.8774261
  34.8849199  73.3956700  11.0788000  35.6258913  73.9963853  10.9992462
  35.1167122  72.6534338  10.5206043  30.0290537  78.5813067   9.3566230
  29.9144052  77.6798325   9.6573329  29.1735055  78.8276764   9.0051046
  36.7100656  73.1780594   8.3035296  36.0628571  73.8770543   8.2099773
  37.4801672  73.6116737   8.6711545  32.5513816  76.5246433   8.3551392
  32.0151173  76.0737171   9.0072988  31.9630524  76.6592342   7.6121856
  28.2852937  75.6602441   5.4404386  28.2011126  75.0528110   4.7054796
  27.4635644  76.1511459   5.4413883  36.7189677  80.0435301  11.9419871
  36.0430314  79.9429430  12.6122247  37.5417311  79.8874514  12.4055869
  30.4376954  73.6977378   6.7799372  30.5018280  74.5592209   6.3676770
  30.3744074  73.0851379   6.0471731  29.9129226  75.7700510  10.4272406
  30.5401265  75.3877588  11.0409931  29.0557145  75.5514712  10.7928099
  33.0215329  72.9887363   8.6158962  33.5449731  73.2349659   9.3785271
  32.8027663  73.8207397   8.1962099  27.6634609  79.3744731   8.3945752
  26.9216345  79.5227367   8.9810382  27.3427353  79.6352997   7.5312501
  33.1497283  75.0918416  12.0886326  33.1985439  75.9680539  11.7064096
  33.6919798  74.5495809  11.5157969  35.3796572  75.8449789   8.8432685
  34.5099881  76.1383355   8.5715273  35.6156052  76.4290234   9.5639948
  34.2757097  76.5301481  14.2766268  34.1753824  77.4795838  14.2078359
  34.0578639  76.2019720  13.4042338  34.1388367  79.9598620  13.0931329
  33.6555449  80.7598980  13.2995218  34.2249306  79.9706565  12.1398773
  25.9096001  76.7542405   8.3962758  26.5554865  76.2441359   8.8849983
  25.7013152  77.4911087   8.9706183  30.2493492  73.9010022  12.4937772
  31.1124954  73.5446827  12.7041097  29.6758903  73.5623917  13.1813176
  26.2688622  48.2001012  -2.3200963  25.8252476  47.4137391  -2.6380059
  26.9305835  48.3880163  -2.9857072  28.3669860  48.4803812  -4.2919562
  28.3488335  49.3012693  -4.7839293  29.2889780  48.3557888  -4.0669421
  24.8242914  45.9947942  -3.4496053  25.3571251  45.2336230  -3.6796745
  24.2956995  45.7021594  -2.7071899  34.2170592  44.9692908  -7.4709724
  34.4106482  45.8738718  -7.2250449  34.1171210  44.5100327  -6.6371139
  29.2785701  45.1199651  -1.8968844  29.1271207  44.8910202  -2.8138760
  29.2690380  46.0770252  -1.8837499  30.9877907  48.1518773  -3.8192362
  30.9290454  47.4677993  -4.4861779  31.3897426  48.8937763  -4.2711736
  30.9895315  46.1158357  -5.5878382  30.1022094  45.7784279  -5.4651983
  31.5593866  45.3841388  -5.3509617  26.9795152  50.6746643  -6.4658980
  27.6923124  51.3094108  -6.5383079  26.4885180  50.7710509  -7.2818978
  25.8795924  41.7205505  -1.3334822  25.2036561  41.6199635  -0.6632447
  26.7023558  41.5644719  -0.8698825  29.4729581  47.8533690  -1.2428552
  30.0169485  48.4663649  -1.7373597  28.8916426  48.4113269  -0.7261539
  24.7684518  50.5930915  -5.0828552  25.0771645  50.3480061  -4.2105852
  25.5660000  50.7977553  -5.5709681  32.7958376  47.3129745  -1.9067230
  32.0053919  47.2953883  -2.4462731  32.5591730  47.8518038  -1.1518194
  32.9156251  44.1622211  -4.5934502  32.9654256  43.9972218  -3.6518979
  32.8070174  43.2949470  -4.9836621  30.2060013  40.1453139  -3.2775195
  31.1069876  40.0059604  -3.5691197  30.2807988  40.3107594  -2.3377018
  34.4174448  46.5819152  -4.3492480  34.1259256  46.9449133  -3.5129019
  33.8046579  45.8686161  -4.5279148  25.5673406  44.7237446  -1.0313956
  26.4876416  44.9016045  -0.8373909  25.5322989  43.7793491  -1.1834257
  23.2994614  41.6368825  -0.1823364  22.8161696  42.4369185   0.0240525
  23.3855553  41.6476770  -1.1355920  27.5955640  45.4993457   0.6200205
  28.4646800  45.6734110   0.2586840  27.1162391  46.3187874   0.4975934
  35.6992761  54.7215076  -2.5145478  34.9226095  55.2808996  -2.5242613
  36.3383324  55.2071859  -1.9930608  32.6900497  54.6840178  -2.1512201
  32.0599157  55.3656459  -1.9176804  32.5836585  54.5723259  -3.0959063
  31.9681240  48.9860944   0.2113050  31.5748185  48.4327142   0.8860694
  32.7847380  49.2971522   0.6019568  34.8849201  50.4018823  -2.1966693
  35.6258914  51.0025976  -2.2762231  35.1167123  49.6596460  -2.7548651
  30.0290539  55.5875190  -3.9188464  29.9144054  54.6860447  -3.6181365
  29.1735056  55.8338887  -4.2703647  36.7100657  50.1842716  -4.9719397
  36.0628572  50.8832666  -5.0654920  37.4801673  50.6178860  -4.6043149
  32.5513817  53.5308555  -4.9203301  32.0151174  53.0799294  -4.2681705
  31.9630526  53.6654464  -5.6632837  28.2852938  52.6664563  -7.8350307
  28.2011127  52.0590233  -8.5699897  27.4635645  53.1573581  -7.8340811
  36.7189679  57.0497423  -1.3334822  36.0430316  56.9491552  -0.6632447
  37.5417313  56.8936637  -0.8698825  30.4376955  50.7039500  -6.4955321
  30.5018281  51.5654331  -6.9077924  30.3744075  50.0913502  -7.2282963
  29.9129227  52.7762633  -2.8482287  30.5401266  52.3939710  -2.2344763
  29.0557146  52.5576835  -2.4826594  33.0215331  49.9949485  -4.6595732
  33.5449732  50.2411782  -3.8969422  32.8027664  50.8269520  -5.0792594
  27.6634610  56.3806854  -4.8808942  26.9216346  56.5289489  -4.2944311
  27.3427355  56.6415120  -5.7442192  33.1497285  52.0980539  -1.1868367
  33.1985440  52.9742662  -1.5690598  33.6919799  51.5557932  -1.7596724
  35.3796573  52.8511911  -4.4322009  34.5099882  53.1445477  -4.7039420
  35.6156053  53.4352356  -3.7114745  34.2757098  53.5363604   1.0011574
  34.1753825  54.4857961   0.9323665  34.0578640  53.2081843   0.1287644
  34.1388368  56.9660743  -0.1823364  33.6555450  57.7661103   0.0240525
  34.2249307  56.9768688  -1.1355920  25.9096002  53.7604527  -4.8791936
  26.5554866  53.2503481  -4.3904710  25.7013153  54.4973209  -4.3048510
  30.2493493  50.9072145  -0.7816921  31.1124955  50.5508949  -0.5713597
  29.6758904  50.5686039  -0.0941517
  83.8587568  83.8587568  83.8587568 109.4712190 109.4712190 109.4712190
