default_name
    35
 175.9030000  18.9440000  48.1130000 176.0170000  20.4180000  48.4010000
 175.2080000  20.9830000  49.4060000 175.2800000  22.3470000  49.7260000
 174.3940000  22.9050000  50.7700000 175.0810000  23.2790000  51.9190000
 174.3770000  23.8140000  52.9680000 175.1040000  24.1620000  54.1070000
 174.4490000  24.7130000  55.2100000 173.0670000  24.9160000  55.1740000
 172.3440000  24.5690000  54.0360000 170.9960000  24.7950000  54.0680000
 173.0010000  24.0160000  52.9330000 172.2790000  23.6360000  51.7180000
 171.0640000  23.7900000  51.6060000 173.0660000  23.0520000  50.6070000
 172.3770000  22.7090000  49.4580000 176.1700000  23.1530000  49.0090000
 176.9810000  22.6070000  48.0110000 176.9210000  21.2390000  47.6950000
 177.8170000  20.6840000  46.6080000 177.1310000  20.3400000  45.4820000
 178.4950000  19.5610000  46.9810000 178.7720000  21.5710000  46.2100000
 175.8600000  18.3870000  49.0610000 174.9870000  18.7530000  47.5340000
 176.7780000  18.6150000  47.5340000 174.5030000  20.3400000  49.9530000
 176.1920000  24.0020000  54.1360000 175.0220000  24.9880000  56.1080000
 172.5510000  25.3490000  56.0440000 170.3980000  24.0760000  53.9990000
 171.5090000  23.0320000  49.3200000 176.2320000  24.2280000  49.2330000
 177.6780000  23.2590000  47.4640000
